      -----------------------------------------------------------      
     |                   =====================                   |     
     |                           x T B                           |     
     |                   =====================                   |     
     |                         S. Grimme                         |     
     |          Mulliken Center for Theoretical Chemistry        |     
     |                    University of Bonn                     |     
      -----------------------------------------------------------      

   * xtb version 6.5.1 (b24c23e) compiled by 'conda@728c89f4b128' on 2022-07-12

   xtb is free software: you can redistribute it and/or modify it under
   the terms of the GNU Lesser General Public License as published by
   the Free Software Foundation, either version 3 of the License, or
   (at your option) any later version.
   
   xtb is distributed in the hope that it will be useful,
   but WITHOUT ANY WARRANTY; without even the implied warranty of
   MERCHANTABILITY or FITNESS FOR A PARTICULAR PURPOSE.  See the
   GNU Lesser General Public License for more details.
   
   Cite this work as:
   * C. Bannwarth, E. Caldeweyher, S. Ehlert, A. Hansen, P. Pracht,
     J. Seibert, S. Spicher, S. Grimme, WIREs Comput. Mol. Sci., 2020, 11,
     e01493. DOI: 10.1002/wcms.1493
   
   for GFN2-xTB:
   * C. Bannwarth, S. Ehlert and S. Grimme., J. Chem. Theory Comput., 2019,
     15, 1652-1671. DOI: 10.1021/acs.jctc.8b01176
   for GFN1-xTB:
   * S. Grimme, C. Bannwarth, P. Shushkov, J. Chem. Theory Comput., 2017,
     13, 1989-2009. DOI: 10.1021/acs.jctc.7b00118
   for GFN0-xTB:
   * P. Pracht, E. Caldeweyher, S. Ehlert, S. Grimme, ChemRxiv, 2019, preprint.
     DOI: 10.26434/chemrxiv.8326202.v1
   for GFN-FF:
   * S. Spicher and S. Grimme, Angew. Chem. Int. Ed., 2020, 59, 15665-15673.
     DOI: 10.1002/anie.202004239
   
   for ALPB and GBSA implicit solvation:
   * S. Ehlert, M. Stahn, S. Spicher, S. Grimme, J. Chem. Theory Comput.,
     2021, 17, 4250-4261. DOI: 10.1021/acs.jctc.1c00471
   
   for DFT-D4:
   * E. Caldeweyher, C. Bannwarth and S. Grimme, J. Chem. Phys., 2017,
     147, 034112. DOI: 10.1063/1.4993215
   * E. Caldeweyher, S. Ehlert, A. Hansen, H. Neugebauer, S. Spicher,
     C. Bannwarth and S. Grimme, J. Chem. Phys., 2019, 150, 154122.
     DOI: 10.1063/1.5090222
   * E. Caldeweyher, J.-M. Mewes, S. Ehlert and S. Grimme, Phys. Chem. Chem. Phys.
     2020, 22, 8499-8512. DOI: 10.1039/D0CP00502A
   
   for sTDA-xTB:
   * S. Grimme and C. Bannwarth, J. Chem. Phys., 2016, 145, 054103.
     DOI: 10.1063/1.4959605
   
   in the mass-spec context:
   * V. Asgeirsson, C. Bauer and S. Grimme, Chem. Sci., 2017, 8, 4879.
     DOI: 10.1039/c7sc00601b
   * J. Koopman and S. Grimme, ACS Omega 2019, 4, 12, 15120-15133.
     DOI: 10.1021/acsomega.9b02011
   
   for metadynamics refer to:
   * S. Grimme, J. Chem. Theory Comput., 2019, 155, 2847-2862
     DOI: 10.1021/acs.jctc.9b00143
   
   for SPH calculations refer to:
   * S. Spicher and S. Grimme, J. Chem. Theory Comput., 2021, 17, 1701-1714
     DOI: 10.1021/acs.jctc.0c01306
   
   with help from (in alphabetical order)
   P. Atkinson, C. Bannwarth, F. Bohle, G. Brandenburg, E. Caldeweyher
   M. Checinski, S. Dohm, S. Ehlert, S. Ehrlich, I. Gerasimov, C. Hölzer
   A. Katbashev, J. Koopman, C. Lavigne, S. Lehtola, F. März, M. Müller,
   F. Musil, H. Neugebauer, J. Pisarek, C. Plett, P. Pracht, F. Pultar,
   J. Seibert, P. Shushkov, S. Spicher, M. Stahn, M. Steiner, T. Strunk,
   J. Stückrath, T. Rose, and J. Unsleber
   
 * started run on 2022/07/28 at 06:12:25.134     

           -------------------------------------------------
          |                Calculation Setup                |
           -------------------------------------------------

          program call               : xtb DHP_C6_10.xyz --gfn 1 --opt -T 48
          hostname                   : cx3-14-14.cx3.hpc.ic.ac.uk
          coordinate file            : DHP_C6_10.xyz
          omp threads                :                     1

   ID    Z sym.   atoms
    1    6 C      1-5, 7-10, 12-16, 18-23, 25-28, 30-35, 60-64, 66-69, 71-75,
                  77-82, 84-87, 89-94, 119-177, 179-182, 184-188, 190-195,
                  197-200, 202-207, 231-235, 237-240, 242-246, 248-253,
                  255-258, 260-265, 289-293, 295-298, 300-304, 306-311,
                  313-316, 318-323, 347-351, 353-356, 358-362, 364-369,
                  371-374, 376-381, 405-409, 411-414, 416-420, 422-427,
                  429-432, 434-439, 463-467, 469-472, 474-478, 480-485,
                  487-490, 492-497, 521-525, 527-530, 532-536, 538-543,
                  545-548, 550-555, 579-583, 585-588, 590-594, 596-601,
                  603-606, 608-613
    2    7 N      6, 11, 17, 24, 29, 36, 65, 70, 76, 83, 88, 95, 178, 183,
                  189, 196, 201, 208, 236, 241, 247, 254, 259, 266, 294, 299,
                  305, 312, 317, 324, 352, 357, 363, 370, 375, 382, 410, 415,
                  421, 428, 433, 440, 468, 473, 479, 486, 491, 498, 526, 531,
                  537, 544, 549, 556, 584, 589, 595, 602, 607, 614
    3    1 H      37-59, 96-118, 209-230, 267-288, 325-346, 383-404, 441-462,
                  499-520, 557-578, 615-636

molecular fragmentation (1/2 indicates fragments):
111111111111111111111111111111111111111111111111111111111112222222222222
222222222222222222222222222222222222222222222222222222222222222222222222
222222222222222222222222222222222222222222222222222222222222222222222222
222222222222222222222222222222222222222222222222222222222222222222222222
222222222222222222222222222222222222222222222222222222222222222222222222
222222222222222222222222222222222222222222222222222222222222222222222222
222222222222222222222222222222222222222222222222222222222222222222222222
222222222222222222222222222222222222222222222222222222222222222222222222
222222222222222222222222222222222222222222222222222222222222
# atoms in fragment 1/2:    59   577
 fragment masses (1/2) :      467.54     4848.42
CMA distance (Bohr)    : 155.461
constraining FC (au)   :  0.0500
########################################################################
[WARNING] Please study the warnings concerning your input carefully
-1- prog_main_parseArguments: Unknown option '-T' provided
########################################################################

           -------------------------------------------------
          |                 G F N 1 - x T B                 |
           -------------------------------------------------

        Reference                      10.1021/acs.jctc.7b00118
      * Hamiltonian:
        H0-scaling (s, p, d)           1.850000    2.250000    2.000000
        zeta-weighting                 0.000000
      * Dispersion:
        s8                             2.400000
        a1                             0.630000
        a2                             5.000000
        s9                             0.000000
      * Repulsion:
        kExp                           1.500000
        rExp                           1.000000
      * Coulomb:
        alpha                          2.000000
        third order                    atomic
        anisotropic                    false
      * Halogen bond correction:
        rad-scale                      1.300000
        damping                        0.440000


          ...................................................
          :                      SETUP                      :
          :.................................................:
          :  # basis functions                2100          :
          :  # atomic orbitals                2100          :
          :  # shells                         1272          :
          :  # electrons                      1938          :
          :  # halogen bonds                     0          :
          :  max. iterations                   250          :
          :  Hamiltonian                  GFN1-xTB          :
          :  restarted?                      false          :
          :  GBSA solvation                  false          :
          :  PC potential                    false          :
          :  electronic temp.          300.0000000     K    :
          :  accuracy                    1.0000000          :
          :  -> integral cutoff          0.2500000E+02      :
          :  -> integral neglect         0.1000000E-07      :
          :  -> SCF convergence          0.1000000E-05 Eh   :
          :  -> wf. convergence          0.2000000E-04 e    :
          :  Broyden damping             0.4000000          :
          ...................................................

 iter      E             dE          RMSdq      gap      omega  full diag
   1  -1071.4801181 -0.107148E+04  0.103E+01    0.07       0.0  T
   2  -1014.7093204  0.567708E+02  0.687E+00    0.00       1.0  T
   3   9327.4953807  0.103422E+05  0.195E+01    0.00       1.0  T
   4  15185.6030447  0.585811E+04  0.228E+01    0.08       1.0  T
   5   1573.6770204 -0.136119E+05  0.136E+01    0.00       1.0  T
   6   -927.0733860 -0.250075E+04  0.537E+00    0.00       1.0  T
   7   -772.8652607  0.154208E+03  0.576E+00    0.02       1.0  T
   8   -336.9180061  0.435947E+03  0.678E+00    0.00       1.0  T
   9   -599.4914516 -0.262573E+03  0.568E+00    0.01       1.0  T
  10   -870.7090440 -0.271218E+03  0.408E+00    0.03       1.0  T
  11   -767.9956400  0.102713E+03  0.457E+00    0.03       1.0  T
  12   -726.2110966  0.417845E+02  0.469E+00    0.05       1.0  T
  13   -684.6296750  0.415814E+02  0.493E+00    0.01       1.0  T
  14   -728.9310192 -0.443013E+02  0.473E+00    0.04       1.0  T
  15   -703.8030067  0.251280E+02  0.486E+00    0.00       1.0  T
  16   -756.5147700 -0.527118E+02  0.460E+00    0.00       1.0  T
  17   -755.6112827  0.903487E+00  0.465E+00    0.01       1.0  T
  18   -757.6243859 -0.201310E+01  0.465E+00    0.01       1.0  T
  19   -795.0907364 -0.374664E+02  0.442E+00    0.00       1.0  T
  20   -820.7586197 -0.256679E+02  0.423E+00    0.02       1.0  T
  21   -866.5710515 -0.458124E+02  0.405E+00    0.01       1.0  T
  22   -842.2186128  0.243524E+02  0.418E+00    0.01       1.0  T
  23   -959.4540543 -0.117235E+03  0.347E+00    0.01       1.0  T
  24  -1014.8877777 -0.554337E+02  0.301E+00    0.07       1.0  T
  25  -1016.7739452 -0.188617E+01  0.285E+00    0.03       1.0  T
  26  -1047.3093455 -0.305354E+02  0.267E+00    0.04       1.0  T
  27  -1050.3772911 -0.306795E+01  0.260E+00    0.10       1.0  T
  28  -1053.5428739 -0.316558E+01  0.251E+00    0.04       1.0  T
  29  -1051.7871091  0.175576E+01  0.251E+00    0.00       1.0  T
  30  -1054.5319781 -0.274487E+01  0.247E+00    0.00       1.0  T
  31  -1050.8223785  0.370960E+01  0.255E+00    0.00       1.0  T
  32  -1050.1266637  0.695715E+00  0.258E+00    0.01       1.0  T
  33  -1050.7294388 -0.602775E+00  0.256E+00    0.01       1.0  T
  34  -1048.9120654  0.181737E+01  0.265E+00    0.01       1.0  T
  35  -1048.8729741  0.390914E-01  0.266E+00    0.01       1.0  T
  36  -1048.5711918  0.301782E+00  0.279E+00    0.00       1.0  T
  37  -1047.7901424  0.781049E+00  0.278E+00    0.00       1.0  T
  38  -1047.6100270  0.180115E+00  0.279E+00    0.01       1.0  T
  39  -1045.0717770  0.253825E+01  0.287E+00    0.01       1.0  T
  40  -1045.2456072 -0.173830E+00  0.287E+00    0.02       1.0  T
  41  -1045.0915605  0.154047E+00  0.288E+00    0.00       1.0  T
  42  -1043.2709284  0.182063E+01  0.300E+00    0.02       1.0  T
  43  -1043.9754921 -0.704564E+00  0.298E+00    0.00       1.0  T
  44  -1043.5838123  0.391680E+00  0.303E+00    0.00       1.0  T
  45  -1042.8818844  0.701928E+00  0.304E+00    0.03       1.0  T
  46  -1042.4106310  0.471253E+00  0.302E+00    0.01       1.0  T
  47  -1040.1436161  0.226701E+01  0.311E+00    0.02       1.0  T
  48  -1040.4320965 -0.288480E+00  0.315E+00    0.04       1.0  T
  49  -1044.3261038 -0.389401E+01  0.293E+00    0.01       1.0  T
  50  -1053.0687396 -0.874264E+01  0.256E+00    0.02       1.0  T
  51  -1053.6090232 -0.540284E+00  0.246E+00    0.00       1.0  T
  52  -1065.0035268 -0.113945E+02  0.178E+00    0.04       1.0  T
  53  -1065.0511723 -0.476455E-01  0.166E+00    0.03       1.0  T
  54  -1067.3771583 -0.232599E+01  0.147E+00    0.05       1.0  T
  55  -1066.7386031  0.638555E+00  0.149E+00    0.04       1.0  T
  56  -1064.2403529  0.249825E+01  0.160E+00    0.02       1.0  T
  57  -1065.6590448 -0.141869E+01  0.147E+00    0.01       1.0  T
  58  -1062.7479273  0.291112E+01  0.166E+00    0.03       1.0  T
  59  -1063.1555379 -0.407611E+00  0.165E+00    0.01       1.0  T
  60  -1061.9939452  0.116159E+01  0.169E+00    0.00       1.0  T
  61  -1062.9354108 -0.941466E+00  0.163E+00    0.01       1.0  T
  62  -1061.7053403  0.123007E+01  0.171E+00    0.02       1.0  T
  63  -1067.5499032 -0.584456E+01  0.152E+00    0.03       1.0  T
  64  -1066.1532278  0.139668E+01  0.147E+00    0.02       1.0  T
  65  -1067.6169083 -0.146368E+01  0.138E+00    0.03       1.0  T
  66  -1070.5801176 -0.296321E+01  0.121E+00    0.07       1.0  T
  67  -1071.2691362 -0.689019E+00  0.111E+00    0.05       1.0  T
  68  -1072.3714710 -0.110233E+01  0.977E-01    0.02       1.0  T
  69  -1072.0466087  0.324862E+00  0.966E-01    0.01       1.0  T
  70  -1071.9933083  0.533003E-01  0.848E-01    0.01       1.0  T
  71  -1071.2334182  0.759890E+00  0.942E-01    0.03       1.0  T
  72  -1071.3233482 -0.899301E-01  0.975E-01    0.02       1.0  T
  73  -1070.5793590  0.743989E+00  0.108E+00    0.01       1.0  T
  74  -1070.0122991  0.567060E+00  0.113E+00    0.02       1.0  T
  75  -1070.4395746 -0.427275E+00  0.113E+00    0.01       1.0  T
  76  -1070.4515810 -0.120064E-01  0.112E+00    0.01       1.0  T
  77  -1069.5944823  0.857099E+00  0.111E+00    0.01       1.0  T
  78  -1069.6345416 -0.400594E-01  0.114E+00    0.05       1.0  T
  79  -1069.4203087  0.214233E+00  0.108E+00    0.04       1.0  T
  80  -1068.7949987  0.625310E+00  0.112E+00    0.01       1.0  T
  81  -1069.3907722 -0.595773E+00  0.109E+00    0.11       1.0  T
  82  -1070.2360520 -0.845280E+00  0.103E+00    0.04       1.0  T
  83  -1070.4736482 -0.237596E+00  0.101E+00    0.07       1.0  T
  84  -1070.7464585 -0.272810E+00  0.907E-01    0.03       1.0  T
  85  -1072.0609054 -0.131445E+01  0.630E-01    0.04       1.0  T
  86  -1072.4957085 -0.434803E+00  0.583E-01    0.01       1.0  T
  87  -1072.2359751  0.259733E+00  0.602E-01    0.03       1.0  T
  88  -1072.3261057 -0.901306E-01  0.628E-01    0.03       1.0  T
  89  -1072.5860783 -0.259973E+00  0.557E-01    0.02       1.0  T
  90  -1072.8359951 -0.249917E+00  0.482E-01    0.01       1.0  T
  91  -1072.9535919 -0.117597E+00  0.474E-01    0.01       1.0  T
  92  -1072.9490732  0.451879E-02  0.451E-01    0.02       1.0  T
  93  -1073.1283671 -0.179294E+00  0.400E-01    0.02       1.0  T
  94  -1073.1032552  0.251119E-01  0.402E-01    0.02       1.0  T
  95  -1073.2583427 -0.155087E+00  0.354E-01    0.02       1.0  T
  96  -1073.3771751 -0.118832E+00  0.316E-01    0.04       1.0  T
  97  -1073.3436903  0.334848E-01  0.321E-01    0.02       1.0  T
  98  -1073.4684782 -0.124788E+00  0.296E-01    0.09       1.0  T
  99  -1073.4868488 -0.183706E-01  0.291E-01    0.09       1.0  T
 100  -1073.5118322 -0.249834E-01  0.276E-01    0.08       1.0  T
 101  -1073.5299376 -0.181053E-01  0.244E-01    0.06       1.0  T
 102  -1073.4953694  0.345682E-01  0.256E-01    0.03       1.0  T
 103  -1073.5469641 -0.515947E-01  0.231E-01    0.06       1.0  T
 104  -1073.5858287 -0.388646E-01  0.204E-01    0.08       1.0  T
 105  -1073.5951364 -0.930776E-02  0.198E-01    0.09       1.0  T
 106  -1073.5957533 -0.616879E-03  0.189E-01    0.08       1.0  T
 107  -1073.6129426 -0.171893E-01  0.169E-01    0.08       1.0  T
 108  -1073.6322896 -0.193469E-01  0.153E-01    0.10       1.0  T
 109  -1073.6396919 -0.740234E-02  0.128E-01    0.08       1.0  T
 110  -1073.6507393 -0.110474E-01  0.126E-01    0.10       1.0  T
 111  -1073.6531200 -0.238067E-02  0.120E-01    0.10       1.0  T
 112  -1073.6566999 -0.357991E-02  0.110E-01    0.09       1.0  T
 113  -1073.6596297 -0.292977E-02  0.104E-01    0.09       1.0  T
 114  -1073.6652371 -0.560744E-02  0.886E-02    0.08       1.0  T
 115  -1073.6692060 -0.396889E-02  0.814E-02    0.08       1.0  T
 116  -1073.6718947 -0.268872E-02  0.769E-02    0.08       1.0  T
 117  -1073.6748041 -0.290944E-02  0.727E-02    0.09       1.0  T
 118  -1073.6759454 -0.114123E-02  0.693E-02    0.10       1.0  T
 119  -1073.6771446 -0.119924E-02  0.638E-02    0.09       1.0  T
 120  -1073.6776216 -0.477013E-03  0.624E-02    0.10       1.0  T
 121  -1073.6788988 -0.127713E-02  0.581E-02    0.10       1.0  T
 122  -1073.6799689 -0.107010E-02  0.535E-02    0.10       1.0  T
 123  -1073.6804892 -0.520382E-03  0.516E-02    0.10       1.0  T
 124  -1073.6809386 -0.449388E-03  0.489E-02    0.10       1.0  T
 125  -1073.6813615 -0.422817E-03  0.451E-02    0.10       1.0  T
 126  -1073.6818530 -0.491547E-03  0.431E-02    0.10       1.0  T
 127  -1073.6821588 -0.305827E-03  0.405E-02    0.10       1.0  T
 128  -1073.6827435 -0.584675E-03  0.349E-02    0.10       1.0  T
 129  -1073.6833206 -0.577113E-03  0.317E-02    0.11       1.0  T
 130  -1073.6836411 -0.320441E-03  0.298E-02    0.11       1.0  T
 131  -1073.6840662 -0.425108E-03  0.261E-02    0.11       1.0  T
 132  -1073.6843440 -0.277857E-03  0.237E-02    0.11       1.0  T
 133  -1073.6845775 -0.233466E-03  0.215E-02    0.11       1.0  T
 134  -1073.6847382 -0.160675E-03  0.197E-02    0.11       1.0  T
 135  -1073.6848825 -0.144335E-03  0.178E-02    0.11       1.0  T
 136  -1073.6849936 -0.111072E-03  0.158E-02    0.11       1.0  T
 137  -1073.6850962 -0.102659E-03  0.141E-02    0.11       1.0  T
 138  -1073.6851548 -0.585695E-04  0.130E-02    0.11       1.0  T
 139  -1073.6852199 -0.651111E-04  0.115E-02    0.11       1.0  T
 140  -1073.6852911 -0.712391E-04  0.969E-03    0.11       1.0  T
 141  -1073.6853155 -0.243844E-04  0.877E-03    0.11       1.0  T
 142  -1073.6853409 -0.253596E-04  0.805E-03    0.11       1.0  T
 143  -1073.6853577 -0.167841E-04  0.733E-03    0.11       1.0  T
 144  -1073.6853754 -0.177471E-04  0.668E-03    0.11       1.0  T
 145  -1073.6853896 -0.141747E-04  0.601E-03    0.11       1.0  T
 146  -1073.6854003 -0.106887E-04  0.559E-03    0.11       1.0  T
 147  -1073.6854123 -0.120624E-04  0.503E-03    0.11       1.0  T
 148  -1073.6854220 -0.961239E-05  0.458E-03    0.11       1.0  T
 149  -1073.6854299 -0.792553E-05  0.412E-03    0.11       1.0  T
 150  -1073.6854363 -0.641851E-05  0.383E-03    0.11       1.0  T
 151  -1073.6854426 -0.629972E-05  0.348E-03    0.11       1.1  T
 152  -1073.6854499 -0.726824E-05  0.297E-03    0.11       1.3  T
 153  -1073.6854539 -0.401775E-05  0.259E-03    0.11       1.5  T
 154  -1073.6854564 -0.249181E-05  0.229E-03    0.11       1.7  T
 155  -1073.6854586 -0.225875E-05  0.201E-03    0.11       2.0  T
 156  -1073.6854602 -0.153451E-05  0.182E-03    0.11       2.2  T
 157  -1073.6854620 -0.184982E-05  0.158E-03    0.11       2.5  T
 158  -1073.6854632 -0.112947E-05  0.139E-03    0.11       2.9  T
 159  -1073.6854639 -0.772799E-06  0.126E-03    0.11       3.1  T
 160  -1073.6854646 -0.640721E-06  0.112E-03    0.11       3.5  T
 161  -1073.6854652 -0.598191E-06  0.982E-04    0.11       4.0  T
 162  -1073.6854657 -0.573866E-06  0.827E-04    0.11       4.8  T
 163  -1073.6854661 -0.381241E-06  0.738E-04    0.11       5.4  T
 164  -1073.6854664 -0.234606E-06  0.671E-04    0.11       5.9  T
 165  -1073.6854666 -0.264683E-06  0.605E-04    0.11       6.6  T
 166  -1073.6854668 -0.170222E-06  0.564E-04    0.11       7.0  T
 167  -1073.6854669 -0.148580E-06  0.509E-04    0.11       7.8  T
 168  -1073.6854671 -0.115021E-06  0.458E-04    0.11       8.7  T
 169  -1073.6854671 -0.699952E-07  0.415E-04    0.11       9.5  T
 170  -1073.6854672 -0.370167E-07  0.379E-04    0.11      10.5  T
 171  -1073.6854672 -0.326438E-07  0.348E-04    0.11      11.4  T
 172  -1073.6854672 -0.355647E-07  0.316E-04    0.11      12.6  T
 173  -1073.6854673 -0.499390E-07  0.284E-04    0.11      14.0  T
 174  -1073.6854673 -0.308928E-07  0.263E-04    0.11      15.1  T
 175  -1073.6854673 -0.319510E-07  0.238E-04    0.11      16.7  T
 176  -1073.6854674 -0.375376E-07  0.204E-04    0.11      19.4  T
 177  -1073.6854674 -0.292514E-07  0.171E-04    0.11      23.1  T
 178  -1073.6854674 -0.163209E-07  0.149E-04    0.11      26.6  T

   *** convergence criteria satisfied after 178 iterations ***

         #    Occupation            Energy/Eh            Energy/eV
      -------------------------------------------------------------
         1        2.0000           -0.7941654             -21.6103
       ...           ...                  ...                  ...
       963        1.9980           -0.3693262             -10.0499
       964        1.9980           -0.3693239             -10.0498
       965        1.9922           -0.3680322             -10.0147
       966        1.9888           -0.3676867             -10.0053
       967        1.9885           -0.3676606             -10.0046
       968        1.9031           -0.3655983              -9.9484
       969        1.7723           -0.3647184              -9.9245 (HOMO)
       970        0.1829           -0.3605876              -9.8121 (LUMO)
       971        0.1818           -0.3605815              -9.8119
       972        0.0019           -0.3561443              -9.6912
       973        0.0001           -0.3537204              -9.6252
       974        0.0000           -0.3512367              -9.5576
       ...           ...                  ...                  ...
      2100                          1.5561579              42.3452
      -------------------------------------------------------------
                  HL-Gap            0.0041308 Eh            0.1124 eV
             Fermi-level           -0.3627690 Eh           -9.8714 eV

 SCC (total)                   0 d,  0 h, 14 min,  8.553 sec
 SCC setup                      ...        0 min,  0.198 sec (  0.023%)
 Dispersion                     ...        0 min,  0.102 sec (  0.012%)
 classical contributions        ...        0 min,  0.017 sec (  0.002%)
 integral evaluation            ...        0 min,  2.448 sec (  0.288%)
 iterations                     ...       14 min,  1.258 sec ( 99.140%)
 molecular gradient             ...        0 min,  3.606 sec (  0.425%)
 printout                       ...        0 min,  0.926 sec (  0.109%)

         :::::::::::::::::::::::::::::::::::::::::::::::::::::
         ::                     SUMMARY                     ::
         :::::::::::::::::::::::::::::::::::::::::::::::::::::
         :: total energy           -1055.961717150811 Eh    ::
         :: gradient norm              0.988756646038 Eh/a0 ::
         :: HOMO-LUMO gap              0.112404609701 eV    ::
         ::.................................................::
         :: SCC energy             -1073.685467426434 Eh    ::
         :: -> electrostatic           0.849692334016 Eh    ::
         :: repulsion energy          18.242363711829 Eh    ::
         :: dispersion energy         -0.518613436206 Eh    ::
         :: halogen bond corr.         0.000000000000 Eh    ::
         :: add. restraining           0.000000000000 Eh    ::
         :: total charge               0.000000000210 e     ::
         :::::::::::::::::::::::::::::::::::::::::::::::::::::

      ----------------------------------------------------------- 
     |                       L-ANC optimizer                     |
      ----------------------------------------------------------- 
          low memory version by Sebastian Ehlert

          ...................................................
          :                      SETUP                      :
          :.................................................:
          :   energy convergence        0.5000000E-05 Eh    :
          :   grad. convergence         0.1000000E-02 Eh/a0 :
          :   optimization log               true           :
          :   writing optlog all                1     steps :
          :   Hessian reset                    20     steps :
          :   maximium step len.        1.0000000     a0    :
          :   LBFGS images                     20           :
          ...................................................
 * calculating model hessian...
Using Lindh-Hessian (1995)
 Shifting diagonal of input Hessian by    1.0020930850951118E-002
 Lowest  eigenvalues of input Hessian
    0.010000    0.010009    0.010017    0.010018    0.010019    0.010019
    0.010020    0.010020    0.010020    0.010021    0.010021    0.000000
    0.000000    0.000000    0.000000    0.000000    0.000000    0.010021
 Highest eigenvalues
    2.890625    2.890625    2.890626    2.890626    2.890628    2.890630


........................................................................
.............................. CYCLE    1 ..............................
........................................................................
   1  -1073.5491476 -0.107355E+04  0.693E-02    0.13       0.0  T
   2  -1072.9532026  0.595945E+00  0.442E-01    0.06       1.0  T
   3  -1073.5319138 -0.578711E+00  0.104E-01    0.24       1.0  T
   4  -1073.5515798 -0.196660E-01  0.510E-02    0.14       1.0  T
   5  -1073.5538544 -0.227457E-02  0.334E-02    0.11       1.0  T
   6  -1073.3935532  0.160301E+00  0.209E-01    0.00       1.0  T
   7  -1073.5324344 -0.138881E+00  0.794E-02    0.05       1.0  T
   8  -1073.5517380 -0.193035E-01  0.338E-02    0.08       1.0  T
   9  -1073.5548712 -0.313327E-02  0.153E-02    0.10       1.0  T
  10  -1073.5556066 -0.735365E-03  0.766E-03    0.11       1.0  T
  11  -1073.5558073 -0.200745E-03  0.322E-03    0.11       1.2  T
  12  -1073.5558371 -0.297352E-04  0.164E-03    0.11       2.4  T
  13  -1073.5558418 -0.472128E-05  0.886E-04    0.11       4.5  T
  14  -1073.5558415  0.292238E-06  0.794E-04    0.11       5.0  T
  15  -1073.5558417 -0.196272E-06  0.708E-04    0.11       5.6  T
  16  -1073.5558430 -0.133640E-05  0.358E-04    0.11      11.1  T
  17  -1073.5558433 -0.290471E-06  0.194E-04    0.11      20.4  T
  18  -1073.5558434 -0.923540E-07  0.103E-04    0.11      38.5  T
     SCC iter.                  ...        1 min, 37.827 sec
     gradient                   ...        0 min,  3.676 sec
 * total energy  : -1056.3818980 Eh     change       -0.4201808E+00 Eh
   gradient norm :     0.6345257 Eh/a0  converged?    E=F G=F D=F
   step length   :     0.5627391 a0

........................................................................
.............................. CYCLE    2 ..............................
........................................................................
   1  -1073.6642121 -0.107366E+04  0.599E-02    0.16       0.0  T
   2  -1072.7803629  0.883849E+00  0.537E-01    0.08       1.0  T
   3  -1073.6513831 -0.871020E+00  0.983E-02    0.21       1.0  T
   4  -1073.6692414 -0.178582E-01  0.312E-02    0.13       1.0  T
   5  -1073.6629359  0.630548E-02  0.499E-02    0.09       1.0  T
   6  -1073.6411053  0.218306E-01  0.915E-02    0.06       1.0  T
   7  -1073.6677525 -0.266472E-01  0.309E-02    0.09       1.0  T
   8  -1073.6673509  0.401544E-03  0.292E-02    0.09       1.0  T
   9  -1073.6692852 -0.193424E-02  0.176E-02    0.10       1.0  T
  10  -1073.6707124 -0.142718E-02  0.426E-03    0.12       1.0  T
  11  -1073.6707489 -0.365551E-04  0.156E-03    0.12       2.5  T
  12  -1073.6707479  0.102771E-05  0.147E-03    0.12       2.7  T
  13  -1073.6707520 -0.411119E-05  0.890E-04    0.12       4.5  T
  14  -1073.6707509  0.108394E-05  0.915E-04    0.12       4.3  T
  15  -1073.6707526 -0.169162E-05  0.554E-04    0.12       7.2  T
  16  -1073.6707535 -0.859984E-06  0.260E-04    0.12      15.3  T
  17  -1073.6707536 -0.185235E-06  0.122E-04    0.12      32.4  T
  18  -1073.6707537 -0.335840E-07  0.780E-05    0.12      50.8  T
     SCC iter.                  ...        1 min, 44.741 sec
     gradient                   ...        0 min,  3.800 sec
 * total energy  : -1056.6066040 Eh     change       -0.2247061E+00 Eh
   gradient norm :     0.4565146 Eh/a0  converged?    E=F G=F D=F
   step length   :     3.8584154 a0

........................................................................
.............................. CYCLE    3 ..............................
........................................................................
   1  -1073.7921173 -0.107379E+04  0.496E-02    0.19       0.0  T
   2  -1072.8475130  0.944604E+00  0.552E-01    0.08       1.0  T
   3  -1073.7897258 -0.942213E+00  0.584E-02    0.20       1.0  T
   4  -1073.7961773 -0.645159E-02  0.269E-02    0.15       1.0  T
   5  -1073.7960628  0.114535E-03  0.234E-02    0.12       1.0  T
   6  -1073.7874004  0.866246E-02  0.543E-02    0.09       1.0  T
   7  -1073.7958584 -0.845807E-02  0.241E-02    0.10       1.0  T
   8  -1073.7955146  0.343870E-03  0.243E-02    0.10       1.0  T
   9  -1073.7968875 -0.137296E-02  0.136E-02    0.11       1.0  T
  10  -1073.7975365 -0.649010E-03  0.619E-03    0.12       1.0  T
  11  -1073.7976653 -0.128778E-03  0.241E-03    0.13       1.6  T
  12  -1073.7976790 -0.136724E-04  0.145E-03    0.13       2.7  T
  13  -1073.7976839 -0.489745E-05  0.784E-04    0.13       5.1  T
  14  -1073.7976841 -0.209935E-06  0.680E-04    0.13       5.8  T
  15  -1073.7976851 -0.105725E-05  0.397E-04    0.13      10.0  T
  16  -1073.7976856 -0.486708E-06  0.160E-04    0.13      24.8  T
  17  -1073.7976857 -0.808075E-07  0.641E-05    0.13      61.9  T
     SCC iter.                  ...        1 min, 21.280 sec
     gradient                   ...        0 min,  3.650 sec
 * total energy  : -1056.7258690 Eh     change       -0.1192649E+00 Eh
   gradient norm :     0.3492707 Eh/a0  converged?    E=F G=F D=F
   step length   :     5.4307804 a0

........................................................................
.............................. CYCLE    4 ..............................
........................................................................
   1  -1073.8984721 -0.107390E+04  0.453E-02    0.24       0.0  T
   2  -1072.9155300  0.982942E+00  0.559E-01    0.06       1.0  T
   3  -1073.8994631 -0.983933E+00  0.352E-02    0.24       1.0  T
   4  -1073.9017479 -0.228487E-02  0.244E-02    0.20       1.0  T
   5  -1073.9026998 -0.951925E-03  0.157E-02    0.18       1.0  T
   6  -1073.9035368 -0.836990E-03  0.793E-03    0.14       1.0  T
   7  -1073.9019183  0.161856E-02  0.223E-02    0.12       1.0  T
   8  -1073.9018044  0.113890E-03  0.229E-02    0.12       1.0  T
   9  -1073.9028867 -0.108234E-02  0.143E-02    0.13       1.0  T
  10  -1073.9033185 -0.431805E-03  0.882E-03    0.13       1.0  T
  11  -1073.9035677 -0.249188E-03  0.316E-03    0.14       1.3  T
  12  -1073.9035887 -0.210065E-04  0.191E-03    0.14       2.1  T
  13  -1073.9035973 -0.855736E-05  0.109E-03    0.14       3.6  T
  14  -1073.9036002 -0.286861E-05  0.628E-04    0.14       6.3  T
  15  -1073.9036012 -0.103446E-05  0.329E-04    0.14      12.0  T
  16  -1073.9036015 -0.305975E-06  0.152E-04    0.14      26.1  T
  17  -1073.9036016 -0.576306E-07  0.870E-05    0.15      45.6  T
     SCC iter.                  ...        1 min, 32.586 sec
     gradient                   ...        0 min,  3.530 sec
 * total energy  : -1056.8017735 Eh     change       -0.7590451E-01 Eh
   gradient norm :     0.2749996 Eh/a0  converged?    E=F G=F D=F
   step length   :     6.4503983 a0

........................................................................
.............................. CYCLE    5 ..............................
........................................................................
   1  -1073.9803650 -0.107398E+04  0.390E-02    0.31       0.0  T
   2  -1073.4572108  0.523154E+00  0.401E-01    0.01       1.0  T
   3  -1073.9803837 -0.523173E+00  0.408E-02    0.29       1.0  T
   4  -1073.9818039 -0.142016E-02  0.264E-02    0.29       1.0  T
   5  -1073.9826578 -0.853932E-03  0.212E-02    0.26       1.0  T
   6  -1073.9833629 -0.705120E-03  0.140E-02    0.22       1.0  T
   7  -1073.9838026 -0.439703E-03  0.902E-03    0.19       1.0  T
   8  -1073.9835858  0.216815E-03  0.123E-02    0.16       1.0  T
   9  -1073.9824442  0.114157E-02  0.213E-02    0.14       1.0  T
  10  -1073.9836536 -0.120938E-02  0.102E-02    0.16       1.0  T
  11  -1073.9839524 -0.298782E-03  0.376E-03    0.17       1.1  T
  12  -1073.9839843 -0.318763E-04  0.211E-03    0.17       1.9  T
  13  -1073.9839959 -0.116626E-04  0.105E-03    0.17       3.8  T
  14  -1073.9839992 -0.328988E-05  0.431E-04    0.18       9.2  T
  15  -1073.9839998 -0.537641E-06  0.178E-04    0.18      22.3  T
  16  -1073.9839999 -0.103334E-06  0.491E-05    0.18      80.8  T
     SCC iter.                  ...        1 min, 27.237 sec
     gradient                   ...        0 min,  3.711 sec
 * total energy  : -1056.8564726 Eh     change       -0.5469911E-01 Eh
   gradient norm :     0.2193251 Eh/a0  converged?    E=F G=F D=F
   step length   :    10.1089018 a0

........................................................................
.............................. CYCLE    6 ..............................
........................................................................
   1  -1074.0484925 -0.107405E+04  0.306E-02    0.43       0.0  T
   2  -1074.0466069  0.188553E-02  0.568E-02    0.19       1.0  T
   3  -1074.0502399 -0.363301E-02  0.155E-02    0.28       1.0  T
   4  -1074.0496470  0.592896E-03  0.204E-02    0.21       1.0  T
   5  -1074.0502734 -0.626374E-03  0.968E-03    0.26       1.0  T
   6  -1074.0503144 -0.410139E-04  0.482E-03    0.25       1.0  T
   7  -1074.0503441 -0.296772E-04  0.140E-03    0.26       2.8  T
   8  -1074.0503466 -0.249918E-05  0.624E-04    0.27       6.4  T
   9  -1074.0503470 -0.416597E-06  0.370E-04    0.27      10.7  T
  10  -1074.0503472 -0.221259E-06  0.157E-04    0.27      25.2  T
  11  -1074.0503473 -0.244906E-07  0.773E-05    0.27      51.3  T
     SCC iter.                  ...        1 min,  0.190 sec
     gradient                   ...        0 min,  3.599 sec
 * total energy  : -1056.9048489 Eh     change       -0.4837633E-01 Eh
   gradient norm :     0.1749846 Eh/a0  converged?    E=F G=F D=F
   step length   :    21.5927854 a0

........................................................................
.............................. CYCLE    7 ..............................
........................................................................
   1  -1074.1060874 -0.107411E+04  0.234E-02    0.61       0.0  T
   2  -1074.1058967  0.190618E-03  0.355E-02    0.52       1.0  T
   3  -1074.1069133 -0.101661E-02  0.104E-02    0.54       1.0  T
   4  -1074.1069011  0.122970E-04  0.670E-03    0.55       1.0  T
   5  -1074.1069286 -0.275346E-04  0.428E-03    0.54       1.0  T
   6  -1074.1069480 -0.194290E-04  0.887E-04    0.55       4.5  T
   7  -1074.1069488 -0.790282E-06  0.358E-04    0.55      11.1  T
   8  -1074.1069489 -0.143235E-06  0.186E-04    0.55      21.3  T
   9  -1074.1069490 -0.389898E-07  0.711E-05    0.55      55.7  T
     SCC iter.                  ...        0 min, 49.536 sec
     gradient                   ...        0 min,  3.703 sec
 * total energy  : -1056.9513990 Eh     change       -0.4655004E-01 Eh
   gradient norm :     0.1385411 Eh/a0  converged?    E=F G=F D=F
   step length   :   129.2769606 a0

........................................................................
.............................. CYCLE    8 ..............................
........................................................................
   1  -1074.1624351 -0.107416E+04  0.216E-02    0.64       0.0  T
   2  -1074.1625357 -0.100568E-03  0.265E-02    0.64       1.0  T
   3  -1074.1630388 -0.503148E-03  0.817E-03    0.64       1.0  T
   4  -1074.1630264  0.124067E-04  0.451E-03    0.64       1.0  T
   5  -1074.1630359 -0.953262E-05  0.331E-03    0.64       1.2  T
   6  -1074.1630503 -0.143162E-04  0.732E-04    0.64       5.4  T
   7  -1074.1630509 -0.632449E-06  0.208E-04    0.64      19.1  T
   8  -1074.1630509 -0.437992E-07  0.134E-04    0.64      29.6  T
   9  -1074.1630509 -0.164537E-07  0.572E-05    0.64      69.3  T
     SCC iter.                  ...        0 min, 49.185 sec
     gradient                   ...        0 min,  3.720 sec
 * total energy  : -1056.9976328 Eh     change       -0.4623382E-01 Eh
   gradient norm :     0.1122714 Eh/a0  converged?    E=F G=F D=F
   step length   : 35509.8025114 a0

........................................................................
.............................. CYCLE    9 ..............................
........................................................................
   1  -1074.2210704 -0.107422E+04  0.211E-02    0.66       0.0  T
   2  -1074.2212869 -0.216425E-03  0.224E-02    0.66       1.0  T
   3  -1074.2215689 -0.282056E-03  0.791E-03    0.66       1.0  T
   4  -1074.2215528  0.160780E-04  0.437E-03    0.66       1.0  T
   5  -1074.2215616 -0.873813E-05  0.265E-03    0.66       1.5  T
   6  -1074.2215748 -0.131751E-04  0.713E-04    0.66       5.6  T
   7  -1074.2215755 -0.780004E-06  0.217E-04    0.66      18.2  T
   8  -1074.2215756 -0.613072E-07  0.117E-04    0.66      33.9  T
   9  -1074.2215756 -0.160783E-07  0.493E-05    0.66      80.5  T
     SCC iter.                  ...        0 min, 49.826 sec
     gradient                   ...        0 min,  3.725 sec
 * total energy  : -1057.0429310 Eh     change       -0.4529818E-01 Eh
   gradient norm :     0.1047159 Eh/a0  converged?    E=F G=F D=F
   step length   :    97.6276432 a0

........................................................................
.............................. CYCLE   10 ..............................
........................................................................
   1  -1074.2779541 -0.107428E+04  0.194E-02    0.69       0.0  T
   2  -1074.2781613 -0.207238E-03  0.189E-02    0.69       1.0  T
   3  -1074.2783207 -0.159367E-03  0.728E-03    0.69       1.0  T
   4  -1074.2783007  0.200013E-04  0.467E-03    0.69       1.0  T
   5  -1074.2783154 -0.147467E-04  0.201E-03    0.69       2.0  T
   6  -1074.2783243 -0.888875E-05  0.650E-04    0.69       6.1  T
   7  -1074.2783250 -0.722831E-06  0.227E-04    0.69      17.4  T
   8  -1074.2783251 -0.715177E-07  0.824E-05    0.69      48.1  T
   9  -1074.2783251 -0.745968E-08  0.406E-05    0.69      97.6  T
     SCC iter.                  ...        0 min, 49.931 sec
     gradient                   ...        0 min,  3.754 sec
 * total energy  : -1057.0853872 Eh     change       -0.4245621E-01 Eh
   gradient norm :     0.1172897 Eh/a0  converged?    E=F G=F D=F
   step length   :    36.5926261 a0

........................................................................
.............................. CYCLE   11 ..............................
........................................................................
   1  -1074.3428061 -0.107434E+04  0.206E-02    0.71       0.0  T
   2  -1074.3429988 -0.192642E-03  0.195E-02    0.71       1.0  T
   3  -1074.3431330 -0.134247E-03  0.838E-03    0.71       1.0  T
   4  -1074.3430968  0.362799E-04  0.579E-03    0.71       1.0  T
   5  -1074.3431299 -0.331596E-04  0.180E-03    0.71       2.2  T
   6  -1074.3431368 -0.689194E-05  0.603E-04    0.71       6.6  T
   7  -1074.3431374 -0.622237E-06  0.242E-04    0.71      16.4  T
   8  -1074.3431375 -0.999351E-07  0.772E-05    0.71      51.3  T
   9  -1074.3431375 -0.658702E-08  0.364E-05    0.71     108.9  T
     SCC iter.                  ...        0 min, 49.562 sec
     gradient                   ...        0 min,  3.728 sec
 * total energy  : -1057.1245132 Eh     change       -0.3912599E-01 Eh
   gradient norm :     0.1449981 Eh/a0  converged?    E=F G=F D=F
   step length   :    36.6920842 a0

........................................................................
.............................. CYCLE   12 ..............................
........................................................................
   1  -1074.4061045 -0.107441E+04  0.187E-02    0.72       0.0  T
   2  -1074.4062344 -0.129851E-03  0.175E-02    0.72       1.0  T
   3  -1074.4063270 -0.926609E-04  0.793E-03    0.72       1.0  T
   4  -1074.4062876  0.393747E-04  0.581E-03    0.71       1.0  T
   5  -1074.4063264 -0.387881E-04  0.141E-03    0.71       2.8  T
   6  -1074.4063304 -0.394250E-05  0.483E-04    0.71       8.2  T
   7  -1074.4063308 -0.383299E-06  0.213E-04    0.71      18.6  T
   8  -1074.4063308 -0.838943E-07  0.690E-05    0.71      57.4  T
   9  -1074.4063309 -0.582850E-08  0.315E-05    0.71     125.8  T
     SCC iter.                  ...        0 min, 49.948 sec
     gradient                   ...        0 min,  3.686 sec
 * total energy  : -1057.1585798 Eh     change       -0.3406666E-01 Eh
   gradient norm :     0.1719273 Eh/a0  converged?    E=F G=F D=F
   step length   :    13.9817821 a0

........................................................................
.............................. CYCLE   13 ..............................
........................................................................
   1  -1074.4670669 -0.107447E+04  0.157E-02    0.72       0.0  T
   2  -1074.4671387 -0.718445E-04  0.149E-02    0.72       1.0  T
   3  -1074.4672091 -0.703326E-04  0.681E-03    0.72       1.0  T
   4  -1074.4671744  0.346504E-04  0.533E-03    0.71       1.0  T
   5  -1074.4672101 -0.357095E-04  0.960E-04    0.71       4.1  T
   6  -1074.4672116 -0.148779E-05  0.334E-04    0.71      11.9  T
   7  -1074.4672118 -0.165615E-06  0.168E-04    0.71      23.6  T
   8  -1074.4672118 -0.558646E-07  0.577E-05    0.71      68.8  T
     SCC iter.                  ...        0 min, 44.390 sec
     gradient                   ...        0 min,  3.721 sec
 * total energy  : -1057.1831604 Eh     change       -0.2458053E-01 Eh
   gradient norm :     0.1954287 Eh/a0  converged?    E=F G=F D=F
   step length   :     8.2337819 a0

........................................................................
.............................. CYCLE   14 ..............................
........................................................................
   1  -1074.5401152 -0.107454E+04  0.165E-02    0.72       0.0  T
   2  -1074.5401726 -0.573208E-04  0.155E-02    0.72       1.0  T
   3  -1074.5402540 -0.813888E-04  0.710E-03    0.72       1.0  T
   4  -1074.5402102  0.437515E-04  0.560E-03    0.71       1.0  T
   5  -1074.5402559 -0.456921E-04  0.960E-04    0.72       4.1  T
   6  -1074.5402574 -0.145727E-05  0.312E-04    0.72      12.7  T
   7  -1074.5402575 -0.144486E-06  0.155E-04    0.72      25.6  T
   8  -1074.5402576 -0.505424E-07  0.537E-05    0.72      73.8  T
     SCC iter.                  ...        0 min, 44.124 sec
     gradient                   ...        0 min,  3.680 sec
 * total energy  : -1057.2038644 Eh     change       -0.2070406E-01 Eh
   gradient norm :     0.2147436 Eh/a0  converged?    E=F G=F D=F
   step length   :    10.6892714 a0

........................................................................
.............................. CYCLE   15 ..............................
........................................................................
   1  -1074.6107869 -0.107461E+04  0.118E-02    0.72       0.0  T
   2  -1074.6108195 -0.325713E-04  0.990E-03    0.72       1.0  T
   3  -1074.6108552 -0.357830E-04  0.417E-03    0.72       1.0  T
   4  -1074.6108387  0.165198E-04  0.375E-03    0.72       1.1  T
   5  -1074.6108578 -0.190417E-04  0.640E-04    0.72       6.2  T
   6  -1074.6108583 -0.525016E-06  0.217E-04    0.72      18.3  T
   7  -1074.6108583 -0.572034E-07  0.103E-04    0.72      38.6  T
   8  -1074.6108584 -0.171412E-07  0.466E-05    0.72      85.1  T
     SCC iter.                  ...        0 min, 44.319 sec
     gradient                   ...        0 min,  3.745 sec
 * total energy  : -1057.2170932 Eh     change       -0.1322878E-01 Eh
   gradient norm :     0.2262084 Eh/a0  converged?    E=F G=F D=F
   step length   :     4.8649332 a0

........................................................................
.............................. CYCLE   16 ..............................
........................................................................
   1  -1074.6878493 -0.107469E+04  0.953E-03    0.72       0.0  T
   2  -1074.6878660 -0.166681E-04  0.757E-03    0.73       1.0  T
   3  -1074.6878914 -0.253790E-04  0.335E-03    0.73       1.2  T
   4  -1074.6878837  0.767475E-05  0.286E-03    0.73       1.4  T
   5  -1074.6878956 -0.119034E-04  0.473E-04    0.73       8.4  T
   6  -1074.6878959 -0.279910E-06  0.180E-04    0.73      22.0  T
   7  -1074.6878959 -0.393768E-07  0.714E-05    0.73      55.5  T
     SCC iter.                  ...        0 min, 39.224 sec
     gradient                   ...        0 min,  3.721 sec
 * total energy  : -1057.2286004 Eh     change       -0.1150719E-01 Eh
   gradient norm :     0.2321736 Eh/a0  converged?    E=F G=F D=F
   step length   :     5.5305953 a0

........................................................................
.............................. CYCLE   17 ..............................
........................................................................
   1  -1074.7631061 -0.107476E+04  0.768E-03    0.73       0.0  T
   2  -1074.7631188 -0.127032E-04  0.548E-03    0.73       1.0  T
   3  -1074.7631357 -0.168217E-04  0.259E-03    0.73       1.5  T
   4  -1074.7631356  0.662965E-07  0.213E-03    0.73       1.9  T
   5  -1074.7631417 -0.609478E-05  0.465E-04    0.73       8.5  T
   6  -1074.7631419 -0.222391E-06  0.189E-04    0.73      21.0  T
   7  -1074.7631420 -0.550772E-07  0.786E-05    0.73      50.4  T
     SCC iter.                  ...        0 min, 39.227 sec
     gradient                   ...        0 min,  3.735 sec
 * total energy  : -1057.2377744 Eh     change       -0.9173995E-02 Eh
   gradient norm :     0.2353227 Eh/a0  converged?    E=F G=F D=F
   step length   :     5.0861502 a0

........................................................................
.............................. CYCLE   18 ..............................
........................................................................
   1  -1074.8392630 -0.107484E+04  0.793E-03    0.73       0.0  T
   2  -1074.8392824 -0.193935E-04  0.534E-03    0.73       1.0  T
   3  -1074.8392950 -0.126628E-04  0.259E-03    0.73       1.5  T
   4  -1074.8392913  0.371123E-05  0.222E-03    0.73       1.8  T
   5  -1074.8392990 -0.770366E-05  0.684E-04    0.73       5.8  T
   6  -1074.8392997 -0.682458E-06  0.181E-04    0.73      21.9  T
   7  -1074.8392998 -0.471255E-07  0.767E-05    0.73      51.7  T
     SCC iter.                  ...        0 min, 39.165 sec
     gradient                   ...        0 min,  3.659 sec
 * total energy  : -1057.2455487 Eh     change       -0.7774314E-02 Eh
   gradient norm :     0.2352021 Eh/a0  converged?    E=F G=F D=F
   step length   :     3.6669687 a0

........................................................................
.............................. CYCLE   19 ..............................
........................................................................
   1  -1074.9123522 -0.107491E+04  0.757E-03    0.73       0.0  T
   2  -1074.9123674 -0.152221E-04  0.570E-03    0.74       1.0  T
   3  -1074.9123852 -0.177495E-04  0.264E-03    0.73       1.5  T
   4  -1074.9123771  0.812004E-05  0.258E-03    0.74       1.5  T
   5  -1074.9123891 -0.119950E-04  0.639E-04    0.74       6.2  T
   6  -1074.9123895 -0.425856E-06  0.156E-04    0.74      25.3  T
   7  -1074.9123895 -0.306275E-07  0.654E-05    0.74      60.7  T
     SCC iter.                  ...        0 min, 51.484 sec
     gradient                   ...        0 min,  2.317 sec
 * total energy  : -1057.2516451 Eh     change       -0.6096367E-02 Eh
   gradient norm :     0.2334629 Eh/a0  converged?    E=F G=F D=F
   step length   :     3.5987600 a0

........................................................................
.............................. CYCLE   20 ..............................
........................................................................
   1  -1074.9745161 -0.107497E+04  0.633E-03    0.74       0.0  T
   2  -1074.9745254 -0.930537E-05  0.444E-03    0.74       1.0  T
   3  -1074.9745352 -0.981746E-05  0.225E-03    0.74       1.8  T
   4  -1074.9745331  0.212898E-05  0.208E-03    0.74       1.9  T
   5  -1074.9745401 -0.702347E-05  0.472E-04    0.74       8.4  T
   6  -1074.9745404 -0.237243E-06  0.118E-04    0.74      33.6  T
   7  -1074.9745404 -0.184064E-07  0.471E-05    0.74      84.1  T
     SCC iter.                  ...        0 min, 30.300 sec
     gradient                   ...        0 min,  2.345 sec
 * total energy  : -1057.2563595 Eh     change       -0.4714485E-02 Eh
   gradient norm :     0.2314754 Eh/a0  converged?    E=F G=F D=F
   step length   :     2.7853463 a0
 * RMSD in coord.:     0.7026163 a0     energy gain  -0.1294642E+01 Eh
 * calculating model hessian...
Using Lindh-Hessian (1995)
 Shifting diagonal of input Hessian by    1.0001987348241528E-002
 Lowest  eigenvalues of input Hessian
    0.010000    0.010001    0.010001    0.010002    0.010002    0.000000
    0.000000    0.000000    0.000000    0.000000    0.000000    0.010002
    0.010002    0.010002    0.010002    0.010002    0.010003    0.010003
 Highest eigenvalues
    2.925661    2.962175    2.962297    2.967637    2.967644    2.968094


........................................................................
.............................. CYCLE   21 ..............................
........................................................................
   1  -1075.0193049 -0.107502E+04  0.203E-02    0.72       0.0  T
   2  -1075.0195926 -0.287653E-03  0.144E-02    0.72       1.0  T
   3  -1075.0196882 -0.956506E-04  0.570E-03    0.72       1.0  T
   4  -1075.0196727  0.154880E-04  0.461E-03    0.72       1.0  T
   5  -1075.0196888 -0.160732E-04  0.134E-03    0.72       3.0  T
   6  -1075.0196912 -0.243016E-05  0.462E-04    0.72       8.6  T
   7  -1075.0196915 -0.324903E-06  0.138E-04    0.72      28.7  T
   8  -1075.0196916 -0.108328E-07  0.468E-05    0.72      84.8  T
     SCC iter.                  ...        0 min, 31.531 sec
     gradient                   ...        0 min,  2.480 sec
 * total energy  : -1057.2909445 Eh     change       -0.3458500E-01 Eh
   gradient norm :     0.1185318 Eh/a0  converged?    E=F G=F D=F
   step length   :     0.3920811 a0

........................................................................
.............................. CYCLE   22 ..............................
........................................................................
   1  -1074.9930255 -0.107499E+04  0.200E-02    0.68       0.0  T
   2  -1074.9933063 -0.280791E-03  0.143E-02    0.68       1.0  T
   3  -1074.9934346 -0.128324E-03  0.487E-03    0.68       1.0  T
   4  -1074.9934087  0.259005E-04  0.506E-03    0.68       1.0  T
   5  -1074.9934404 -0.316522E-04  0.148E-03    0.68       2.7  T
   6  -1074.9934425 -0.210612E-05  0.498E-04    0.68       8.0  T
   7  -1074.9934428 -0.344286E-06  0.217E-04    0.68      18.3  T
   8  -1074.9934429 -0.508926E-07  0.109E-04    0.68      36.3  T
   9  -1074.9934429 -0.178281E-07  0.306E-05    0.68     129.7  T
     SCC iter.                  ...        0 min, 35.691 sec
     gradient                   ...        0 min,  2.353 sec
 * total energy  : -1057.3102333 Eh     change       -0.1928872E-01 Eh
   gradient norm :     0.0358771 Eh/a0  converged?    E=F G=F D=F
   step length   :     1.2459995 a0

........................................................................
.............................. CYCLE   23 ..............................
........................................................................
   1  -1074.9575447 -0.107496E+04  0.142E-02    0.65       0.0  T
   2  -1074.9576592 -0.114432E-03  0.113E-02    0.65       1.0  T
   3  -1074.9577403 -0.811427E-04  0.361E-03    0.65       1.1  T
   4  -1074.9577243  0.160371E-04  0.377E-03    0.65       1.1  T
   5  -1074.9577428 -0.184852E-04  0.116E-03    0.65       3.4  T
   6  -1074.9577441 -0.131787E-05  0.326E-04    0.65      12.2  T
   7  -1074.9577442 -0.116470E-06  0.158E-04    0.65      25.1  T
   8  -1074.9577442 -0.375992E-07  0.716E-05    0.65      55.4  T
     SCC iter.                  ...        0 min, 32.101 sec
     gradient                   ...        0 min,  2.430 sec
 * total energy  : -1057.3131591 Eh     change       -0.2925820E-02 Eh
   gradient norm :     0.0696125 Eh/a0  converged?    E=F G=F D=F
   step length   :     2.7298264 a0

........................................................................
.............................. CYCLE   24 ..............................
........................................................................
   1  -1074.9302449 -0.107493E+04  0.114E-02    0.65       0.0  T
   2  -1074.9302665 -0.215816E-04  0.109E-02    0.65       1.0  T
   3  -1074.9303286 -0.620971E-04  0.518E-03    0.65       1.0  T
   4  -1074.9302950  0.335837E-04  0.443E-03    0.65       1.0  T
   5  -1074.9303304 -0.353514E-04  0.825E-04    0.65       4.8  T
   6  -1074.9303316 -0.121440E-05  0.299E-04    0.65      13.3  T
   7  -1074.9303317 -0.160491E-06  0.969E-05    0.65      40.9  T
   8  -1074.9303317 -0.188147E-07  0.297E-05    0.65     133.7  T
     SCC iter.                  ...        0 min, 32.397 sec
     gradient                   ...        0 min,  2.530 sec
 * total energy  : -1057.3214230 Eh     change       -0.8263926E-02 Eh
   gradient norm :     0.0596412 Eh/a0  converged?    E=F G=F D=F
   step length   :     1.2063136 a0

........................................................................
.............................. CYCLE   25 ..............................
........................................................................
   1  -1074.9013561 -0.107490E+04  0.736E-03    0.66       0.0  T
   2  -1074.9013762 -0.200318E-04  0.665E-03    0.66       1.0  T
   3  -1074.9013986 -0.224921E-04  0.305E-03    0.66       1.3  T
   4  -1074.9013900  0.862360E-05  0.258E-03    0.66       1.5  T
   5  -1074.9013990 -0.897451E-05  0.713E-04    0.66       5.6  T
   6  -1074.9014000 -0.966726E-06  0.187E-04    0.66      21.2  T
   7  -1074.9014000 -0.577968E-07  0.733E-05    0.66      54.1  T
     SCC iter.                  ...        0 min, 29.109 sec
     gradient                   ...        0 min,  2.438 sec
 * total energy  : -1057.3249781 Eh     change       -0.3555102E-02 Eh
   gradient norm :     0.0459909 Eh/a0  converged?    E=F G=F D=F
   step length   :     1.6440671 a0

........................................................................
.............................. CYCLE   26 ..............................
........................................................................
   1  -1074.8852828 -0.107489E+04  0.833E-03    0.67       0.0  T
   2  -1074.8852993 -0.165892E-04  0.728E-03    0.67       1.0  T
   3  -1074.8853277 -0.283328E-04  0.336E-03    0.67       1.2  T
   4  -1074.8853099  0.177786E-04  0.342E-03    0.67       1.2  T
   5  -1074.8853304 -0.205317E-04  0.798E-04    0.67       5.0  T
   6  -1074.8853313 -0.818115E-06  0.130E-04    0.67      30.5  T
   7  -1074.8853313 -0.157083E-07  0.520E-05    0.67      76.3  T
     SCC iter.                  ...        0 min, 43.610 sec
     gradient                   ...        0 min,  4.066 sec
 * total energy  : -1057.3299831 Eh     change       -0.5005007E-02 Eh
   gradient norm :     0.0429190 Eh/a0  converged?    E=F G=F D=F
   step length   :     2.2357695 a0

........................................................................
.............................. CYCLE   27 ..............................
........................................................................
   1  -1074.9038530 -0.107490E+04  0.572E-03    0.67       0.0  T
   2  -1074.9038568 -0.382714E-05  0.453E-03    0.67       1.0  T
   3  -1074.9038637 -0.686399E-05  0.243E-03    0.67       1.6  T
   4  -1074.9038600  0.366472E-05  0.186E-03    0.67       2.1  T
   5  -1074.9038667 -0.668402E-05  0.395E-04    0.67      10.0  T
   6  -1074.9038670 -0.272571E-06  0.140E-04    0.67      28.4  T
   7  -1074.9038670 -0.331768E-07  0.462E-05    0.67      85.8  T
     SCC iter.                  ...        1 min,  6.641 sec
     gradient                   ...        0 min,  4.082 sec
 * total energy  : -1057.3359421 Eh     change       -0.5958962E-02 Eh
   gradient norm :     0.0354873 Eh/a0  converged?    E=F G=F D=F
   step length   :     1.3481333 a0

........................................................................
.............................. CYCLE   28 ..............................
........................................................................
   1  -1074.9142708 -0.107491E+04  0.571E-03    0.67       0.0  T
   2  -1074.9142735 -0.269904E-05  0.513E-03    0.67       1.0  T
   3  -1074.9142901 -0.166558E-04  0.205E-03    0.67       1.9  T
   4  -1074.9142853  0.485635E-05  0.196E-03    0.67       2.0  T
   5  -1074.9142911 -0.581347E-05  0.359E-04    0.67      11.1  T
   6  -1074.9142913 -0.157175E-06  0.939E-05    0.67      42.2  T
   7  -1074.9142913 -0.941623E-08  0.600E-05    0.67      66.1  T
     SCC iter.                  ...        1 min,  4.317 sec
     gradient                   ...        0 min,  3.938 sec
 * total energy  : -1057.3402374 Eh     change       -0.4295341E-02 Eh
   gradient norm :     0.0279443 Eh/a0  converged?    E=F G=F D=F
   step length   :     2.2985878 a0

........................................................................
.............................. CYCLE   29 ..............................
........................................................................
   1  -1074.9249753 -0.107492E+04  0.415E-03    0.68       0.0  T
   2  -1074.9249778 -0.255581E-05  0.322E-03    0.68       1.2  T
   3  -1074.9249841 -0.629746E-05  0.141E-03    0.68       2.8  T
   4  -1074.9249819  0.218409E-05  0.138E-03    0.68       2.9  T
   5  -1074.9249853 -0.331379E-05  0.307E-04    0.68      12.9  T
   6  -1074.9249854 -0.123459E-06  0.101E-04    0.68      39.3  T
   7  -1074.9249854 -0.143420E-07  0.448E-05    0.68      88.4  T
     SCC iter.                  ...        1 min,  2.841 sec
     gradient                   ...        0 min,  3.777 sec
 * total energy  : -1057.3443694 Eh     change       -0.4131947E-02 Eh
   gradient norm :     0.0202013 Eh/a0  converged?    E=F G=F D=F
   step length   :     2.6950547 a0

........................................................................
.............................. CYCLE   30 ..............................
........................................................................
   1  -1074.9364473 -0.107494E+04  0.310E-03    0.68       0.0  T
   2  -1074.9364499 -0.256362E-05  0.230E-03    0.68       1.7  T
   3  -1074.9364530 -0.316614E-05  0.104E-03    0.68       3.8  T
   4  -1074.9364521  0.955056E-06  0.988E-04    0.68       4.0  T
   5  -1074.9364537 -0.161274E-05  0.238E-04    0.68      16.6  T
   6  -1074.9364538 -0.832370E-07  0.840E-05    0.68      47.2  T
   7  -1074.9364538 -0.874434E-08  0.351E-05    0.68     112.9  T
     SCC iter.                  ...        1 min,  5.173 sec
     gradient                   ...        0 min,  3.829 sec
 * total energy  : -1057.3476669 Eh     change       -0.3297572E-02 Eh
   gradient norm :     0.0198053 Eh/a0  converged?    E=F G=F D=F
   step length   :     3.7437382 a0

........................................................................
.............................. CYCLE   31 ..............................
........................................................................
   1  -1074.9484257 -0.107495E+04  0.264E-03    0.68       0.0  T
   2  -1074.9484289 -0.312470E-05  0.178E-03    0.68       2.2  T
   3  -1074.9484309 -0.200168E-05  0.807E-04    0.68       4.9  T
   4  -1074.9484305  0.398099E-06  0.715E-04    0.68       5.5  T
   5  -1074.9484312 -0.770389E-06  0.201E-04    0.68      19.8  T
   6  -1074.9484313 -0.548621E-07  0.847E-05    0.68      46.8  T
   7  -1074.9484313 -0.918544E-08  0.331E-05    0.68     119.8  T
     SCC iter.                  ...        1 min,  3.980 sec
     gradient                   ...        0 min,  3.829 sec
 * total energy  : -1057.3507707 Eh     change       -0.3103754E-02 Eh
   gradient norm :     0.0190659 Eh/a0  converged?    E=F G=F D=F
   step length   :     6.7487893 a0

........................................................................
.............................. CYCLE   32 ..............................
........................................................................
   1  -1074.9632982 -0.107496E+04  0.241E-03    0.68       0.0  T
   2  -1074.9633008 -0.261816E-05  0.147E-03    0.68       2.7  T
   3  -1074.9633019 -0.112343E-05  0.724E-04    0.68       5.5  T
   4  -1074.9633017  0.203197E-06  0.568E-04    0.68       7.0  T
   5  -1074.9633021 -0.428814E-06  0.199E-04    0.68      19.9  T
   6  -1074.9633022 -0.652519E-07  0.765E-05    0.68      51.8  T
     SCC iter.                  ...        0 min, 55.488 sec
     gradient                   ...        0 min,  4.108 sec
 * total energy  : -1057.3537922 Eh     change       -0.3021475E-02 Eh
   gradient norm :     0.0194546 Eh/a0  converged?    E=F G=F D=F
   step length   :     6.8511137 a0

........................................................................
.............................. CYCLE   33 ..............................
........................................................................
   1  -1074.9777911 -0.107498E+04  0.227E-03    0.69       0.0  T
   2  -1074.9777934 -0.222680E-05  0.133E-03    0.69       3.0  T
   3  -1074.9777942 -0.855116E-06  0.680E-04    0.69       5.8  T
   4  -1074.9777941  0.146843E-06  0.510E-04    0.69       7.8  T
   5  -1074.9777944 -0.324044E-06  0.205E-04    0.69      19.4  T
   6  -1074.9777945 -0.758553E-07  0.693E-05    0.69      57.2  T
   7  -1074.9777945 -0.567957E-08  0.248E-05    0.69     159.6  T
     SCC iter.                  ...        1 min,  4.123 sec
     gradient                   ...        0 min,  3.812 sec
 * total energy  : -1057.3566893 Eh     change       -0.2897084E-02 Eh
   gradient norm :     0.0193696 Eh/a0  converged?    E=F G=F D=F
   step length   :     9.4904376 a0

........................................................................
.............................. CYCLE   34 ..............................
........................................................................
   1  -1074.9911176 -0.107499E+04  0.218E-03    0.69       0.0  T
   2  -1074.9911195 -0.196539E-05  0.125E-03    0.69       3.2  T
   3  -1074.9911203 -0.797097E-06  0.642E-04    0.69       6.2  T
   4  -1074.9911203  0.556358E-07  0.453E-04    0.69       8.8  T
   5  -1074.9911205 -0.212852E-06  0.197E-04    0.69      20.2  T
   6  -1074.9911206 -0.739481E-07  0.669E-05    0.69      59.3  T
     SCC iter.                  ...        0 min, 54.515 sec
     gradient                   ...        0 min,  3.847 sec
 * total energy  : -1057.3594292 Eh     change       -0.2739963E-02 Eh
   gradient norm :     0.0190500 Eh/a0  converged?    E=F G=F D=F
   step length   :     9.3696467 a0

........................................................................
.............................. CYCLE   35 ..............................
........................................................................
   1  -1075.0034748 -0.107500E+04  0.211E-03    0.69       0.0  T
   2  -1075.0034765 -0.177613E-05  0.117E-03    0.69       3.4  T
   3  -1075.0034772 -0.712784E-06  0.618E-04    0.69       6.4  T
   4  -1075.0034772  0.232883E-07  0.431E-04    0.69       9.2  T
   5  -1075.0034774 -0.187634E-06  0.191E-04    0.69      20.8  T
   6  -1075.0034775 -0.713301E-07  0.598E-05    0.69      66.3  T
     SCC iter.                  ...        0 min, 55.116 sec
     gradient                   ...        0 min,  3.904 sec
 * total energy  : -1057.3619661 Eh     change       -0.2536920E-02 Eh
   gradient norm :     0.0187123 Eh/a0  converged?    E=F G=F D=F
   step length   :     8.6421339 a0

........................................................................
.............................. CYCLE   36 ..............................
........................................................................
   1  -1075.0153241 -0.107502E+04  0.204E-03    0.68       0.0  T
   2  -1075.0153258 -0.167071E-05  0.112E-03    0.68       3.5  T
   3  -1075.0153265 -0.679399E-06  0.594E-04    0.68       6.7  T
   4  -1075.0153265  0.640489E-08  0.403E-04    0.68       9.8  T
   5  -1075.0153266 -0.143430E-06  0.190E-04    0.68      20.8  T
   6  -1075.0153267 -0.776261E-07  0.566E-05    0.68      70.0  T
     SCC iter.                  ...        0 min, 54.411 sec
     gradient                   ...        0 min,  3.805 sec
 * total energy  : -1057.3643515 Eh     change       -0.2385318E-02 Eh
   gradient norm :     0.0177549 Eh/a0  converged?    E=F G=F D=F
   step length   :     8.2485142 a0

........................................................................
.............................. CYCLE   37 ..............................
........................................................................
   1  -1075.0262442 -0.107503E+04  0.202E-03    0.68       0.0  T
   2  -1075.0262458 -0.162437E-05  0.111E-03    0.68       3.6  T
   3  -1075.0262465 -0.710519E-06  0.577E-04    0.68       6.9  T
   4  -1075.0262465  0.224941E-08  0.387E-04    0.68      10.3  T
   5  -1075.0262466 -0.121355E-06  0.187E-04    0.68      21.2  T
   6  -1075.0262467 -0.756836E-07  0.527E-05    0.68      75.2  T
     SCC iter.                  ...        0 min, 50.905 sec
     gradient                   ...        0 min,  2.284 sec
 * total energy  : -1057.3665329 Eh     change       -0.2181476E-02 Eh
   gradient norm :     0.0168755 Eh/a0  converged?    E=F G=F D=F
   step length   :     8.9473911 a0

........................................................................
.............................. CYCLE   38 ..............................
........................................................................
   1  -1075.0359792 -0.107504E+04  0.200E-03    0.68       0.0  T
   2  -1075.0359808 -0.160431E-05  0.109E-03    0.68       3.6  T
   3  -1075.0359816 -0.712978E-06  0.567E-04    0.68       7.0  T
   4  -1075.0359816 -0.312230E-08  0.380E-04    0.68      10.4  T
   5  -1075.0359817 -0.110292E-06  0.184E-04    0.68      21.5  T
   6  -1075.0359818 -0.752214E-07  0.503E-05    0.68      78.8  T
     SCC iter.                  ...        0 min, 45.798 sec
     gradient                   ...        0 min,  2.350 sec
 * total energy  : -1057.3685500 Eh     change       -0.2017066E-02 Eh
   gradient norm :     0.0159020 Eh/a0  converged?    E=F G=F D=F
   step length   :     9.7690473 a0

........................................................................
.............................. CYCLE   39 ..............................
........................................................................
   1  -1075.0449445 -0.107504E+04  0.196E-03    0.68       0.0  T
   2  -1075.0449461 -0.161968E-05  0.108E-03    0.68       3.7  T
   3  -1075.0449468 -0.746787E-06  0.546E-04    0.68       7.3  T
   4  -1075.0449469 -0.394471E-08  0.360E-04    0.68      11.0  T
   5  -1075.0449469 -0.795881E-07  0.185E-04    0.68      21.4  T
   6  -1075.0449470 -0.796299E-07  0.480E-05    0.68      82.6  T
     SCC iter.                  ...        0 min, 45.672 sec
     gradient                   ...        0 min,  2.332 sec
 * total energy  : -1057.3703927 Eh     change       -0.1842729E-02 Eh
   gradient norm :     0.0146290 Eh/a0  converged?    E=F G=F D=F
   step length   :     7.6446504 a0

........................................................................
.............................. CYCLE   40 ..............................
........................................................................
   1  -1075.0541899 -0.107505E+04  0.193E-03    0.68       0.0  T
   2  -1075.0541915 -0.159830E-05  0.107E-03    0.68       3.7  T
   3  -1075.0541922 -0.741566E-06  0.535E-04    0.68       7.4  T
   4  -1075.0541922  0.343493E-08  0.358E-04    0.68      11.1  T
   5  -1075.0541923 -0.840271E-07  0.181E-04    0.68      21.9  T
   6  -1075.0541924 -0.753937E-07  0.460E-05    0.68      86.3  T
     SCC iter.                  ...        0 min, 45.483 sec
     gradient                   ...        0 min,  2.336 sec
 * total energy  : -1057.3720842 Eh     change       -0.1691437E-02 Eh
   gradient norm :     0.0135799 Eh/a0  converged?    E=F G=F D=F
   step length   :     7.0046192 a0

........................................................................
.............................. CYCLE   41 ..............................
........................................................................
   1  -1075.0622071 -0.107506E+04  0.191E-03    0.68       0.0  T
   2  -1075.0622087 -0.161898E-05  0.107E-03    0.68       3.7  T
   3  -1075.0622095 -0.788197E-06  0.517E-04    0.68       7.7  T
   4  -1075.0622095 -0.497494E-09  0.341E-04    0.68      11.6  T
   5  -1075.0622096 -0.568418E-07  0.182E-04    0.68      21.8  T
   6  -1075.0622097 -0.769294E-07  0.449E-05    0.68      88.4  T
     SCC iter.                  ...        0 min, 45.881 sec
     gradient                   ...        0 min,  2.354 sec
 * total energy  : -1057.3736307 Eh     change       -0.1546515E-02 Eh
   gradient norm :     0.0124875 Eh/a0  converged?    E=F G=F D=F
   step length   :     6.6929736 a0

........................................................................
.............................. CYCLE   42 ..............................
........................................................................
   1  -1075.0898112 -0.107509E+04  0.346E-03    0.67       0.0  T
   2  -1075.0898153 -0.417632E-05  0.204E-03    0.67       1.9  T
   3  -1075.0898176 -0.231090E-05  0.110E-03    0.67       3.6  T
   4  -1075.0898175  0.104919E-06  0.813E-04    0.67       4.9  T
   5  -1075.0898184 -0.873869E-06  0.287E-04    0.67      13.8  T
   6  -1075.0898186 -0.169944E-06  0.803E-05    0.67      49.4  T
   7  -1075.0898186 -0.875866E-08  0.329E-05    0.67     120.6  T
     SCC iter.                  ...        0 min, 53.983 sec
     gradient                   ...        0 min,  2.253 sec
 * total energy  : -1057.3759039 Eh     change       -0.2273238E-02 Eh
   gradient norm :     0.0098310 Eh/a0  converged?    E=F G=F D=F
   step length   :     4.9722368 a0
 * RMSD in coord.:     0.7476683 a0     energy gain  -0.1195444E+00 Eh
 * calculating model hessian...
Using Lindh-Hessian (1995)
 Shifting diagonal of input Hessian by    1.0000747320314076E-002
 Lowest  eigenvalues of input Hessian
    0.010000    0.010000    0.010000    0.010000    0.010000    0.010001
    0.010001    0.010001    0.000000    0.000000    0.000000    0.000000
    0.000000    0.000000    0.010001    0.010001    0.010001    0.010002
 Highest eigenvalues
    2.927369    2.932527    2.934948    2.934975    2.963266    2.965002


........................................................................
.............................. CYCLE   43 ..............................
........................................................................
   1  -1075.0848978 -0.107508E+04  0.116E-03    0.67       0.0  T
   2  -1075.0848980 -0.225152E-06  0.706E-04    0.67       5.6  T
   3  -1075.0848980 -0.192874E-07  0.483E-04    0.67       8.2  T
   4  -1075.0848982 -0.128350E-06  0.279E-04    0.67      14.2  T
   5  -1075.0848983 -0.109457E-06  0.883E-05    0.67      44.9  T
   6  -1075.0848983 -0.151131E-07  0.287E-05    0.67     138.0  T
     SCC iter.                  ...        0 min, 46.022 sec
     gradient                   ...        0 min,  2.358 sec
 * total energy  : -1057.3765012 Eh     change       -0.5973135E-03 Eh
   gradient norm :     0.0073537 Eh/a0  converged?    E=F G=F D=F
   step length   :     0.2298972 a0

........................................................................
.............................. CYCLE   44 ..............................
........................................................................
   1  -1075.0632644 -0.107506E+04  0.436E-03    0.67       0.0  T
   2  -1075.0632681 -0.365488E-05  0.269E-03    0.67       1.5  T
   3  -1075.0632699 -0.187107E-05  0.175E-03    0.67       2.3  T
   4  -1075.0632710 -0.104898E-05  0.109E-03    0.67       3.6  T
   5  -1075.0632727 -0.168972E-05  0.359E-04    0.67      11.1  T
   6  -1075.0632729 -0.231903E-06  0.115E-04    0.67      34.6  T
   7  -1075.0632729 -0.251257E-07  0.357E-05    0.67     111.2  T
     SCC iter.                  ...        0 min, 52.783 sec
     gradient                   ...        0 min,  2.351 sec
 * total energy  : -1057.3780029 Eh     change       -0.1501685E-02 Eh
   gradient norm :     0.0201997 Eh/a0  converged?    E=F G=F D=F
   step length   :     1.3083052 a0

........................................................................
.............................. CYCLE   45 ..............................
........................................................................
   1  -1075.0475665 -0.107505E+04  0.338E-03    0.67       0.0  T
   2  -1075.0475689 -0.242164E-05  0.215E-03    0.67       1.8  T
   3  -1075.0475715 -0.256899E-05  0.129E-03    0.67       3.1  T
   4  -1075.0475722 -0.717520E-06  0.878E-04    0.67       4.5  T
   5  -1075.0475732 -0.921328E-06  0.282E-04    0.67      14.1  T
   6  -1075.0475733 -0.142318E-06  0.100E-04    0.67      39.5  T
   7  -1075.0475733 -0.190803E-07  0.305E-05    0.67     129.9  T
     SCC iter.                  ...        0 min, 53.002 sec
     gradient                   ...        0 min,  2.343 sec
 * total energy  : -1057.3796957 Eh     change       -0.1692771E-02 Eh
   gradient norm :     0.0277456 Eh/a0  converged?    E=F G=F D=F
   step length   :     2.2462088 a0

........................................................................
.............................. CYCLE   46 ..............................
........................................................................
   1  -1075.0428204 -0.107504E+04  0.276E-03    0.67       0.0  T
   2  -1075.0428227 -0.231031E-05  0.164E-03    0.67       2.4  T
   3  -1075.0428250 -0.236584E-05  0.838E-04    0.67       4.7  T
   4  -1075.0428256 -0.525010E-06  0.552E-04    0.67       7.2  T
   5  -1075.0428259 -0.297824E-06  0.226E-04    0.67      17.6  T
   6  -1075.0428259 -0.735397E-07  0.819E-05    0.67      48.4  T
   7  -1075.0428259 -0.992964E-08  0.278E-05    0.67     142.5  T
     SCC iter.                  ...        0 min, 53.248 sec
     gradient                   ...        0 min,  2.438 sec
 * total energy  : -1057.3810564 Eh     change       -0.1360761E-02 Eh
   gradient norm :     0.0245464 Eh/a0  converged?    E=F G=F D=F
   step length   :     1.8621904 a0

........................................................................
.............................. CYCLE   47 ..............................
........................................................................
   1  -1075.0478806 -0.107505E+04  0.331E-03    0.67       0.0  T
   2  -1075.0478835 -0.286287E-05  0.185E-03    0.67       2.1  T
   3  -1075.0478854 -0.190999E-05  0.109E-03    0.67       3.6  T
   4  -1075.0478858 -0.461725E-06  0.724E-04    0.67       5.5  T
   5  -1075.0478865 -0.699541E-06  0.253E-04    0.67      15.7  T
   6  -1075.0478866 -0.103476E-06  0.831E-05    0.67      47.7  T
   7  -1075.0478866 -0.975365E-08  0.289E-05    0.67     137.1  T
     SCC iter.                  ...        0 min, 50.959 sec
     gradient                   ...        0 min,  2.347 sec
 * total energy  : -1057.3824704 Eh     change       -0.1413924E-02 Eh
   gradient norm :     0.0185467 Eh/a0  converged?    E=F G=F D=F
   step length   :     2.7530410 a0

........................................................................
.............................. CYCLE   48 ..............................
........................................................................
   1  -1075.0674696 -0.107507E+04  0.363E-03    0.67       0.0  T
   2  -1075.0674728 -0.315622E-05  0.203E-03    0.67       2.0  T
   3  -1075.0674740 -0.124623E-05  0.127E-03    0.67       3.1  T
   4  -1075.0674741 -0.586920E-07  0.789E-04    0.67       5.0  T
   5  -1075.0674750 -0.935374E-06  0.286E-04    0.67      13.9  T
   6  -1075.0674752 -0.161323E-06  0.803E-05    0.67      49.4  T
   7  -1075.0674752 -0.829777E-08  0.283E-05    0.67     140.0  T
     SCC iter.                  ...        0 min, 52.229 sec
     gradient                   ...        0 min,  2.332 sec
 * total energy  : -1057.3836978 Eh     change       -0.1227431E-02 Eh
   gradient norm :     0.0133369 Eh/a0  converged?    E=F G=F D=F
   step length   :     1.7734135 a0

........................................................................
.............................. CYCLE   49 ..............................
........................................................................
   1  -1075.0890566 -0.107509E+04  0.341E-03    0.67       0.0  T
   2  -1075.0890597 -0.309279E-05  0.187E-03    0.67       2.1  T
   3  -1075.0890608 -0.110083E-05  0.117E-03    0.67       3.4  T
   4  -1075.0890610 -0.176046E-06  0.705E-04    0.67       5.6  T
   5  -1075.0890616 -0.632652E-06  0.282E-04    0.67      14.1  T
   6  -1075.0890618 -0.156501E-06  0.766E-05    0.67      51.8  T
   7  -1075.0890618 -0.793989E-08  0.253E-05    0.67     156.6  T
     SCC iter.                  ...        0 min, 51.858 sec
     gradient                   ...        0 min,  2.329 sec
 * total energy  : -1057.3846121 Eh     change       -0.9143118E-03 Eh
   gradient norm :     0.0142596 Eh/a0  converged?    E=F G=F D=F
   step length   :     2.2840252 a0

........................................................................
.............................. CYCLE   50 ..............................
........................................................................
   1  -1075.1069827 -0.107511E+04  0.259E-03    0.67       0.0  T
   2  -1075.1069850 -0.234211E-05  0.140E-03    0.67       2.8  T
   3  -1075.1069860 -0.966780E-06  0.831E-04    0.67       4.8  T
   4  -1075.1069862 -0.208030E-06  0.511E-04    0.67       7.8  T
   5  -1075.1069864 -0.226673E-06  0.236E-04    0.67      16.8  T
   6  -1075.1069865 -0.101504E-06  0.650E-05    0.67      61.0  T
   7  -1075.1069865 -0.622413E-08  0.207E-05    0.67     191.8  T
     SCC iter.                  ...        0 min, 52.003 sec
     gradient                   ...        0 min,  2.321 sec
 * total energy  : -1057.3855557 Eh     change       -0.9436075E-03 Eh
   gradient norm :     0.0166168 Eh/a0  converged?    E=F G=F D=F
   step length   :     1.6243559 a0

........................................................................
.............................. CYCLE   51 ..............................
........................................................................
   1  -1075.1195146 -0.107512E+04  0.219E-03    0.67       0.0  T
   2  -1075.1195166 -0.196077E-05  0.118E-03    0.67       3.4  T
   3  -1075.1195174 -0.848984E-06  0.646E-04    0.67       6.1  T
   4  -1075.1195176 -0.156123E-06  0.412E-04    0.67       9.6  T
   5  -1075.1195177 -0.120081E-06  0.206E-04    0.67      19.3  T
   6  -1075.1195178 -0.749744E-07  0.568E-05    0.67      69.8  T
   7  -1075.1195178 -0.470231E-08  0.183E-05    0.67     216.4  T
     SCC iter.                  ...        0 min, 51.452 sec
[...]
   361   6 C      392   1 H                                       1.0781673
   362   6 C      393   1 H                                       1.0783500
   367   6 C      394   1 H                                       1.0780771
   368   6 C      395   1 H                                       1.0777441
   370   7 N      396   1 H                                       1.0145434
   373   6 C      397   1 H                                       1.0838382
   374   6 C      398   1 H                                       1.1063100
   374   6 C      399   1 H                                       1.0984752
   375   7 N      400   1 H                                       1.0097634
   376   6 C      401   1 H                                       1.0853180
   377   6 C      402   1 H                                       1.0806439
   379   6 C      403   1 H                                       1.0781651
   380   6 C      404   1 H                                       1.0783501
   405   6 C      406   6 C                                       1.4091709
   406   6 C      407   6 C                                       1.4184394
   407   6 C      408   6 C                                       1.3685057
   408   6 C      409   6 C                                       1.4211912
   406   6 C      410   7 N                                       1.3627023
   409   6 C      410   7 N                                       1.3699199
   409   6 C      411   6 C                                       1.3998109
   412   6 C      413   6 C                                       1.3413980
   414   6 C      415   7 N                                       1.4651802
   415   7 N      416   6 C                                       1.3704146
   416   6 C      417   6 C                                       1.3448134
   411   6 C      418   6 C                                       1.3953813
   418   6 C      419   6 C                                       1.4517456
   419   6 C      420   6 C                                       1.3493173
   418   6 C      421   7 N                                       1.3620484
   420   6 C      422   6 C                                       1.4493466
   421   7 N      422   6 C                                       1.3481326
   422   6 C      423   6 C                                       1.4101226
   423   6 C      424   6 C                                       1.4091253
   424   6 C      425   6 C                                       1.4184219
   425   6 C      426   6 C                                       1.3684981
   426   6 C      427   6 C                                       1.4211981
   424   6 C      428   7 N                                       1.3626825
   427   6 C      428   7 N                                       1.3698934
   427   6 C      429   6 C                                       1.3998219
   430   6 C      431   6 C                                       1.3414119
   432   6 C      433   7 N                                       1.4651663
   433   7 N      434   6 C                                       1.3704397
   434   6 C      435   6 C                                       1.3448118
   429   6 C      436   6 C                                       1.3953735
   436   6 C      437   6 C                                       1.4517349
   437   6 C      438   6 C                                       1.3493216
   405   6 C      439   6 C                                       1.4101562
   438   6 C      439   6 C                                       1.4493535
   436   6 C      440   7 N                                       1.3620737
   439   6 C      440   7 N                                       1.3481387
   407   6 C      441   1 H                                       1.0780761
   408   6 C      442   1 H                                       1.0777444
   410   7 N      443   1 H                                       1.0145432
   413   6 C      444   1 H                                       1.0838376
   414   6 C      445   1 H                                       1.1063121
   414   6 C      446   1 H                                       1.0984716
   415   7 N      447   1 H                                       1.0097644
   416   6 C      448   1 H                                       1.0853178
   417   6 C      449   1 H                                       1.0806440
   419   6 C      450   1 H                                       1.0781656
   420   6 C      451   1 H                                       1.0783513
   425   6 C      452   1 H                                       1.0780785
   426   6 C      453   1 H                                       1.0777410
   428   7 N      454   1 H                                       1.0145416
   431   6 C      455   1 H                                       1.0838363
   432   6 C      456   1 H                                       1.1063166
   432   6 C      457   1 H                                       1.0984592
   433   7 N      458   1 H                                       1.0097662
   434   6 C      459   1 H                                       1.0853159
   435   6 C      460   1 H                                       1.0806436
   437   6 C      461   1 H                                       1.0781670
   438   6 C      462   1 H                                       1.0783513
   463   6 C      464   6 C                                       1.4091593
   464   6 C      465   6 C                                       1.4184717
   465   6 C      466   6 C                                       1.3685015
   466   6 C      467   6 C                                       1.4211598
   464   6 C      468   7 N                                       1.3626655
   467   6 C      468   7 N                                       1.3699407
   467   6 C      469   6 C                                       1.3997721
   470   6 C      471   6 C                                       1.3413993
   472   6 C      473   7 N                                       1.4651921
   473   7 N      474   6 C                                       1.3703881
   474   6 C      475   6 C                                       1.3448127
   469   6 C      476   6 C                                       1.3953679
   476   6 C      477   6 C                                       1.4517175
   477   6 C      478   6 C                                       1.3493099
   476   6 C      479   7 N                                       1.3620365
   478   6 C      480   6 C                                       1.4493566
   479   7 N      480   6 C                                       1.3480903
   480   6 C      481   6 C                                       1.4100589
   481   6 C      482   6 C                                       1.4091019
   482   6 C      483   6 C                                       1.4184351
   483   6 C      484   6 C                                       1.3684996
   484   6 C      485   6 C                                       1.4211726
   482   6 C      486   7 N                                       1.3626466
   485   6 C      486   7 N                                       1.3698765
   485   6 C      487   6 C                                       1.3998261
   488   6 C      489   6 C                                       1.3414274
   490   6 C      491   7 N                                       1.4651574
   491   7 N      492   6 C                                       1.3704541
   492   6 C      493   6 C                                       1.3448114
   487   6 C      494   6 C                                       1.3953489
   494   6 C      495   6 C                                       1.4517012
   495   6 C      496   6 C                                       1.3493240
   463   6 C      497   6 C                                       1.4101678
   496   6 C      497   6 C                                       1.4493889
   494   6 C      498   7 N                                       1.3621063
   497   6 C      498   7 N                                       1.3480953
   465   6 C      499   1 H                                       1.0780763
   466   6 C      500   1 H                                       1.0777473
   468   7 N      501   1 H                                       1.0145455
   471   6 C      502   1 H                                       1.0838399
   472   6 C      503   1 H                                       1.1063059
   472   6 C      504   1 H                                       1.0984872
   473   7 N      505   1 H                                       1.0097614
   474   6 C      506   1 H                                       1.0853195
   475   6 C      507   1 H                                       1.0806447
   477   6 C      508   1 H                                       1.0781628
   478   6 C      509   1 H                                       1.0783500
   483   6 C      510   1 H                                       1.0780759
   484   6 C      511   1 H                                       1.0777395
   486   7 N      512   1 H                                       1.0145415
   489   6 C      513   1 H                                       1.0838356
   490   6 C      514   1 H                                       1.1063198
   490   6 C      515   1 H                                       1.0984535
   491   7 N      516   1 H                                       1.0097673
   492   6 C      517   1 H                                       1.0853155
   493   6 C      518   1 H                                       1.0806430
   495   6 C      519   1 H                                       1.0781690
   496   6 C      520   1 H                                       1.0783496
   521   6 C      522   6 C                                       1.4091450
   522   6 C      523   6 C                                       1.4185174
   523   6 C      524   6 C                                       1.3684921
   524   6 C      525   6 C                                       1.4211423
   522   6 C      526   7 N                                       1.3626190
   525   6 C      526   7 N                                       1.3699527
   525   6 C      527   6 C                                       1.3997230
   528   6 C      529   6 C                                       1.3414156
   530   6 C      531   7 N                                       1.4651903
   531   7 N      532   6 C                                       1.3704001
   532   6 C      533   6 C                                       1.3448091
   527   6 C      534   6 C                                       1.3953993
   534   6 C      535   6 C                                       1.4516791
   535   6 C      536   6 C                                       1.3493142
   534   6 C      537   7 N                                       1.3619984
   536   6 C      538   6 C                                       1.4493884
   537   7 N      538   6 C                                       1.3480884
   538   6 C      539   6 C                                       1.4099768
   539   6 C      540   6 C                                       1.4090230
   540   6 C      541   6 C                                       1.4184706
   541   6 C      542   6 C                                       1.3684846
   542   6 C      543   6 C                                       1.4211323
   540   6 C      544   7 N                                       1.3626032
   543   6 C      544   7 N                                       1.3698529
   543   6 C      545   6 C                                       1.3997958
   546   6 C      547   6 C                                       1.3414416
   548   6 C      549   7 N                                       1.4651574
   549   7 N      550   6 C                                       1.3704554
   550   6 C      551   6 C                                       1.3448103
   545   6 C      552   6 C                                       1.3952913
   552   6 C      553   6 C                                       1.4516597
   553   6 C      554   6 C                                       1.3493115
   521   6 C      555   6 C                                       1.4101149
   554   6 C      555   6 C                                       1.4494369
   552   6 C      556   7 N                                       1.3621433
   555   6 C      556   7 N                                       1.3480079
   523   6 C      557   1 H                                       1.0780706
   524   6 C      558   1 H                                       1.0777452
   526   7 N      559   1 H                                       1.0145484
   529   6 C      560   1 H                                       1.0838408
   530   6 C      561   1 H                                       1.1063075
   530   6 C      562   1 H                                       1.0984874
   531   7 N      563   1 H                                       1.0097633
   532   6 C      564   1 H                                       1.0853204
   533   6 C      565   1 H                                       1.0806453
   535   6 C      566   1 H                                       1.0781636
   536   6 C      567   1 H                                       1.0783482
   541   6 C      568   1 H                                       1.0780752
   542   6 C      569   1 H                                       1.0777396
   544   7 N      570   1 H                                       1.0145423
   547   6 C      571   1 H                                       1.0838369
   548   6 C      572   1 H                                       1.1063202
   548   6 C      573   1 H                                       1.0984588
   549   7 N      574   1 H                                       1.0097665
   550   6 C      575   1 H                                       1.0853167
   551   6 C      576   1 H                                       1.0806438
   553   6 C      577   1 H                                       1.0781742
   554   6 C      578   1 H                                       1.0783528
   579   6 C      580   6 C                                       1.4088399
   580   6 C      581   6 C                                       1.4187363
   581   6 C      582   6 C                                       1.3682888
   582   6 C      583   6 C                                       1.4213707
   580   6 C      584   7 N                                       1.3625726
   583   6 C      584   7 N                                       1.3699961
   583   6 C      585   6 C                                       1.3993137
   586   6 C      587   6 C                                       1.3414478
   588   6 C      589   7 N                                       1.4651908
   589   7 N      590   6 C                                       1.3704114
   590   6 C      591   6 C                                       1.3448135
   585   6 C      592   6 C                                       1.3958802
   592   6 C      593   6 C                                       1.4519354
   593   6 C      594   6 C                                       1.3491302
   592   6 C      595   7 N                                       1.3610647
   594   6 C      596   6 C                                       1.4496244
   595   7 N      596   6 C                                       1.3490176
   596   6 C      597   6 C                                       1.4085522
   597   6 C      598   6 C                                       1.4078111
   598   6 C      599   6 C                                       1.4189717
   599   6 C      600   6 C                                       1.3681497
   600   6 C      601   6 C                                       1.4214560
   598   6 C      602   7 N                                       1.3629886
   601   6 C      602   7 N                                       1.3696127
   601   6 C      603   6 C                                       1.3996023
   604   6 C      605   6 C                                       1.3414350
   606   6 C      607   7 N                                       1.4651577
   607   7 N      608   6 C                                       1.3704099
   608   6 C      609   6 C                                       1.3448197
   603   6 C      610   6 C                                       1.3953842
   610   6 C      611   6 C                                       1.4517078
   611   6 C      612   6 C                                       1.3492745
   579   6 C      613   6 C                                       1.4100145
   612   6 C      613   6 C                                       1.4495551
   610   6 C      614   7 N                                       1.3619847
   613   6 C      614   7 N                                       1.3479934
   581   6 C      615   1 H                                       1.0780827
   582   6 C      616   1 H                                       1.0777535
   584   7 N      617   1 H                                       1.0145420
   587   6 C      618   1 H                                       1.0838435
   588   6 C      619   1 H                                       1.1063024
   588   6 C      620   1 H                                       1.0984865
   589   7 N      621   1 H                                       1.0097714
   590   6 C      622   1 H                                       1.0853218
   591   6 C      623   1 H                                       1.0806502
   593   6 C      624   1 H                                       1.0781620
   594   6 C      625   1 H                                       1.0783349
   599   6 C      626   1 H                                       1.0780837
   600   6 C      627   1 H                                       1.0777494
   602   7 N      628   1 H                                       1.0145341
   605   6 C      629   1 H                                       1.0838458
   606   6 C      630   1 H                                       1.1063240
   606   6 C      631   1 H                                       1.0984737
   607   7 N      632   1 H                                       1.0097575
   608   6 C      633   1 H                                       1.0853207
   609   6 C      634   1 H                                       1.0806461
   611   6 C      635   1 H                                       1.0781709
   612   6 C      636   1 H                                       1.0783483

 * 4 distinct bonds (by element types)

   Z      Z             #   av. dist./Å        max./Å        min./Å
   1 H    6 C         182     1.0852289     1.1063240     1.0777395
   6 C    6 C         265     1.3785590     1.4519882     1.2234477
   1 H    7 N          40     1.0121576     1.0147132     1.0096447
   6 C    7 N         120     1.3797388     1.4654720     1.3479934


optimized geometry written to: xtbopt.xyz


           -------------------------------------------------
          | TOTAL ENERGY            -1057.419815280887 Eh   |
          | GRADIENT NORM               0.000960912455 Eh/α |
          | HOMO-LUMO GAP               0.645833631685 eV   |
           -------------------------------------------------

------------------------------------------------------------------------
 * finished run on 2022/07/28 at 08:43:32.092     
------------------------------------------------------------------------
 total:
 * wall-time:     0 d,  2 h, 31 min,  6.957 sec
 *  cpu-time:     0 d,  2 h, 30 min,  9.249 sec
 * ratio c/w:     0.994 speedup
 SCF:
 * wall-time:     0 d,  0 h, 14 min,  8.559 sec
 *  cpu-time:     0 d,  0 h, 14 min,  2.705 sec
 * ratio c/w:     0.993 speedup
 ANC optimizer:
 * wall-time:     0 d,  2 h, 16 min, 57.309 sec
 *  cpu-time:     0 d,  2 h, 16 min,  5.544 sec
 * ratio c/w:     0.994 speedup

