126
 energy: -232.575234788689 gnorm: 1.718321676049 xtb: 6.5.1 (b24c23e)
Zn          19.33485200000000        0.00444600000000        0.01621000000000
C           15.91682700000000       -0.10256900000000        0.10543000000000
C           16.58211900000000       -0.20416300000000        1.25956300000000
C           15.93425700000000       -0.34669200000000        2.55814700000000
C           16.87638200000000       -0.36770700000000        3.48259100000000
C           18.17942100000000       -0.23745700000000        2.81676800000000
N           17.99994200000000       -0.13879400000000        1.40370100000000
C           19.36857700000000       -0.16652700000000        3.44789400000000
C           20.66006200000000       -0.00685600000000        2.73031100000000
C           21.94678800000000        0.20996600000000        3.40281700000000
C           22.88127400000000        0.26757900000000        2.47604300000000
N           20.80259900000000       -0.08538400000000        1.44251300000000
C           22.19972200000000        0.08047000000000        1.20091500000000
C           22.79604900000000        0.00000000000000        0.00000000000000
C           22.03831000000000       -0.21005100000000       -1.25471400000000
C           22.58141699999999       -0.62265800000000       -2.39317600000000
C           21.53762000000000       -0.61094400000000       -3.39875600000000
C           20.42544700000000       -0.18782000000000       -2.80935400000000
C           19.13745100000000        0.03517200000000       -3.51552200000000
C           19.15523700000000        0.17111400000000       -4.99251100000000
C           18.51209400000000       -0.77590000000000       -5.80351000000000
C           18.54755500000000       -0.65348000000000       -7.19532100000000
C           19.23387200000000        0.41513600000000       -7.79982300000000
C           19.27492300000000        0.54918000000000       -9.27266000000000
O           19.95892100000000        1.60930100000000       -9.86225000000000
O           18.69179900000000       -0.29358300000000      -10.00724400000000
C           19.88501700000000        1.35596400000000       -6.98328600000000
C           19.84803500000000        1.23269900000000       -5.59147900000000
C           17.97093200000000        0.11842300000000       -2.84738800000000
C           16.65529800000000        0.37065000000000       -3.43302100000000
C           15.79385500000000        0.32144900000000       -2.43562700000000
C           16.55003300000000        0.05158500000000       -1.21401900000000
N           17.82001400000000       -0.06810900000000       -1.44159300000000
N           20.65109900000000        0.08413400000000       -1.42475900000000
C           19.40832600000000       -0.23820500000000        4.92372900000000
C           19.34410300000000       -1.47917900000000        5.57078200000000
C           19.38341900000000       -1.54765000000000        6.96630000000000
C           19.48878600000000       -0.37395700000000        7.73505900000000
C           19.53132700000000       -0.44072600000000        9.21240300000000
O           19.63451100000000        0.72634000000000        9.96510700000000
O           19.47475000000000       -1.55306800000000        9.80343200000000
C           19.55363000000000        0.86781800000000        7.07866200000000
C           19.51359400000000        0.93445800000000        5.68304200000000
H           14.83358100000000       -0.12119500000000        0.13360700000000
H           14.87081800000000       -0.41492100000000        2.74836500000000
H           16.69227300000000       -0.45450500000000        4.54566800000000
H           22.12178400000000        0.30281400000000        4.46649200000000
H           23.93761400000000        0.41279500000000        2.65897900000000
H           23.61482600000000       -0.89775500000000       -2.55604300000000
H           21.65447200000000       -0.87681700000000       -4.44139700000000
H           17.98632300000000       -1.61089900000000       -5.35669400000000
H           18.04025200000000       -1.39696800000000       -7.79730100000000
H           19.99316400000000        1.71046000000000      -10.86964800000000
H           20.42444300000000        2.18771700000000       -7.41853100000000
H           20.35712800000000        1.96700000000000       -4.97907100000000
H           16.40831000000000        0.56465400000000       -4.46846000000000
H           14.72457500000000        0.46456100000000       -2.51992100000000
H           19.26341600000000       -2.39223200000000        4.99362900000000
H           19.33170100000000       -2.51875300000000        7.44250200000000
H           19.66443500000000        0.69188200000000       10.97712700000000
H           19.63543200000000        1.78863200000000        7.64223600000000
H           19.56491100000000        1.89912500000000        5.19305200000000
Zn          29.55758400000000        0.00628500000000       -0.01558900000000
C           32.97560800000000       -0.08972800000000       -0.11655400000000
C           32.31031600000000       -0.05755900000000       -1.27470300000000
C           32.95817900000000       -0.04939500000000       -2.58106100000000
C           32.01605300000000        0.03632900000000       -3.50176100000000
C           30.71301500000000        0.08893300000000       -2.82536000000000
N           30.89249400000000        0.02399500000000       -1.41034200000000
C           29.52385900000000        0.23216600000000       -3.44409700000000
C           28.23237300000000        0.30802600000000       -2.71288900000000
C           26.94564700000000        0.60094900000000       -3.35590600000000
C           26.01116200000000        0.55131000000000       -2.42867100000000
N           28.08983700000000        0.08152400000000       -1.44273600000000
C           26.69271400000000        0.21841300000000       -1.18362500000000
C           26.09638700000000        0.00000000000000        0.00000000000000
C           26.85412500000000       -0.35333300000000        1.22212300000000
C           26.31101800000000       -0.89446500000000        2.30541200000000
C           27.35481600000000       -0.99878400000000        3.30563600000000
C           28.46698800000000       -0.51051800000000        2.76895600000000
C           29.75498500000000       -0.37044200000000        3.49612700000000
C           29.73719900000000       -0.40572100000000        4.97893900000000
C           30.38034200000000       -1.43993600000000        5.67532700000000
C           30.34488100000000       -1.47882400000000        7.07197000000000
C           29.65856400000000       -0.48704300000000        7.79566300000000
C           29.61751200000000       -0.52372800000000        9.27413200000000
O           28.93351400000000        0.46133500000000        9.98203300000000
O           30.20063700000000       -1.44557500000000        9.90663600000000
C           29.00741900000000        0.54166500000000        7.09306100000000
C           29.04440000000000        0.57971400000000        5.69632500000000
C           30.92150300000000       -0.21070400000000        2.84204900000000
C           32.23713700000000       -0.02769000000000        3.45286100000000
C           33.09858100000000        0.03844900000000        2.45644700000000
C           32.34240300000000       -0.08875000000000        1.21186900000000
N           31.07242200000000       -0.23388700000000        1.42412300000000
N           28.24133700000000       -0.08071900000000        1.42495600000000
C           29.48410900000000        0.33114700000000       -4.91835300000000
C           29.54833300000000       -0.82693600000000       -5.70418800000000
C           29.50901700000000       -0.73403100000000       -7.09829200000000
C           29.40365000000000        0.52047900000000       -7.72658300000000
C           29.36110900000000        0.62451000000000       -9.20177100000000
O           29.25792500000000        1.87058700000000       -9.81487800000000
O           29.41768600000000       -0.41225900000000       -9.91712400000000
C           29.33880500000000        1.67828000000000       -6.93137300000000
C           29.37884100000000        1.58354500000000       -5.53737900000000
H           34.05885499999999       -0.10498000000000       -0.14669100000000
H           34.02161800000000       -0.09523500000000       -2.77787700000000
H           32.20016200000000        0.07269400000000       -4.56775500000000
H           26.77065199999999        0.81583200000000       -4.40178000000000
H           24.95482100000000        0.71665200000000       -2.59364200000000
H           25.27760900000000       -1.18650700000000        2.43547100000000
H           27.23796400000000       -1.38311200000000        4.31066300000000
H           30.90611300000000       -2.21784200000000        5.13520600000000
H           30.85218400000000       -2.28676800000000        7.58420200000000
H           28.89927100000000        0.44565500000000       10.99437600000000
H           28.46799300000000        1.31768100000000        7.62131400000000
H           28.53530800000000        1.37973500000000        5.17267600000000
H           32.48412600000000        0.04562300000000        4.50376400000000
H           34.16786000000000        0.17088600000000        2.55668000000000
H           29.62901900000000       -1.80045200000000       -5.23617000000000
H           29.56073500000000       -1.64374500000000       -7.68329700000000
H           29.22800100000000        1.95305600000000      -10.82412100000000
H           29.25700300000000        2.65793900000000       -7.38500800000000
H           29.32752500000000        2.48527500000000       -4.93942000000000
C           23.83525900000000        0.00000000000000        0.00000000000000
C           25.05717700000000        0.00000000000000        0.00000000000000
126
 energy: -232.976223485748 gnorm: 0.419204967212 xtb: 6.5.1 (b24c23e)
Zn          19.33324792823767        0.00306687398996        0.01519007840507
C           15.91764197952633       -0.10104861076858        0.09207037906917
C           16.58769203894190       -0.20393036421318        1.26196770363436
C           15.93302665558491       -0.34634109947827        2.55318841544857
C           16.88338807710262       -0.36742103313465        3.48485387716956
C           18.17630658045393       -0.23762899774910        2.81132532339732
N           17.98432188942513       -0.14118443027472        1.41965682754443
C           19.38058196610334       -0.16533040878821        3.44610123794479
C           20.65141313020678       -0.00705576773017        2.75270818466497
C           21.93478720927890        0.20846576026479        3.41393929459222
C           22.87595996243690        0.26679147475881        2.46742332778826
N           20.79907523426080       -0.08224581441113        1.45019268908980
C           22.14952758398766        0.08181787377787        1.22579162118707
C           22.65192477360474       -0.00010833301035       -0.01263753773781
C           21.99589923385201       -0.20590462686060       -1.26152188985203
C           22.57870814542200       -0.62564020484976       -2.41066111112045
C           21.55378424226023       -0.61340763535958       -3.40276182854520
C           20.41397037239446       -0.18098472534865       -2.80473566430366
C           19.14671942640715        0.03461202453694       -3.51070573041491
C           19.15920893731322        0.16929368593655       -4.99188771700841
C           18.51322937401074       -0.77240877788785       -5.80652724182654
C           18.54964592916687       -0.64995822658551       -7.19487660931735
C           19.23656861603674        0.41938637323196       -7.80264544895826
C           19.27093642120373        0.54371079293361       -9.28832536679386
O           19.95485230232328        1.60305371705566       -9.85604573049437
O           18.69998177002695       -0.28139206976260      -10.00008926687364
C           19.88409660031251        1.35500344052431       -6.98118465807438
C           19.84768482129033        1.23065280385341       -5.59421459473180
C           17.96855175183156        0.11861449594769       -2.84648423885891
C           16.66075218275774        0.36983423663160       -3.43390653177725
C           15.78660443723781        0.32075960027788       -2.42736013473322
C           16.53584326765564        0.05084931521909       -1.20734143957963
N           17.81974774562063       -0.06467975696827       -1.45085554759116
N           20.64649128416119        0.08040232460050       -1.43731126197971
C           19.41048807874526       -0.23791860301163        4.92619858141365
C           19.34409201319889       -1.47638268806770        5.57528745490986
C           19.38359150817892       -1.54364650083365        6.96695275183251
C           19.48923658396044       -0.36935232130302        7.73856928761669
C           19.53128219780145       -0.44954851056716        9.22697740849982
O           19.63386045153506        0.71987000521236        9.95803473440809
O           19.47562131831970       -1.53755110128837        9.79838676747319
C           19.55349318560645        0.86686416538079        7.07700327976688
C           19.51416413579425        0.93222909093388        5.68634733883980
H           14.83399011527765       -0.12062102018597        0.13071403415828
H           14.87081463458470       -0.41469627116266        2.74386523040310
H           16.69774932335435       -0.45437593122770        4.54620286928049
H           22.11789135611850        0.30245824316779        4.46995935193369
H           23.93465837656449        0.41314754171418        2.65128325808160
H           23.61336764883179       -0.89943267039734       -2.55675834338866
H           21.65771128317960       -0.87807529728763       -4.44208538995346
H           17.98725181312729       -1.60956712382197       -5.35724450773164
H           18.04139026553898       -1.39527800889400       -7.79844309126644
H           19.98712622392177        1.70048448037828      -10.85255365957527
H           20.42387615869684        2.18702767769965       -7.41913708768701
H           20.35651809684371        1.96598618875255       -4.97932518538196
H           16.41335997634895        0.56404925729652       -4.46833976512408
H           14.72236821821884        0.46418200644677       -2.51615872964038
H           19.26365514595213       -2.39065543112984        4.99456691853028
H           19.33193863234816       -2.51695100783487        7.44412389765251
H           19.66326876524078        0.68268855111981       10.95866757520722
H           19.63535610317070        1.78774281225135        7.64294965174370
H           19.56485545775585        1.89784589895146        5.19331979654227
Zn          29.55918801980476        0.00479746525654       -0.01473491775185
C           32.97479328118545       -0.08975823664679       -0.10310822104810
C           32.30474314035234       -0.05705058994263       -1.27706501671449
C           32.95940922107600       -0.04961826472495       -2.57609484375527
C           32.00904709957668        0.03687396307060       -3.50397571377576
C           30.71612925201747        0.08813456429038       -2.81997346982895
N           30.90811402216714        0.02346038668408       -1.42646703481315
C           29.51185388571862        0.23314787733709       -3.44217819601160
C           28.24102206638834        0.31041020071114       -2.73515974715697
C           26.95764796123726        0.60074134179826       -3.36712738331948
C           26.01647574267056        0.54953384164276       -2.42019960859453
N           28.09336072122106        0.08552684961165       -1.45000273432873
C           26.74290837317266        0.22262039411138       -1.20818017987316
C           26.24051116367226       -0.00156486743667        0.01254072393145
C           26.89653593489052       -0.34999932473446        1.22936360101100
C           26.31372696954315       -0.89944356151601        2.32243675060390
C           27.33865159321993       -1.00169310702910        3.30933080774539
C           28.47846479413662       -0.50319571753929        2.76515661764282
C           29.74571641776535       -0.37044299169247        3.49127831218635
C           29.73322705159243       -0.40745740743631        4.97811005006119
C           30.37920661009015       -1.43681589838287        5.67872655226881
C           30.34279011474388       -1.47527462283760        7.07193465476470
C           29.65586731384682       -0.48314641268701        7.79895683014785
C           29.62149873347349       -0.53096711032473        9.28906228616024
O           28.93758270860916        0.45584475189505        9.97514975641563
O           30.19245411834676       -1.43264028888059        9.90093470146592
C           29.00833929606484        0.54095324473012        7.09086306151879
C           29.04475034423132        0.57736599198541        5.69880631012082
C           30.92388344762434       -0.21040952701752        2.84117343493886
C           32.23168299916733       -0.02860234008706        3.45364650347015
C           33.10583128515817        0.03871736471796        2.44815579175799
C           32.35659266369959       -0.08871073795238        1.20515121871197
N           31.07268817744534       -0.23154875910869        1.43371909049883
N           28.24594462129395       -0.08587317948623        1.43699433279243
C           29.48194703780080        0.33171616722822       -4.92077287709317
C           29.54834391143268       -0.82363905953156       -5.70834081523425
C           29.50884449638272       -0.72997910110153       -7.09847887150638
C           29.40319936661258        0.52545777042434       -7.72953889111581
C           29.36115380392783        0.61742703420583       -9.21726562790484
O           29.25857554720194        1.86334460173701       -9.80859902063958
O           29.41681468190253       -0.39742740057603       -9.91032310015005
C           29.33894183908254        1.67714149839773       -6.92983557037235
C           29.37827090032609        1.58171208629844       -5.54091925454736
H           34.05844570615366       -0.10474345546028       -0.14375116069954
H           34.02162131717526       -0.09553063405207       -2.77338133881879
H           32.19468570836155        0.07288391563158       -4.56827152964789
H           26.77454463402909        0.81587840643833       -4.40526514575668
H           24.95777678880808        0.71611475536946       -2.58595688094347
H           25.27906737513732       -1.18825597198632        2.43598814516406
H           27.23472465800637       -1.38444131109793        4.31120180118124
H           30.90518415324982       -2.21658241840241        5.13590644746334
H           30.85104572251248       -2.28522094960988        7.58553129752565
H           28.90530877915966        0.43771718284904       10.97624536349150
H           28.46855984342651        1.31692636768539        7.62183654049043
H           28.53591785068364        1.37869865625502        5.17281151826663
H           32.47907597253197        0.04503612029478        4.50357472007203
H           34.17006698315601        0.17094339945249        2.55289921204549
H           29.62877987397156       -1.79877756012344       -5.23691996349723
H           29.56049738028235       -1.64176796006807       -7.68470027019970
H           29.22916723735992        1.94179528945931      -10.80684473605404
H           29.25707890539175        2.65713786805951       -7.38581935132724
H           29.32758049511522        2.48403541130759       -4.93983346972000
C           23.89300974226946       -0.00047251039608       -0.00642149406815
C           24.99942620469302       -0.00120983371884        0.00632416444524
126
 energy: -233.090536068577 gnorm: 0.253278608444 xtb: 6.5.1 (b24c23e)
Zn          19.32041316659868       -0.00202232688509        0.01537687563643
C           15.91836357053482       -0.09914162435408        0.07588115293144
C           16.58891375591479       -0.20384527244967        1.26333953866696
C           15.93282809110223       -0.34569590332091        2.54739031297473
C           16.89086569237433       -0.36721466802625        3.48692001582006
C           18.17169447479615       -0.23876638794012        2.81171269464160
N           17.96080467600742       -0.14502763116723        1.44364857911976
C           19.38696778363072       -0.16470642351851        3.45317579058433
C           20.63170069939184       -0.00673688127781        2.79337845124542
C           21.91585884842961        0.20515561929852        3.43323748787655
C           22.85147960548745        0.26559316920225        2.46292913658376
N           20.77374933836485       -0.07133542212972        1.47684134365403
C           22.09336778950732        0.08685706708345        1.24313312266278
C           22.55089934059361       -0.00321647702349       -0.02720905086540
C           21.94442648629340       -0.20207546454959       -1.27073584387910
C           22.56703573659998       -0.62441932528442       -2.43521376517374
C           21.57184300310755       -0.61057252050235       -3.41275666185130
C           20.40135458016651       -0.17219673137551       -2.81191985831993
C           19.15752283251370        0.03464427027675       -3.50676128926764
C           19.16994891054908        0.16415822964324       -4.99115259303365
C           18.51665525643599       -0.76570071580685       -5.81162401632637
C           18.55411260408804       -0.64117130655863       -7.19665123717750
C           19.24090210305948        0.42621112071476       -7.80625862821707
C           19.26660516848327        0.53726945680886       -9.30032374187672
O           19.94966884278964        1.59424974930325       -9.83268617753653
O           18.70759288944395       -0.26962321617324      -10.00077143148758
C           19.88365811150280        1.35522162049042       -6.98013817073050
C           19.85000271679078        1.22644721182287       -5.59733723394934
C           17.96445768604728        0.12036234186465       -2.84512549646555
C           16.66379355821981        0.36766808567818       -3.42997351676565
C           15.77529176575101        0.31862865160543       -2.41862166084898
C           16.51528181959391        0.05003362981991       -1.20242536781396
N           17.81386434933738       -0.05508617367753       -1.46378139853630
N           20.62327026341413        0.06789651582582       -1.46313925981034
C           19.41264602818275       -0.23690916433380        4.93438995324592
C           19.34401440550990       -1.47100846830315        5.58553077327329
C           19.38381103315221       -1.53509911489989        6.97306764406602
C           19.48987834293424       -0.36194292947073        7.74455760869399
C           19.53108990629699       -0.45894176835815        9.23845554386146
O           19.63263238970930        0.71304044293388        9.93387518521307
O           19.47652799008772       -1.52387257661864        9.80149682816622
C           19.55363417424156        0.86747886824962        7.07891935074025
C           19.51593184554680        0.93020571546518        5.69292607688697
H           14.83490299923821       -0.11805375018833        0.12200632378462
H           14.87069390364214       -0.41410085632763        2.73142241313328
H           16.71264496338351       -0.45416219966739        4.54811971660865
H           22.10805272544643        0.30124370466167        4.48460687290530
H           23.91510052154749        0.41393579144939        2.62967079123507
H           23.60376944853472       -0.90394716586500       -2.55868243637945
H           21.66803253979839       -0.88203132028267       -4.44818305613830
H           17.99077926693767       -1.60411431850152       -5.36098298093624
H           18.04622755886550       -1.38756717971650       -7.80208388128419
H           19.97129053012239        1.67453102634242      -10.81493459372629
H           20.42277992690525        2.18648717555697       -7.42063188595427
H           20.35544423143129        1.96294584446243       -4.98027440158605
H           16.42652359997851        0.56211797414783       -4.46617712871185
H           14.71334935574793        0.46313039123032       -2.50694826938869
H           19.26435008222628       -2.38462260639728        5.00051218952978
H           19.33267060107458       -2.50932691325473        7.45089889044165
H           19.66025634702818        0.65780920005383       10.91757614728340
H           19.63512147743239        1.78713929577506        7.64623990439023
H           19.56484929027154        1.89417927977041        5.19510476737413
Zn          29.57202264344226       -0.00023622936397       -0.01550731032268
C           32.97407195007548       -0.08973065116400       -0.08680717978858
C           32.30352165973939       -0.05680779504531       -1.27841802973224
C           32.95960765605307       -0.04964607902920       -2.57026077691747
C           32.00156966009121        0.03731714100686       -3.50600421658446
C           30.72074115774608        0.08704942943359       -2.82048939845979
N           30.93163110892159        0.02240929885792       -1.45074189063885
C           29.50546788309286        0.23458344332460       -3.44913354866452
C           28.26073470213387        0.31541672875006       -2.77552189121232
C           26.97657649367290        0.59967864939781       -3.38667874894185
C           26.04095595784618        0.54782539798949       -2.41587365638675
N           28.11868654622871        0.09943741103783       -1.47521567863765
C           26.79906809036984        0.22962553143701       -1.22482493454553
C           26.34153649537990       -0.00633256512853        0.02665662303849
C           26.94800890133352       -0.34725818092083        1.23895767681645
C           26.32539958692558       -0.90106194520084        2.34696661707648
C           27.32059267351010       -1.00002940148646        3.31958563558434
C           28.49108075425298       -0.49529475894500        2.77330625462612
C           29.73491288088900       -0.36995639236813        3.48736389360957
C           29.72248698820269       -0.41247398917886        4.97678770724159
C           30.37578071732705       -1.43074020526359        5.68456272458812
C           30.33832340193478       -1.46675108812116        7.07471061222072
C           29.65153374435852       -0.47678386160883        7.80333300399829
C           29.62583018913234       -0.53874886564885        9.30023791520472
O           28.94276620577651        0.44979301652637        9.95093085642171
O           30.18484289469723       -1.42102859668877        9.90296944995126
C           29.00877764218059        0.54129076298378        7.08984885598569
C           29.04243274607764        0.57282843889266        5.70142310563109
C           30.92797767739312       -0.20851662636296        2.84002547228424
C           32.22864180787060       -0.03030033120798        3.44948987670203
C           33.11714379957816        0.03760812094338        2.43922978163522
C           32.37715398637311       -0.08895401880477        1.20017389102140
N           31.07857144983734       -0.22350976994439        1.44766487198408
N           28.26916552021686       -0.10127372553838        1.46120818237965
C           29.47978927318248        0.33366332029781       -4.92879298973420
C           29.54842132675894       -0.81711973271085       -5.71789599701128
C           29.50862492824664       -0.72078377503574       -7.10356747899309
C           29.40255750887713        0.53350828167898       -7.73463287644115
C           29.36134608810636        0.60942013533143       -9.22975046748899
O           29.25980360624850        1.85377466483547       -9.78538819806364
O           29.41590801319978       -0.38348152028727       -9.91183505988313
C           29.33880095298947        1.67797324988298       -6.93166818977519
C           29.37650332133890        1.58046077969374       -5.54768736357605
H           34.05753267262010       -0.10319745639654       -0.13480553899818
H           34.02174191719755       -0.09637396969928       -2.76095283202605
H           32.17979017194003        0.07331734982224       -4.57015108733299
H           26.78438320765995        0.81636093006420       -4.41995492247714
H           24.97733485323544        0.71440556935424       -2.56439761681992
H           25.28866571915032       -1.19296211387904        2.43737893783248
H           27.22440325721794       -1.38907406474401        4.31680266656583
H           30.90165665823184       -2.21159694857857        5.14024878197797
H           30.84620844013088       -2.27798138020598        7.59003683159231
H           28.92114447758005        0.41627470944247       10.93588448143941
H           28.46965601126353        1.31621713181556        7.62325904670079
H           28.53699163111379        1.37556909023618        5.17340366816674
H           32.46591224762977        0.04336701269905        4.50120365544682
H           34.17908609699086        0.17096089522287        2.54362908288507
H           29.62808502640270       -1.79209915333631       -5.24213002633825
H           29.55976545514111       -1.63341348242845       -7.69055095407547
H           29.23217966314732        1.91234356202839      -10.76889616470453
H           29.25731353386307        2.65691762369645       -7.38915717856583
H           29.32758652594201        2.48059922885382       -4.94202930798074
C           23.83849311773122       -0.00240793574200       -0.01789983731609
C           25.05394272200574       -0.00445594080338        0.01750273863331
126
 energy: -233.140640427062 gnorm: 0.116098822346 xtb: 6.5.1 (b24c23e)
Zn          19.30294598109688       -0.01039913825702        0.01394190601874
C           15.91721869943306       -0.09675437348349        0.06241069001791