192
 energy: -351.523981345799 gnorm: 0.453229935570 xtb: 6.5.1 (b24c23e)
C           33.61446000000000        0.01861600000000        0.08272800000000
C           34.34485800000000       -1.35897700000000        0.05351400000000
C           33.73957200000000       -2.59158100000000        0.14380800000000
C           34.76253699999999       -3.56736200000000        0.02030200000000
C           35.95836099999999       -2.89581200000000       -0.14597400000000
N           35.69741800000000       -1.55028700000000       -0.07077200000000
C           37.38042500000000       -3.54571400000000       -0.40577800000000
C           38.50943600000000       -2.78865100000000       -0.35739300000000
C           39.81338399999999       -3.34035100000000       -0.66376600000000
C           40.71354300000000       -2.36950700000000       -0.56384600000000
N           38.70418399999999       -1.46464100000000       -0.06507300000000
C           40.03411299999999       -1.15028700000000       -0.17206600000000
C           40.70038300000000        0.01940900000000        0.01976000000000
C           39.92305899999999        1.32376800000000        0.48118200000000
C           40.46519200000000        2.39815100000000        1.15855600000000
C           39.43960700000000        3.36246500000000        1.32200100000000
C           38.29689799999999        2.84519000000000        0.75060500000000
C           36.88558800000000        3.56209200000000        0.66142900000000
C           36.84897500000000        5.03677300000000        0.76744200000000
C           37.15873500000000        5.83080300000000       -0.34259200000000
C           37.13228199999999        7.22406900000000       -0.24147400000000
C           36.79691800000000        7.83216200000000        0.97523000000000
C           36.77904899999999        9.31330800000000        1.03967400000000
O           36.45173200000000        9.78426400000000        2.25818500000000
O           37.02442700000000       10.08161900000000        0.12694200000000
C           36.48888900000000        7.04036900000000        2.08920200000000
C           36.51654700000000        5.64792600000000        1.98286600000000
C           35.76120599999999        2.82111100000000        0.48352900000000
C           34.43814699999999        3.41087800000000        0.38034600000000
C           33.55421300000000        2.42929500000000        0.22670500000000
C           34.27782900000000        1.18191200000000        0.21980000000000
N           35.59883400000000        1.46931000000000        0.36412000000000
N           38.58803699999999        1.58350000000000        0.28770000000000
C           37.41855100000000       -4.98501800000000       -0.75331200000000
C           37.15174700000000       -5.39861000000000       -2.06369100000000
C           37.17025000000000       -6.75625400000000       -2.39330000000000
C           37.45943800000000       -7.71037000000000       -1.40867000000000
C           37.49080300000000       -9.16175100000000       -1.70963400000000
O           37.22416100000000       -9.43963500000000       -2.99958700000000
O           37.72545699999999      -10.05968400000000       -0.92044700000000
C           37.72822200000000       -7.29967300000000       -0.09662800000000
C           37.70472400000000       -5.94131900000000        0.22822700000000
H           32.53641700000000        0.02388800000000       -0.02368500000000
H           32.68218400000000       -2.76855200000000        0.26644200000000
H           34.63594500000000       -4.63972600000000        0.02641000000000
H           36.39699700000000       -0.81290400000000       -0.10675500000000
H           40.02710700000000       -4.35704400000000       -0.94070400000000
H           41.76612800000000       -2.49206500000000       -0.74291400000000
H           41.48849300000000        2.48715800000000        1.48987500000000
H           39.52707000000000        4.32615800000000        1.79989700000000
H           37.41640100000000        5.34908600000000       -1.28369300000000
H           37.37269700000000        7.82438400000000       -1.11508900000000
H           36.48251500000000       10.75412100000000        2.13745200000000
H           36.22407900000000        7.48848600000000        3.04185700000000
H           36.27603900000000        5.02189100000000        2.84007000000000
H           34.20639000000000        4.45955100000000        0.41899400000000
H           32.49032800000000        2.53890300000000        0.12072000000000
H           37.90406700000000        0.92996500000000       -0.08458400000000
H           36.93154500000000       -4.64824100000000       -2.82013600000000
H           36.95825800000000       -7.05017600000000       -3.41702400000000
H           37.28334799999999      -10.41536500000000       -3.03376200000000
H           37.95749899999999       -8.02712600000000        0.67796300000000
H           37.91140900000000       -5.61110400000000        1.24371100000000
C           64.62240199999999       -0.00811300000000        0.07640000000000
C           63.89200499999999        1.23635000000000        0.66794500000000
C           64.49729100000000        2.29763400000000        1.30130500000000
C           63.47432500000000        3.22521200000000        1.62841000000000
C           62.27850100000000        2.69949800000000        1.17868700000000
N           62.53944499999999        1.46307800000000        0.64262700000000
C           60.85643799999999        3.39690000000000        1.23785100000000
C           59.72742700000000        2.69850300000000        0.94166300000000
C           58.42347900000000        3.32900700000000        0.91517100000000
C           57.52331899999999        2.41641500000000        0.56919700000000
N           59.53267900000000        1.38396900000000        0.60932100000000
C           58.20275000000000        1.15095400000000        0.37274200000000
C           57.53647899999999        0.01940900000000        0.01976000000000
C           58.31380400000000       -1.35337800000000       -0.15261900000000
C           57.77167100000000       -2.61742600000000       -0.02885700000000
C           58.79725600000000       -3.55266400000000       -0.31512100000000
C           59.93996400000000       -2.83410500000000       -0.59393900000000
C           61.35127499999999       -3.43492600000000       -0.99508000000000
C           61.38788700000000       -4.80060700000000       -1.56150800000000
C           61.07812699999999       -5.01265800000000       -2.90972700000000
C           61.10458000000000       -6.30337000000000       -3.44402700000000
C           61.43994399999999       -7.39243800000000       -2.62911700000000
C           61.45781400000000       -8.74525800000000       -3.23560000000000
O           61.78513100000000       -9.71255500000000       -2.35758900000000
O           61.21243500000000       -9.02278300000000       -4.39592900000000
C           61.74797299999999       -7.18415200000000       -1.27838100000000
C           61.72031500000000       -5.89183500000000       -0.74911400000000
C           62.47565700000000       -2.69283500000000       -0.82187000000000
C           63.79871500000000       -3.17373700000000       -1.17852800000000
C           64.68264900000000       -2.22746000000000       -0.87575800000000
C           63.95903400000000       -1.10938700000000       -0.32265400000000
N           62.63802900000000       -1.43098600000000       -0.32251000000000
N           59.64882600000000       -1.49879100000000       -0.44201700000000
C           60.81831200000000        4.83924700000000        1.57253300000000
C           61.08511500000000        5.79645900000000        0.58668500000000
C           61.06661300000000        7.15777700000000        0.90077700000000
C           60.77742400000000        7.56914700000000        2.20867900000000
C           60.74605999999999        9.00140900000000        2.59040300000000
O           61.01270099999999        9.82816000000000        1.56196600000000
O           60.51140500000000        9.45018900000000        3.69841700000000
C           60.50864100000000        6.61377700000000        3.19731100000000
C           60.53213900000000        5.25395600000000        2.87865200000000
H           65.70044600000000        0.03488600000000       -0.02108100000000
H           65.55467899999999        2.40083500000000        1.49026800000000
H           63.60091800000000        4.18101000000000        2.11467500000000
H           61.83986600000000        0.82010000000000        0.27985100000000
H           58.20975599999999        4.36195000000000        1.12347300000000
H           56.47073500000000        2.60625100000000        0.46408700000000
H           56.74836899999999       -2.84553600000000        0.22738700000000
H           58.70979200000000       -4.62833300000000       -0.32003400000000
H           60.82046100000000       -4.16012200000000       -3.53495000000000
H           60.86416499999999       -6.44826900000000       -4.49406800000000
H           61.75434700000000      -10.52533400000000       -2.90035100000000
H           62.01278400000000       -8.01183500000000       -0.62776600000000
H           61.96082400000000       -5.71658900000000        0.29778900000000
H           64.03047200000000       -4.12842500000000       -1.61416600000000
H           65.74653499999999       -2.27791400000000       -1.01963700000000
H           60.33279500000000       -0.74770900000000       -0.48176500000000
H           61.30531800000000        5.46489900000000       -0.42590100000000
H           61.27860400000000        7.87949700000000        0.11750100000000
H           60.95351500000000       10.71564100000000        1.96889700000000
H           60.27936400000000        6.91671700000000        4.21584200000000
H           60.32545399999999        4.50349000000000        3.63829000000000
C           42.88956000000000        0.01940900000000        0.01976000000000
C           44.11147799999999        0.01940900000000        0.01976000000000
C           54.12538500000000        0.01940900000000        0.01976000000000
C           55.34730199999999        0.01940900000000        0.01976000000000
C           45.52822300000000       -0.04069700000000       -0.04143300000000
C           46.32260399999999        0.75230900000000       -1.15953800000000
C           45.81830100000000        1.21550600000000       -2.35771700000000
C           46.85586800000000        1.93550600000000       -3.00356900000000
C           47.96287800000000        1.88341200000000       -2.18263500000000
N           47.65032100000000        1.09814100000000       -1.10137800000000
C           49.35141899999999        2.60235800000000       -2.42956700000000
C           50.48691399999999        2.10117400000000       -1.87650200000000
C           51.77352600000000        2.75010400000000       -2.02419200000000
C           52.68192300000000        2.03216000000000       -1.37248800000000
N           50.69546100000000        0.98991700000000       -1.10803100000000
C           52.02015700000000        0.88908800000000       -0.77672500000000
C           52.68435200000000       -0.04069700000000       -0.04143300000000
C           51.88967400000000       -1.26077800000000        0.58288500000000
C           52.39247700000000       -2.51437700000000        0.86627200000000
C           51.35449600000000       -3.25667500000000        1.48575900000000
C           50.24904800000000       -2.43502500000000        1.55516400000000
C           48.86143400000000       -2.78105200000000        2.23357900000000
C           48.87394499999999       -3.74193800000000        3.35972700000000
C           48.43557700000000       -5.05952900000000        3.17612300000000
C           48.46222200000000       -5.96621600000000        4.23850400000000
C           48.93211399999999       -5.56019800000000        5.49413900000000
C           48.94419000000000       -6.55378900000000        6.59454100000000
O           49.40835900000000       -6.05158100000000        7.75468500000000
O           48.58636199999999       -7.71627600000000        6.52371800000000
C           49.37495500000000       -4.24434700000000        5.68070200000000
C           49.34600799999999       -3.34104500000000        4.61513000000000
C           47.72541900000000       -2.16424000000000        1.81501800000000
C           46.43951600000000       -2.40072600000000        2.43840000000000
C           45.53096000000000       -1.65380000000000        1.82035800000000
C           46.19215900000000       -0.90290300000000        0.77224800000000
N           47.51618400000000       -1.24805100000000        0.82215000000000
N           50.56238200000000       -1.25168000000000        0.93490800000000
C           49.34302599999999        3.84482000000000       -3.23459600000000
C           48.87301500000000        5.03996900000000       -2.67790300000000
C           48.85011699999999        6.21127500000000       -3.43926600000000
C           49.29615500000000        6.19320500000000       -4.76705400000000
C           49.25533300000000        7.45804700000000       -5.53961800000000
O           49.70329499999999        7.32009300000000       -6.80230400000000
O           48.86910600000000        8.54097200000000       -5.13680200000000
C           49.76398400000000        4.99837400000000       -5.32912200000000
C           49.78444800000000        3.82971800000000       -4.56400300000000
H           44.81111000000000        1.07211800000000       -2.71854300000000
H           46.79576800000000        2.45055200000000       -3.95041500000000
H           48.30972100000000        0.78565500000000       -0.39455300000000
H           51.96962100000000        3.66228200000000       -2.55850400000000
H           53.72643899999999        2.27647600000000       -1.30672500000000
H           53.39878300000000       -2.85219100000000        0.67029600000000
H           51.41311400000000       -4.26858300000000        1.85731800000000
H           48.07043099999999       -5.36440700000000        2.19718200000000
H           48.11466200000000       -6.98316300000000        4.07792700000000
H           49.35277800000000       -6.81264800000000        8.36624500000000
H           49.74447399999999       -3.90647100000000        6.64407200000000
H           49.68875300000000       -2.31686800000000        4.75034000000000
H           46.24370100000000       -3.05849700000000        3.26604400000000
H           44.48671499999999       -1.62254600000000        2.07260100000000
H           49.90364200000000       -0.50636100000000        0.72849700000000
H           48.52741800000000        5.04509000000000       -1.64590100000000
H           48.48329900000000        7.12974800000000       -2.98892400000000
H           49.61475100000000        8.22237600000000       -7.16914300000000
H           50.11539699999999        4.95961200000000       -6.35558600000000
H           50.14759100000000        2.89609800000000       -4.98983600000000
192
 energy: -351.665178615648 gnorm: 0.285649063629 xtb: 6.5.1 (b24c23e)
C           33.65211779828210       -0.02170557057741        0.08254764136501
C           34.34549378448407       -1.34143269908288        0.05543904323948
C           33.74735240250747       -2.59710261675614        0.13605248261520
C           34.76185507021500       -3.56327998389001        0.01231258533322
C           35.97937626430701       -2.89676278443260       -0.14818404029982
N           35.70122862484514       -1.54864234529891       -0.07495477311305
C           37.34431298785554       -3.51181471966512       -0.39672500596583
C           38.51290627671229       -2.76882770857760       -0.35738114654597
C           39.81689214300735       -3.34471033235787       -0.66616448374653
C           40.72989499402988       -2.37085115064898       -0.56426718267707
N           38.70819253201696       -1.44096479703763       -0.06881509272664
C           40.05459121982688       -1.14059456405411       -0.17034693770434
C           40.72189477924407        0.05190491196279        0.05444041505703
C           39.94587449504550        1.30147906401226        0.47642873533550
C           40.46766467262726        2.40476820779053        1.15014497667162
C           39.44532860001530        3.35811730189040        1.31263498133817
C           38.28271766024682        2.84175568484828        0.74594330417783
C           36.92697701915836        3.53097539091105        0.66112415342734
C           36.86916520236386        5.02145073851225        0.77146042804405
C           37.16259775284330        5.82610836971419       -0.33761434467772
C           37.13067211264072        7.21403762397473       -0.23934890866440
C           36.79749287015696        7.82678588386376        0.97292430261916
C           36.77933589937929        9.30998135922530        1.03973156073930
O           36.45278342039452        9.78779316762487        2.25344540737642
O           37.02390848753234       10.06485933572067        0.12856800909946
C           36.48896347778913        7.03265620004418        2.08322378987553
C           36.51897002800131        5.64449967674121        1.97791802097635
C           35.76536655022843        2.81080830637474        0.47836179978291
C           34.43929260689160        3.42083161502105        0.38164523060941
C           33.54987544878730        2.43322901970987        0.22627324611030
C           34.29236065901687        1.18112579460923        0.21660888456557
N           35.61612648735652        1.45832342804285        0.36176549197672
N           38.59887488838930        1.57761036226271        0.28073895512348
C           37.40092046738911       -4.96928192895298       -0.74516868310480
C           37.14852033511775       -5.39624561589039       -2.05645722785216
C           37.17220689722952       -6.74927227199066       -2.38624750290832
C           37.45980296172913       -7.70523943847399       -1.40535649954113
C           37.49068425392539       -9.15840144218915       -1.70894677320143
O           37.22532139031035       -9.44384993965964       -2.99555590233906
O           37.72454827844415      -10.04293773743864       -0.91960309699649
C           37.72849740251067       -7.28868249798872       -0.09756088737246
C           37.70275501199208       -5.93492223319114        0.22572187064760
H           32.56563233252002       -0.00509006311661       -0.01785736401364
H           32.68963810758493       -2.77456901122026        0.26511533020380
H           34.63369325189950       -4.63540361360416        0.02626108708045
H           36.39812742401409       -0.81305948699810       -0.10760907907913
H           40.01947971470186       -4.36582210545617       -0.94151078858632
H           41.78231308674606       -2.48598485464439       -0.74209792740212
H           41.48730659031381        2.49347917755898        1.48933644843267
H           39.53038667879513        4.32024082079789        1.79682716868463
H           37.41697224347920        5.35156386984460       -1.28070214536848
H           37.37031709268367        7.82180109478630       -1.10854373413940
H           36.48024402418558       10.75580869118989        2.14617545046854
H           36.22598962033606        7.48727599334053        3.03440380196363
H           36.27784864285400        5.02581732006639        2.83764052489537
H           34.21357367055472        4.47166639024601        0.42143388830215
H           32.48333344514592        2.53547340140097        0.12037970896524
H           37.91214820106776        0.92716439592504       -0.08581409283734
H           36.93099744157067       -4.65268417289639       -2.81791101111564
H           36.96078621911179       -7.04995131868484       -3.40905602038467
H           37.28139209215042      -10.41555186123761       -3.04274458485869
H           37.95576265330268       -8.02319434214668        0.67155768341606
H           37.91017221575954       -5.61277126766394        1.24135362352822
C           64.58475101496546        0.02800228237414        0.09431014194814
C           63.89137312086356        1.21980999528736        0.66179930735714
C           64.48951000486643        2.30603864950749        1.29684534897009
C           63.47499556708305        3.22514972791332        1.61943337635412
C           62.25749182468542        2.70134637753213        1.17711866115922
N           62.53563753116057        1.46348717239301        0.63814330588240
C           60.89250884781155        3.36249154077708        1.23075520224256
C           59.72391656243472        2.68068910978262        0.93281474593412
C           58.41996822593235        3.33389505034847        0.91490003455073
C           57.50701432219756        2.41765554530781        0.56922617283433
N           59.52851784041277        1.36436526947597        0.59532575751740
C           58.18216645443226        1.14120713309718        0.36947287626920
C           57.51436583639961       -0.02595614246296        0.03639203190008
C           58.29080697108956       -1.33159185145808       -0.14672167862241
C           57.76913156136185       -2.61975873218338       -0.03928242952261
C           58.79154224470663       -3.54465707818542       -0.32153103617914
C           59.95409589621705       -2.82895130358447       -0.59654467458948
C           61.30988914286097       -3.40696854346809       -0.98140880918319
C           61.36769789390802       -4.78870721542982       -1.55105264903817
C           61.07426204724393       -5.01069123321932       -2.90317796888095
C           61.10618851036055       -6.29535390600708       -3.43762984128954
C           61.43937081752178       -7.38660117760695       -2.62876985307543
C           61.45753195373407       -8.74230756063898       -3.23405465815151
O           61.78408074851703       -9.71357051945954       -2.36342718696608
O           61.21291808263815       -9.00853092627422       -4.38698449232462
C           61.74790017482201       -7.17457704282775       -1.28026801520239
C           61.71789243383467       -5.88655133297971       -0.75200641602812
C           62.47149093324548       -2.68131274495902       -0.82186834950621
C           63.79756859511836       -3.18321679520249       -1.18183239819295
C           64.68698510697102       -2.23078490560292       -0.87791205917628
C           63.94450257021580       -1.10725350137636       -0.32515540330871
N           62.62073398163775       -1.42010316658373       -0.31968667687729
N           59.63786165782282       -1.49042330456759       -0.44552769772945
C           60.83592827536774        4.82150786429135        1.57273659168561
C           61.08833483362238        5.79109959936027        0.59208758647416
C           61.06465796783280        7.14837451704718        0.90394253581488
C           60.77706291981684        7.56308346800686        2.20933161576364
C           60.74619454549185        8.99810942377890        2.58950728927922
O           61.01153641777825        9.83010652021050        1.56747981884566
O           60.51227248812286        9.43482677243060        3.69169150302996
C           60.50836872737353        6.60436930555607        3.19153727102633
C           60.53410867892168        5.24936020215591        2.87352972608982
H           65.67123418638367        0.05817383680858       -0.00288775947941
H           65.54722418457905        2.40680711740214        1.49177504890456
H           63.60316473706689        4.17721778620432        2.11259814326413
H           61.83874050870590        0.82062325556192        0.27914720516919
H           58.21737325604479        4.37010003284679        1.12666197709181
H           56.45454806480354        2.60037712320830        0.46204661573288
H           56.74947109196933       -2.85112026406498        0.22407178534057
H           58.70649903101638       -4.62172453559410       -0.32014166920944
H           60.81988736526348       -4.16367603228072       -3.53339234850020
H           60.86654696925599       -6.44889095213576       -4.48706164513456
H           61.75662252038954      -10.53075885017071       -2.89329791780638
H           62.01087196458059       -8.00741125264697       -0.63388796420964
H           61.95901373110482       -5.71900867681231        0.29385138477290
H           64.02328820155356       -4.14034751375976       -1.61742080673362
H           65.75352757831958       -2.27469640667465       -1.01840824558706
H           60.32459449175346       -0.74464606521880       -0.48159610881489
H           61.30586510930176        5.46787418911759       -0.42192046843093
H           61.27607730854182        7.87572739856822        0.12452017969399
H           60.95547166475495       10.71984507468208        1.96092986321261
H           60.28111054232726        6.91607393937294        4.20834835835941
H           60.32669639658740        4.50603644311141        3.63692459977544
C           42.82502540253359        0.02141717823318        0.01795405269311
C           44.06634211122689        0.03122755003120       -0.00681598085969
C           54.16498393754345       -0.00959172030980        0.02796138545554
C           55.40627671984939        0.01484769721267        0.01910829076021
C           45.51958847574370       -0.03331428479949       -0.07825889430877
C           46.30996566311338        0.73955230218944       -1.14415884242777
C           45.81822089512659        1.22755146294100       -2.35184017054746
C           46.85048573792188        1.94130736950997       -2.99223467922640
C           47.97853289482198        1.88529570166245       -2.17812782637226
N           47.64457936016807        1.09948804229565       -1.09388069090487
C           49.31521388879973        2.57348240771585       -2.41330990001542
C           50.48614725183062        2.09232004267038       -1.86356328786891
C           51.77439599991824        2.75735477503234       -2.02841515685729
C           52.69150585852736        2.03605580974270       -1.37325625831151
N           50.68917018072285        0.97940514138935       -1.09036289017947
C           52.01910245335063        0.89222531266054       -0.77268622740506
C           52.69621062966385       -0.07744141925432       -0.03943118230142
C           51.90407183481920       -1.24310623558467        0.57219601482848
C           52.39306729405488       -2.51022842001372        0.87886413012473
C           51.36022182448549       -3.24604440462361        1.49314383140463
C           50.23393983347468       -2.43042312758874        1.55753972780362
C           48.89789336992092       -2.76055883886951        2.20770216407815
C           48.89140422549653       -3.73663131909763        3.34234709394145
C           48.43689534596651       -5.05303852526846        3.17448630934860
C           48.46176860660498       -5.95685949181046        4.23280058353608
C           48.93126184968343       -5.55810624460857        5.48861019369710
C           48.94430367775988       -6.55146680609872        6.59183868717758
O           49.40650917390431       -6.05720668944588        7.75397320363800
O           48.58720547072033       -7.70336910023694        6.51336720925813
C           49.37221819139552       -4.24260708608697        5.67150696203384
C           49.34928162103581       -3.34419484716011        4.60788375860929
C           47.72651114075325       -2.15039172291700        1.80841769458122
C           46.43875780170890       -2.40604767688240        2.44498259933523
C           45.52177645534417       -1.65505232351697        1.82383924572299
C           46.19497120377454       -0.90007258788348        0.77580177301311
N           47.52351717386596       -1.22914971593418        0.81466577285483
N           50.56917150962276       -1.24406047715849        0.93696148019389
C           49.32537144076898        3.82709011929548       -3.23118397376920
C           48.86934055027771        5.03275058725937       -2.68043354109835
C           48.85207710756688        6.20137051677035       -3.43606969942373
C           49.29554242073489        6.18949852253384       -4.76249307363503
C           49.25519257943051        7.45486642187193       -5.53790024489268
O           49.70149675880788        7.32537572480851       -6.79996432311732
O           48.87060837235806        8.52559677789663       -5.13022230698083
C           49.76360022933540        4.99411422622969       -5.31995250040496
C           49.78271413707962        3.82881808631722       -4.55747706957118
H           44.81488389844912        1.07708541504704       -2.72027449543396
H           46.79219918302505        2.44775936151710       -3.94481931683258
H           48.30506258745676        0.78522819702580       -0.39274770112859
H           51.96236737837752        3.67014421708512       -2.56626244548030
H           53.73805324604029        2.27251763553003       -1.30309689723499
H           53.39535461602692       -2.85481407483751        0.67498285895972
H           51.41675677849424       -4.26245511081586        1.85532999033866
H           48.07233096558474       -5.36423991129958        2.20018471688800
H           48.11714790219445       -6.97673624462464        4.08030283437878
H           49.35603789139964       -6.80792644336203        8.37297707384239
H           49.74087967102474       -3.91052097295658        6.63825837794473
H           49.68867459684435       -2.32198476090532        4.75095727274460
H           46.25089614563544       -3.06726404331381        3.27275642551463
H           44.47539104076634       -1.61817125658458        2.06886516768430
H           49.90892156602111       -0.50433780483711        0.72815833093673
H           48.52730872918450        5.04567778226196       -1.64971643109119
H           48.48662900451661        7.12460478656160       -2.99301424437390
H           49.61793259098122        8.21982555417745       -7.17726358567813