192
 energy: -352.111987496881 gnorm: 0.000390252145 xtb: 6.5.1 (b24c23e)
C           34.85874203718895       -0.08947422310953       -0.04102672919133
C           35.46826715557523       -1.33591166275170       -0.10025833787204
C           34.81660127820438       -2.60067110380890       -0.13945219099461
C           35.77901898738386       -3.56883275474779       -0.19361623751661
C           37.05019669591048       -2.92595923240239       -0.19932763754128
N           36.81175999864381       -1.58275967381576       -0.13390973201578
C           38.31375310517095       -3.52653739329938       -0.23301352561353
C           39.53060897456227       -2.84063127243792       -0.19527651366149
C           40.82803096923263       -3.48570723525639       -0.29213157210546
C           41.74882855862744       -2.50174908810537       -0.23453674733878
N           39.68509829301158       -1.49214179062355       -0.09838907438437
C           41.01368782181527       -1.25743739731255       -0.11131764093261
C           41.64824181453432       -0.00273386430449       -0.03645095316379
C           41.01416688193325        1.25051878393021        0.03840328450052
C           41.65857645705689        2.50980389505594        0.16611406121848
C           40.69206311758857        3.47433456135957        0.23506513625925
C           39.42556931692916        2.83321922073537        0.14129789707100
C           38.16246979044195        3.43335711386269        0.19118211967791
C           38.13005874773142        4.90920692706350        0.31630687542288
C           38.70895053429590        5.71965269976347       -0.66423596042184
C           38.68064934519252        7.09626047517079       -0.53837745597695
C           38.07806556113844        7.68924308610646        0.57277194491445
C           38.08043604105857        9.16867978113610        0.66673492997286
O           37.48359935958074        9.63747033533424        1.77310686159478
O           38.56589650885425        9.90164743976330       -0.15699745913042
C           37.49831500292212        6.88496789392258        1.55450084921104
C           37.52306668522378        5.50768502375223        1.42380896862253
C           36.94543160440669        2.74528197902458        0.13874512988201
C           35.64104183675680        3.38985394380392        0.12654188361685
C           34.72722248677793        2.40118502842860        0.05903168817750
C           35.47193389911904        1.15469152569405        0.02210565537444
N           36.80450391988323        1.40105370717089        0.06275598715557
N           39.67214983118892        1.49079808534045        0.02887487925470
C           38.34302134636203       -5.00610610005804       -0.31979414028355
C           37.77278321665435       -5.66052903248507       -1.41482532176586
C           37.79623277731197       -7.04159352105168       -1.49994796999633
C           38.38711844072593       -7.79286360934217       -0.48360369158527
C           38.43320214709409       -9.27408771668040       -0.52488708443171
O           37.87044984627953       -9.79836067238293       -1.62436470416219
O           38.92183305746278       -9.96367302407480        0.33351805979140
C           38.95618577825563       -7.14341555232450        0.61355968097620
C           38.93691184436068       -5.76322171792440        0.69355885411317
H           33.77345598146261       -0.09859264262585       -0.04317959725434
H           33.74727979254965       -2.73821584417063       -0.12108084626514
H           35.62788981933966       -4.63581160787541       -0.21795910416546
H           37.53692608181196       -0.87376806831910       -0.10720529473419
H           40.99041449607874       -4.54528945609530       -0.40504519786057
H           42.82273155974310       -2.58401621070585       -0.28256673876510
H           42.72647505275091        2.65016110630040        0.21170149433842
H           40.84078487374011        4.53514053331881        0.35345441722413
H           39.16511867523869        5.26249464127916       -1.53502313917248
H           39.12366128168777        7.73087136175319       -1.29807002555489
H           37.52895370702566       10.60730370617336        1.75915039962078
H           37.03179203572409        7.34063652767364        2.41987532193519
H           37.08550214268783        4.88260029137341        2.19399386580794
H           35.47308243472818        4.45451752194160        0.15041161538556
H           33.65157034255795        2.47631017755203        0.02861744682089
H           38.94962379422645        0.78099848513585       -0.03292173583850
H           37.32539003347931       -5.07683265221063       -2.21154458920154
H           37.35716309149477       -7.54105681164576       -2.35547742355446
H           37.94361360824638      -10.76535077854733       -1.57504772521834
H           39.40999463663867       -7.73725571666199        1.39936848929713
H           39.36792155538751       -5.26142630472720        1.55234899053796
C           63.36617872023179        0.07164562554461       -0.05979075507638
C           62.77993957654171        1.29408460289925        0.24107506163470
C           63.45464758938964        2.51025800901336        0.54422627092583
C           62.51007956051944        3.47051004635008        0.77270360759013
C           61.22718714152359        2.87488085899339        0.60331621192244
N           61.44114893073569        1.56158760559002        0.29483640894496
C           59.97422514093813        3.48260569152266        0.73802747636899
C           58.74614507897851        2.83266154673582        0.58612806948330
C           57.46086429878387        3.50456956949390        0.65761613868441
C           56.52282716660440        2.55561674179429        0.46059610629140
N           58.56791188634706        1.50810553710598        0.33223214416911
C           57.23498362906292        1.30782301858558        0.26277895692180
C           56.57821476488376        0.07784721611257        0.06931585707551
C           57.19148577496203       -1.17222981319528       -0.13060562397966
C           56.52774432360936       -2.41649668226195       -0.29877667082205
C           57.47749887785077       -3.37899524513610       -0.50123661862823
C           58.75224280058463       -2.74827948147728       -0.47671502445239
C           60.00316240959678       -3.35152034028350       -0.64932777242198
C           60.00950162345384       -4.80365028867604       -0.94308797767130
C           59.37026279210824       -5.29715275869010       -2.08403322285279
C           59.38305699489054       -6.65148605111962       -2.36134579265311
C           60.03026697884069       -7.53999033722364       -1.50046702847942
C           60.01595397316873       -8.98269113937990       -1.84100476907759
O           60.66430515184840       -9.75090470072349       -0.95255624650152
O           59.48033391205310       -9.44593146308684       -2.81577958974032
C           60.66669076300681       -7.05344894523301       -0.35808734019443
C           60.65719080917614       -5.69677143184770       -0.08533622342603
C           61.23071604459170       -2.68460267063599       -0.57580434217509
C           62.51997956547325       -3.31178964505677       -0.82381850223777
C           63.45033611761821       -2.35046088442057       -0.65844443978557
C           62.73032493579758       -1.13509845182771       -0.32021869524097
N           61.39582231634552       -1.37143989471412       -0.29048617418014
N           58.52842364386247       -1.41903169238736       -0.23547212205255
C           59.96473403213860        4.92773538367528        1.06791834589462
C           60.54740596933691        5.85807399438009        0.20360855557846
C           60.53555409746560        7.20760128093506        0.51060549863634
C           59.94428804490598        7.64844356968971        1.69490735331938
C           59.90658880448080        9.08197034611299        2.07078024088588
O           60.48310879573574        9.88956065516547        1.16774273107105
O           59.41175065535373        9.50657067671678        3.08384946814551
C           59.36421479240624        6.72192507793966        2.56358083324987
C           59.37186080377031        5.37507978746312        2.25192037197953
H           64.45106786916952        0.06749677079079       -0.09012063617943
H           64.52646540731939        2.62035609781669        0.58657066289655
H           62.68069820578090        4.50008560656179        1.04246885785449
H           60.70287301365655        0.88472078025248        0.13349496582287
H           57.31764154584674        4.56022448251290        0.82168195849608
H           55.45051981962020        2.66537417403484        0.44666392624879
H           55.45866470523367       -2.55055510583195       -0.26645325423736
H           57.31240868028811       -4.43391386738872       -0.64751034999508
H           58.88039816075204       -4.60794740623215       -2.76255575937259
H           58.89501346386990       -7.03958956569169       -3.24865952207866
H           60.60882410754146      -10.67459390536210       -1.24678462226093
H           61.16685484684550       -7.73977845743693        0.31493879375091
H           61.14080866606471       -5.32086417863528        0.80918120744861
H           62.66702306982003       -4.34343976421921       -1.10014681360559
H           64.52202198131117       -2.42333716863213       -0.75731682693640
H           59.26187979516674       -0.72265820458690       -0.15292203623545
H           60.99413222894219        5.51819932465575       -0.72402669173637
H           60.98309929014587        7.92353474114464       -0.16861225923105
H           60.41387452809187       10.80438567730509        1.48582402517241
H           58.91040798305103        7.07501166986316        3.48307910705116
H           58.93103450480184        4.65601208678510        2.93290575485217
C           43.05887558385455        0.01523216318953       -0.02839404507454
C           44.27505294787289        0.03288313931865       -0.01444334764553
C           53.95057749664891        0.08454336695421        0.07545176943283
C           55.16695355216946        0.08228934953382        0.07696413435004
C           45.68497194260648        0.04598503122747        0.00365413315578
C           46.30765476820599        1.14093139833722       -0.62247231209759
C           45.65796518065286        2.19586737928565       -1.31495015550755
C           46.62000539783529        3.04657480671657       -1.78599333266103
C           47.88677611524622        2.54043724844724       -1.38507462176342
N           47.64740039178398        1.38442975732508       -0.69191139553459
C           49.14591229760963        3.08790151623659       -1.65959221982144
C           50.37149938999591        2.53262785836020       -1.28492206680593
C           51.65455791745041        3.16729396097278       -1.53036900171020
C           52.59358332798055        2.33098215817118       -1.04259313020398
N           50.55124068441884        1.34808263568530       -0.64046795091149
C           51.88389687286048        1.19267081570931       -0.49273322609783
C           52.53996953936969        0.08318430288687        0.07224418377084
C           51.91689810682093       -1.04423381185828        0.63773361346232
C           52.56753581126063       -2.16951666152289        1.20744098707247
C           51.60519273756431       -3.01825769834713        1.68137292335318
C           50.33703373189617       -2.43010490339438        1.42278439175710
C           49.07873325660216       -2.95597649542437        1.74069964817609
C           49.06967599863295       -4.23674342003458        2.48788120765237
C           48.47378172903022       -5.37505670096281        1.93848459083528
C           48.46771276527034       -6.56685870760751        2.63949638747963
C           49.05246489917649       -6.64210807682258        3.90509382990319
C           49.01754713751966       -7.94094251162450        4.61928857877062
O           49.59972625286947       -7.90486149330972        5.82762030085535
O           48.52252592814438       -8.94662452988897        4.17818734116611
C           49.64700793557453       -5.50806523523989        4.45908702166421
C           49.65704851200343       -4.31779768889755        3.75324161668640
C           47.85134232218933       -2.37277518533249        1.42042496209960
C           46.56603429103888       -2.92169043406416        1.81526441712866
C           45.62736867270510       -2.08707388048642        1.32392762326841
C           46.33986325111437       -1.02487119004182        0.64080002576154
N           47.67269381114185       -1.21727143321969        0.72416203385759
N           50.57579957943361       -1.24539967266534        0.78011489749660
C           49.16299069412536        4.35711008425219       -2.42588711120396
C           48.54956826007238        5.50592659370489       -1.91932759032314
C           48.56882314222233        6.68418871521738       -2.64296471686561
C           49.19697642705120        6.73514446104494       -3.88876708927619
C           49.18701053828892        8.01977226344549       -4.62893281110327
O           49.82276583328434        7.96413331323189       -5.80905222085438
O           48.66603151018649        9.03024755965518       -4.23050443640982
C           49.80970643711639        5.59059136442477       -4.39984420938532
C           49.79317948177074        4.41396049987438       -3.67200529671364
H           44.59087795008499        2.27963293227445       -1.44321514624007
H           46.46744917565534        3.93963637068364       -2.36959535997406
H           48.37006873679786        0.78911924924725       -0.30126371166410
H           51.79561048433966        4.12785497890983       -1.99858853956199
H           53.66481921201060        2.45155495230767       -1.04252563726458
H           53.63608400505453       -2.30553944230424        1.24729984732738
H           51.75850857382840       -3.97139506044324        2.16043080802936
H           48.02978506021903       -5.32171651483062        0.95102957527566
H           48.01115108596950       -7.45523804506035        2.21712129277316
H           49.53356330904867       -8.78758960543014        6.22672364941227
H           50.09867983468038       -5.56060441457853        5.44265512027539
H           50.10714069032936       -3.43339356317457        4.19013353967898
H           46.42288406396048       -3.81515367211949        2.40089031775410
H           44.55522433890958       -2.15438085807439        1.41476488184799
H           49.85275969241435       -0.61023357224726        0.45900722099362
H           48.07372318230239        5.47350735957770       -0.94575581714235
H           48.09940063746166        7.58081456107640       -2.25330033405091
H           49.77162387816323        8.83893810597482       -6.22731111424944
H           50.29594664848155        5.62442506438207       -5.36760007338096
H           50.25795173421604        3.52118433513513       -4.07487581100028
