264
 energy: -508.022622471638 gnorm: 0.877016417126 xtb: 6.5.1 (b24c23e)
Cu          45.44819699999999        0.09793600000000       -0.55410000000000
C           42.10374099999999        0.25373100000000       -0.46566600000000
C           42.75516200000000        1.41596200000000       -0.36453500000000
C           42.09241299999999        2.71254800000000       -0.29333800000000
C           43.02409400000000        3.63956900000000       -0.16992600000000
C           44.33540700000000        2.97681700000000       -0.14331400000000
N           44.17139899999999        1.56439600000000       -0.27715200000000
C           45.52186499999999        3.60220100000000        0.00508800000000
C           45.55776300000000        5.07238000000000        0.18108400000000
C           45.06897499999999        5.65878900000000        1.35976000000000
C           45.11335099999999        7.05411100000000        1.53586600000000
C           44.59377100000000        7.67527200000000        2.77412800000000
O           44.64463300000000        9.05685700000000        2.94107700000000
O           44.10027100000000        6.96117000000000        3.68868500000000
C           45.66090400000000        7.85352400000000        0.51734100000000
C           46.15469000000000        7.26970000000000       -0.65222600000000
C           46.10586399999999        5.88490700000000       -0.82092900000000
C           46.81984299999999        2.87752200000000        0.01145700000000
C           48.09750800000000        3.49404300000000        0.38906000000000
C           49.04056799999999        2.58430900000000        0.25130400000000
N           46.97408999999999        1.63754200000000       -0.33924000000000
C           48.37175200000000        1.37534600000000       -0.21354500000000
C           48.97671099999999        0.22064600000000       -0.53631100000000
C           48.22408900000000       -0.97057000000000       -0.98832100000000
C           48.76384000000000       -1.99214500000000       -1.64099900000000
C           47.73018700000000       -2.99667500000000       -1.80000700000000
C           46.62843099999999       -2.52367100000000       -1.22899600000000
N           46.85038500000000       -1.21964500000000       -0.68982700000000
C           45.35686199999999       -3.28125900000000       -1.10434600000000
C           45.39277100000000       -4.75610100000000       -1.25979900000000
C           46.13744600000000       -5.53673900000000       -0.36428000000000
C           46.18906400000000       -6.92330400000000       -0.51648900000000
C           45.50331800000000       -7.54149900000000       -1.56507500000000
C           44.75838300000000       -6.77440200000000       -2.47885900000000
C           44.03368400000000       -7.42318600000000       -3.59379000000000
O           43.29613400000000       -6.65639700000000       -4.49231000000000
O           44.07626499999999       -8.67475900000000       -3.74080800000000
C           44.71260600000000       -5.37797500000000       -2.32019300000000
C           44.18907100000000       -2.65939100000000       -0.85169300000000
C           42.88759300000000       -3.30094500000000       -0.67286900000000
C           42.01677100000000       -2.32437500000000       -0.50592700000000
C           42.75352500000000       -1.06295000000000       -0.56364100000000
N           44.02020300000000       -1.24597500000000       -0.76484000000000
H           41.02015200000000        0.27105400000000       -0.47500900000000
H           41.02719600000000        2.89966500000000       -0.33869900000000
H           42.82630700000000        4.70137400000000       -0.10315700000000
H           44.65705900000000        5.02320200000000        2.13480000000000
H           44.29138200000000        9.49239300000000        3.78476400000000
H           45.70982100000000        8.92989100000000        0.62359900000000
H           46.57685200000000        7.89295600000000       -1.42995300000000
H           46.49297100000000        5.44469100000000       -1.73177800000000
H           48.25884400000000        4.51002300000000        0.72472400000000
H           50.09293899999999        2.73601000000000        0.45112000000000
H           49.79019000000000       -2.07972800000000       -1.97143400000000
H           47.84764600000000       -3.96294800000000       -2.27320600000000
H           46.67433600000000       -5.07053700000000        0.45286700000000
H           46.76261000000000       -7.52115500000000        0.18004100000000
H           45.55844000000000       -8.61863400000000       -1.66136200000000
H           42.79612200000000       -7.09059000000000       -5.25892200000000
H           44.15295800000000       -4.76781300000000       -3.01911600000000
H           42.65552399999999       -4.35779900000000       -0.67196300000000
H           40.95326400000000       -2.44931600000000       -0.35010600000000
Cu          89.89421699999998        0.34244700000000       -0.51310100000000
C           93.23867300000001        0.16632700000000       -0.48032200000000
C           92.58725199999999       -0.96532500000000       -0.76382200000000
C           93.25000100000000       -2.21422000000000       -1.11944200000000
C           92.31832000000000       -3.13079300000000       -1.30515900000000
C           91.00700700000000       -2.51296900000000       -1.06382400000000
N           91.17101499999998       -1.13414300000000       -0.72963400000000
C           89.82054900000000       -3.15255500000000       -1.12752800000000
C           89.78465100000000       -4.59973200000000       -1.44070500000000
C           90.27343899999998       -5.53853300000000       -0.51777100000000
C           90.22906299999998       -6.91498200000000       -0.80642700000000
C           90.74864199999999       -7.90607000000000        0.16149800000000
O           90.69778099999999       -9.26654700000000       -0.13133300000000
O           91.24214300000000       -7.52933700000000        1.25896300000000
C           89.68151000000000       -7.33844800000000       -2.03000000000000
C           89.18772400000000       -6.40506300000000       -2.94516600000000
C           89.23654900000000       -5.04098100000000       -2.65294700000000
C           88.52257100000000       -2.46958900000000       -0.88512900000000
C           87.24490600000000       -3.17555800000000       -0.72927800000000
C           86.30184599999998       -2.27064700000000       -0.56276000000000
N           88.36832299999999       -1.18303700000000       -0.81218500000000
C           86.97066100000001       -0.97618100000000       -0.60784100000000
C           86.36570299999998        0.22064600000000       -0.53631100000000
C           87.11832499999998        1.49414800000000       -0.57504500000000
C           86.57857400000000        2.67274200000000       -0.85880600000000
C           87.61222700000000        3.67419700000000       -0.68145700000000
C           88.71398300000000        3.04080900000000       -0.29596100000000
N           88.49202900000000        1.63223700000000       -0.21163200000000
C           89.98555199999998        3.71630400000000        0.06898300000000
C           89.94964299999999        5.16118800000000        0.40310000000000
C           89.20496799999999        5.60702700000000        1.50427100000000
C           89.15335000000000        6.96740400000000        1.81266100000000
C           89.83909600000000        7.89381900000000        1.02306900000000
C           90.58403100000000        7.46673800000000       -0.09095000000000
C           91.30873000000000        8.44370900000000       -0.93328000000000
O           92.04628000000000        8.01194000000000       -2.03277000000000
O           91.26614900000000        9.67478400000000       -0.66401600000000
C           90.62980800000000        6.09493100000000       -0.39645300000000
C           91.15334299999999        3.04603600000000        0.10497500000000
C           92.45482100000000        3.59417300000000        0.48328200000000
C           93.32564300000000        2.61656100000000        0.32255400000000
C           92.58888899999999        1.44295300000000       -0.14345900000000
N           91.32220999999998        1.68159500000000       -0.27395500000000
H           94.32226099999998        0.15299900000000       -0.49480400000000
H           94.31521699999999       -2.37630700000000       -1.22335700000000
H           92.51610700000001       -4.15630400000000       -1.58838400000000
H           90.68535499999999       -5.19051200000000        0.42219700000000
H           91.05103200000001       -9.95345900000000        0.52414600000000
H           89.63259300000000       -8.39060500000000       -2.28064600000000
H           88.76556200000000       -6.74054900000000       -3.88365200000000
H           88.84944299999999       -4.32773800000000       -3.37038800000000
H           87.08356999999999       -4.24545800000000       -0.74336700000000
H           85.24947499999999       -2.47922800000000       -0.42335400000000
H           85.55222400000000        2.86331800000000       -1.14260000000000
H           87.49476799999998        4.74197000000000       -0.81359300000000
H           88.66807799999998        4.89978400000000        2.12465800000000
H           88.57980399999998        7.30536100000000        2.66610400000000
H           89.78397299999999        8.94344900000000        1.28339200000000
H           92.54629199999999        8.67244100000000       -2.61582800000000
H           91.18945500000000        5.74611800000000       -1.25617400000000
H           92.68689000000001        4.59292800000000        0.82886600000000
H           94.38915000000000        2.68384200000000        0.51060600000000
C           54.11393700000000        0.22195800000000       -0.52787900000000
C           52.90499799999999        0.20850300000000       -0.53632600000000
C           51.48346900000000        0.21732200000000       -0.54830900000000
C           50.27179999999999        0.22476100000000       -0.53744600000000
C           55.53054199999999        0.21528300000000       -0.52734600000000
C           56.75123800000000        0.22476100000000       -0.53744600000000
C           68.27512700000000        0.22195800000000       -0.52787900000000
C           67.06618800000000        0.20850300000000       -0.53632600000000
C           65.64465900000000        0.21732200000000       -0.54830900000000
C           64.43298900000001        0.22476100000000       -0.53744600000000
C           69.69173100000000        0.21528300000000       -0.52734600000000
C           70.91242699999999        0.22476100000000       -0.53744600000000
C           82.43631700000000        0.22195800000000       -0.52787900000000
C           81.22737700000000        0.20850300000000       -0.53632600000000
C           79.80584899999999        0.21732200000000       -0.54830900000000
C           78.59417899999998        0.22476100000000       -0.53744600000000
C           83.85292099999999        0.21528300000000       -0.52734600000000
C           85.07361700000000        0.22476100000000       -0.53744600000000
Cu          60.37176500000000       -0.19412900000000       -0.03099300000000
C           57.44978800000000       -0.25742500000000        0.62439800000000
C           57.78669500000000       -1.26800300000000       -0.17788300000000
C           57.48321099999999       -1.32475800000000       -1.60959200000000
C           58.32576700000000       -2.16686700000000       -2.18824400000000
C           59.29848600000000       -2.58996500000000       -1.17809100000000
N           58.93787000000000       -2.05877900000000        0.09424000000000
C           60.52304500000000       -3.07487400000000       -1.45203600000000
C           60.80721799999999       -3.76901000000000       -2.73627200000000
C           59.94081200000000       -4.77259700000000       -3.20732500000000
C           60.20398000000000       -5.44244600000000       -4.41640300000000
C           59.28828899999999       -6.49410800000000       -4.91162200000000
O           59.56268899999999       -7.15915900000000       -6.10401800000000
O           58.25171899999999       -6.79731200000000       -4.26064000000000
C           61.35232700000000       -5.10098500000000       -5.14980400000000
C           62.21968200000000       -4.11092500000000       -4.68416600000000
C           61.95241100000000       -3.44865500000000       -3.48514800000000
C           61.65413600000000       -2.67500900000000       -0.58949200000000
C           62.78746899999999       -3.52507800000000       -0.22037100000000
C           63.69456300000000       -2.74986400000000        0.35530400000000
N           61.86898099999999       -1.43479600000000       -0.28544500000000
C           63.15423599999999       -1.39188900000000        0.32209100000000
C           63.81157200000000       -0.25742500000000        0.62439800000000
C           63.20256200000000        1.07872000000000        0.40267700000000
C           63.87431200000000        2.21553900000000        0.26666900000000
C           62.89641800000000        3.27354000000000        0.04027900000000
C           61.69048100000000        2.71358800000000        0.06639400000000
N           61.80161700000000        1.30776100000000        0.28973700000000
C           60.38993200000000        3.43687800000000       -0.08161800000000
C           60.38222400000000        4.91556600000000       -0.17073100000000
C           59.89423599999999        5.55084800000000       -1.32186000000000
C           59.88533400000000        6.94421100000000       -1.40417600000000
C           60.36266100000000        7.71426000000000       -0.34071400000000
C           60.85522499999999        7.09484400000000        0.82209600000000
C           61.36167300000000        7.90539200000000        1.95153800000000
O           61.85007800000000        7.28414400000000        3.09807600000000
O           61.35636500000000        9.16466200000000        1.88693300000000
C           60.85945299999999        5.69075400000000        0.89832200000000
C           59.22105100000000        2.76321500000000       -0.06939300000000
C           57.86959700000000        3.32239400000000        0.01911200000000
C           57.05293699999999        2.29520200000000        0.21968900000000
C           57.87245700000000        1.08393500000000        0.21801000000000
N           59.12451599999999        1.35509600000000        0.06295800000000
H           56.71044299999999       -0.76756500000000       -2.12320000000000
H           58.36173300000000       -2.36669800000000       -3.25126000000000
H           59.06596399999999       -5.03427300000000       -2.62406600000000
H           58.94218300000000       -7.88018100000000       -6.45237600000000
H           61.58214600000000       -5.59854600000000       -6.08355100000000
H           63.10185300000000       -3.85423800000000       -5.25637300000000
H           62.63414000000000       -2.67695200000000       -3.14987100000000
H           62.88649699999999       -4.58766800000000       -0.39840000000000
H           64.65965000000000       -3.07551700000000        0.71988400000000
H           64.94891300000000        2.33615100000000        0.29497300000000
H           63.11854200000000        4.32078900000000       -0.11490600000000
H           59.52379200000000        4.96588300000000       -2.15486700000000
H           59.50823600000000        7.42936900000000       -2.29523000000000
H           60.34581300000000        8.79336800000000       -0.42899700000000
H           62.19889800000000        7.82989500000000        3.87697500000000
H           61.22879099999999        5.19401200000000        1.78757100000000
H           57.57799900000000        4.36427900000000       -0.00371800000000
H           55.98413500000000        2.35742200000000        0.37553600000000
Cu          74.53295500000000       -0.19412900000000       -0.03099300000000
C           71.61097800000000       -0.25742500000000        0.62439800000000
C           71.94788500000000       -1.26800300000000       -0.17788300000000
C           71.64440100000000       -1.32475800000000       -1.60959200000000
C           72.48695699999999       -2.16686700000000       -2.18824400000000
C           73.45967600000000       -2.58996500000000       -1.17809100000000
N           73.09905999999998       -2.05877900000000        0.09424000000000
C           74.68423400000000       -3.07487400000000       -1.45203600000000
C           74.96840800000000       -3.76901000000000       -2.73627200000000
C           74.10200200000000       -4.77259700000000       -3.20732500000000
C           74.36516899999999       -5.44244600000000       -4.41640300000000
C           73.44947900000000       -6.49410800000000       -4.91162200000000
O           73.72387800000000       -7.15915900000000       -6.10401800000000
O           72.41290900000000       -6.79731200000000       -4.26064000000000
C           75.51351600000000       -5.10098500000000       -5.14980400000000
C           76.38087199999998       -4.11092500000000       -4.68416600000000
C           76.11360100000000       -3.44865500000000       -3.48514800000000
C           75.81532600000000       -2.67500900000000       -0.58949200000000
C           76.94865799999999       -3.52507800000000       -0.22037100000000
C           77.85575300000001       -2.74986400000000        0.35530400000000
N           76.03017100000000       -1.43479600000000       -0.28544500000000
C           77.31542600000000       -1.39188900000000        0.32209100000000
C           77.97276100000001       -0.25742500000000        0.62439800000000
C           77.36375099999999        1.07872000000000        0.40267700000000
C           78.03550199999999        2.21553900000000        0.26666900000000
C           77.05760799999999        3.27354000000000        0.04027900000000
C           75.85167100000000        2.71358800000000        0.06639400000000
N           75.96280700000000        1.30776100000000        0.28973700000000
C           74.55112200000001        3.43687800000000       -0.08161800000000
C           74.54341400000000        4.91556600000000       -0.17073100000000
C           74.05542600000000        5.55084800000000       -1.32186000000000
C           74.04652400000001        6.94421100000000       -1.40417600000000
C           74.52385099999999        7.71426000000000       -0.34071400000000
C           75.01641400000000        7.09484400000000        0.82209600000000
C           75.52286199999999        7.90539200000000        1.95153800000000
O           76.01126799999999        7.28414400000000        3.09807600000000
O           75.51755400000000        9.16466200000000        1.88693300000000
C           75.02064300000001        5.69075400000000        0.89832200000000
C           73.38224099999999        2.76321500000000       -0.06939300000000
C           72.03078600000001        3.32239400000000        0.01911200000000
C           71.21412700000000        2.29520200000000        0.21968900000000
C           72.03364699999999        1.08393500000000        0.21801000000000
N           73.28570499999999        1.35509600000000        0.06295800000000
H           70.87163299999999       -0.76756500000000       -2.12320000000000
H           72.52292299999999       -2.36669800000000       -3.25126000000000
H           73.22715399999998       -5.03427300000000       -2.62406600000000
H           73.10337299999999       -7.88018100000000       -6.45237600000000
H           75.74333600000000       -5.59854600000000       -6.08355100000000
H           77.26304300000000       -3.85423800000000       -5.25637300000000
H           76.79532899999998       -2.67695200000000       -3.14987100000000
H           77.04768700000000       -4.58766800000000       -0.39840000000000
H           78.82083900000001       -3.07551700000000        0.71988400000000
H           79.11010300000000        2.33615100000000        0.29497300000000
H           77.27973200000000        4.32078900000000       -0.11490600000000
H           73.68498099999999        4.96588300000000       -2.15486700000000
H           73.66942500000000        7.42936900000000       -2.29523000000000
H           74.50700300000000        8.79336800000000       -0.42899700000000
H           76.36008799999999        7.82989500000000        3.87697500000000
H           75.38998100000001        5.19401200000000        1.78757100000000
H           71.73918900000000        4.36427900000000       -0.00371800000000
H           70.14532500000000        2.35742200000000        0.37553600000000
264
 energy: -508.371509061629 gnorm: 0.533171532752 xtb: 6.5.1 (b24c23e)
Cu          45.45330460439459        0.10996081854754       -0.55056341477763
C           42.10462796367240        0.23732479341762       -0.46676490070056
C           42.76102470443174        1.41753658229258       -0.36464440597430
C           42.09183075013273        2.70634964662951       -0.29398359489044
C           43.03313474841864        3.64173694102761       -0.16931408305717
C           44.33345346319676        2.97092209542976       -0.14424862147424
N           44.15252066291383        1.58150235772617       -0.27621380663995
C           45.53531338697628        3.60028093972006        0.00742890680222
C           45.56145077038130        5.07585625947195        0.18557926362640
C           45.06884201697205        5.66526027810685        1.35845061778969
C           45.11312449447328        7.06163490101741        1.53689028793945
C           44.58572734105195        7.67391760666876        2.79162173812773
O           44.64646488404383        9.04342731176140        2.93430249796269
O           44.10675107435321        6.97583698823699        3.67733804203335
C           45.66123116152503        7.85269468381688        0.51646170232301
C           46.15252994453962        7.26839267888121       -0.64832822002197
C           46.10570041171032        5.88746986534919       -0.81665171920324
C           46.81073094792033        2.89683095679408        0.01344085673163
C           48.08336506306893        3.50640471889116        0.38921221187426
C           49.03611986505580        2.57846789289503        0.24883410581258
N           46.97929213990860        1.63757111333526       -0.33362926243283
C           48.35581850629927        1.38420241334433       -0.20946381688495
C           48.94919584367769        0.20969735318611       -0.54346969792136
C           48.20754798005900       -0.96781609669448       -0.97999834638852
C           48.76431883967004       -2.01337469510625       -1.64805753574867
C           47.75044492695672       -2.99982588600764       -1.80354144207053
C           46.61843085385113       -2.51820018336914       -1.21850161866398
N           46.85230959504889       -1.22605732286944       -0.69720623405520
C           45.36958312673204       -3.27380979550959       -1.10383379146652
C           45.39858167194300       -4.75421477790333       -1.26412645955542
C           46.13672064640284       -5.53809042412740       -0.36850916734721
C           46.18445202812012       -6.92121134375252       -0.52173667056356
C           45.50060297319772       -7.53743892084394       -1.56823059338305
C           44.75416330355112       -6.77011126397322       -2.48337371664445
C           44.02866774488017       -7.43855976803363       -3.60377588058169
O           43.30480498465658       -6.65924746267277       -4.48043192123401
O           44.07272696307749       -8.65501582819723       -3.74220284862359
C           44.71315106456433       -5.37728447238171       -2.31739597548539
C           44.18777923502319       -2.65898445222216       -0.85085508038214
C           42.89461580041740       -3.29996628720138       -0.67430330746923
C           42.00749191064612       -2.31340198895293       -0.50447279899213
C           42.73421725643747       -1.05514207530961       -0.56326486232819
N           44.01956495924245       -1.25700184537135       -0.76420860466967
H           41.02085102767494        0.26567074741452       -0.47435286140405
H           41.02748756574425        2.89219478438377       -0.33928690796880
H           42.83559277586240        4.70219484170120       -0.10233984735935
H           44.65750878318831        5.02689927998611        2.13486145644743
H           44.29686666475246        9.46666582158823        3.76796110555386
H           45.70912090376425        8.92959581363953        0.62514797914852
H           46.57595837728523        7.89217054638720       -1.42852287332765
H           46.49194578768900        5.44446520123396       -1.72948669246542
H           48.25129042548150        4.51538040923895        0.72507097447573
H           50.09010713351947        2.72678347473575        0.44829895605442
H           49.78996875962830       -2.08394436005017       -1.97415546127380
H           47.85299792356304       -3.96318366103310       -2.27573601011283
H           46.67317042050502       -5.07040947592131        0.45097142363576
H           46.76047539379023       -7.52015205119148        0.17750457121560
H           45.55596659064838       -8.61689422640149       -1.66468662730157
H           42.81455386747711       -7.09318138506658       -5.23385848999352
H           44.15348190745136       -4.76848048710342       -3.01875002230422
H           42.66421171555267       -4.35668353330959       -0.67301983125868
H           40.94939334283173       -2.44284598909107       -0.34926594601904
Cu          89.88874089109710        0.32964884738232       -0.51402194150547
C           93.23787298880691        0.18244285874479       -0.47597771824078
C           92.58129662957427       -0.96669349957474       -0.76456780092233
C           93.25047210173680       -2.20793120809008       -1.11795400024384
C           92.30900192756935       -3.13289912983713       -1.30548446147974
C           91.00883872575692       -2.50721240555229       -1.06302308747100
N           91.18972295905037       -1.15017293530548       -0.73309291452195
C           89.80717618878936       -3.15156723477646       -1.12457829436061
C           89.78101145311251       -4.60446790549311       -1.43758489435005
C           90.27357578614392       -5.54421543965842       -0.52111862204317
C           90.22928643655185       -6.92242954216430       -0.80790494227764
C           90.75666189124016       -7.91045642063891        0.17845939788576
O           90.69595399373520       -9.25167511893494       -0.13336453606859
O           91.23568370695534       -7.53952809949660        1.24346688218988
C           89.68118131369457       -7.33737760445165       -2.03056507884455
C           89.18989147788982       -6.40508800501927       -2.94104998844490
C           89.23672604169985       -5.04478245794767       -2.64972870600462
C           88.53158515810756       -2.48885447605922       -0.88948257417521
C           87.25965922692821       -3.18730459192727       -0.73364469658749
C           86.30656304862802       -2.26385353147284       -0.56295906308522
N           88.36285917600682       -1.18425286485419       -0.80668493715679
C           86.98636888772937       -0.98632661000220       -0.60775405490351
C           86.39111706481829        0.23343529271036       -0.53946846292438
C           87.13504600094117        1.48888591757847       -0.56763311083209
C           86.57841863990893        2.69463798573205       -0.85858116708657
C           87.59240466382410        3.67838581228423       -0.68358132992303
C           88.72411828080460        3.03254612427811       -0.28796915941452
N           88.49043209480919        1.64038972817941       -0.21646837277283
C           89.97293806048552        3.70920554840878        0.06699300573010
C           89.94387843128766        5.16083108718522        0.39841442993838
C           89.20570870577643        5.60968978668062        1.50071227522325
C           89.15795769683820        6.96714184554948        1.80701179578229
C           89.84181163350860        7.89101859897415        1.01876242786071
C           90.58825732566649        7.46416204401257       -0.09662089505416
C           91.31375080418134        8.46148664271210       -0.93769198720426
O           92.03760419502534        8.01076776773864       -2.02061570280624
O           91.26967504059169        9.65659450502689       -0.67177867477664
C           90.62926204042014        6.09338148536582       -0.39403146503716
C           91.15445202023206        3.04529327950789        0.10564653293352
C           92.44765598981378        3.59354364850584        0.48166755001677
C           93.33479319595118        2.60555952244215        0.32025405748643
C           92.60817538190821        1.43510996159615       -0.14569354753286
N           91.32226725550382        1.69141686944055       -0.27031886849650
H           94.32159342813455        0.15791939835646       -0.49236191219745
H           94.31485583737539       -2.36896938665729       -1.22147510716681
H           92.50675370527848       -4.15728391006912       -1.58787376664223
H           90.68490338027270       -5.19402553488433        0.42104993860952
H           91.04554852371052       -9.92364723791065        0.51666187668908
H           89.63329019322295       -8.39083351399094       -2.27908838159489
H           88.76645398710816       -6.74027081269287       -3.88204058140927
H           88.85046021229921       -4.32826992794048       -3.36813601200775
H           87.09131027885509       -4.25061684238718       -0.74476518028803
H           85.25246035705774       -2.46941022077431       -0.42300701702177
H           85.55258140161870        2.86798155140863       -1.14366837672985
H           87.48952078513200        4.74303285564610       -0.81586664299215
H           88.66924376576301        4.90028157525645        2.12281691105169