      -----------------------------------------------------------      
     |                   =====================                   |     
     |                           x T B                           |     
     |                   =====================                   |     
     |                         S. Grimme                         |     
     |          Mulliken Center for Theoretical Chemistry        |     
     |                    University of Bonn                     |     
      -----------------------------------------------------------      

   * xtb version 6.5.1 (b24c23e) compiled by 'conda@728c89f4b128' on 2022-07-12

   xtb is free software: you can redistribute it and/or modify it under
   the terms of the GNU Lesser General Public License as published by
   the Free Software Foundation, either version 3 of the License, or
   (at your option) any later version.
   
   xtb is distributed in the hope that it will be useful,
   but WITHOUT ANY WARRANTY; without even the implied warranty of
   MERCHANTABILITY or FITNESS FOR A PARTICULAR PURPOSE.  See the
   GNU Lesser General Public License for more details.
   
   Cite this work as:
   * C. Bannwarth, E. Caldeweyher, S. Ehlert, A. Hansen, P. Pracht,
     J. Seibert, S. Spicher, S. Grimme, WIREs Comput. Mol. Sci., 2020, 11,
     e01493. DOI: 10.1002/wcms.1493
   
   for GFN2-xTB:
   * C. Bannwarth, S. Ehlert and S. Grimme., J. Chem. Theory Comput., 2019,
     15, 1652-1671. DOI: 10.1021/acs.jctc.8b01176
   for GFN1-xTB:
   * S. Grimme, C. Bannwarth, P. Shushkov, J. Chem. Theory Comput., 2017,
     13, 1989-2009. DOI: 10.1021/acs.jctc.7b00118
   for GFN0-xTB:
   * P. Pracht, E. Caldeweyher, S. Ehlert, S. Grimme, ChemRxiv, 2019, preprint.
     DOI: 10.26434/chemrxiv.8326202.v1
   for GFN-FF:
   * S. Spicher and S. Grimme, Angew. Chem. Int. Ed., 2020, 59, 15665-15673.
     DOI: 10.1002/anie.202004239
   
   for ALPB and GBSA implicit solvation:
   * S. Ehlert, M. Stahn, S. Spicher, S. Grimme, J. Chem. Theory Comput.,
     2021, 17, 4250-4261. DOI: 10.1021/acs.jctc.1c00471
   
   for DFT-D4:
   * E. Caldeweyher, C. Bannwarth and S. Grimme, J. Chem. Phys., 2017,
     147, 034112. DOI: 10.1063/1.4993215
   * E. Caldeweyher, S. Ehlert, A. Hansen, H. Neugebauer, S. Spicher,
     C. Bannwarth and S. Grimme, J. Chem. Phys., 2019, 150, 154122.
     DOI: 10.1063/1.5090222
   * E. Caldeweyher, J.-M. Mewes, S. Ehlert and S. Grimme, Phys. Chem. Chem. Phys.
     2020, 22, 8499-8512. DOI: 10.1039/D0CP00502A
   
   for sTDA-xTB:
   * S. Grimme and C. Bannwarth, J. Chem. Phys., 2016, 145, 054103.
     DOI: 10.1063/1.4959605
   
   in the mass-spec context:
   * V. Asgeirsson, C. Bauer and S. Grimme, Chem. Sci., 2017, 8, 4879.
     DOI: 10.1039/c7sc00601b
   * J. Koopman and S. Grimme, ACS Omega 2019, 4, 12, 15120-15133.
     DOI: 10.1021/acsomega.9b02011
   
   for metadynamics refer to:
   * S. Grimme, J. Chem. Theory Comput., 2019, 155, 2847-2862
     DOI: 10.1021/acs.jctc.9b00143
   
   for SPH calculations refer to:
   * S. Spicher and S. Grimme, J. Chem. Theory Comput., 2021, 17, 1701-1714
     DOI: 10.1021/acs.jctc.0c01306
   
   with help from (in alphabetical order)
   P. Atkinson, C. Bannwarth, F. Bohle, G. Brandenburg, E. Caldeweyher
   M. Checinski, S. Dohm, S. Ehlert, S. Ehrlich, I. Gerasimov, C. Hölzer
   A. Katbashev, J. Koopman, C. Lavigne, S. Lehtola, F. März, M. Müller,
   F. Musil, H. Neugebauer, J. Pisarek, C. Plett, P. Pracht, F. Pultar,
   J. Seibert, P. Shushkov, S. Spicher, M. Stahn, M. Steiner, T. Strunk,
   J. Stückrath, T. Rose, and J. Unsleber
   
 * started run on 2022/07/29 at 18:24:18.593     

           -------------------------------------------------
          |                Calculation Setup                |
           -------------------------------------------------

          program call               : xtb Fe_C2Py_C8_3.xyz --gfn 1 --opt -T 48
          hostname                   : cx3-14-28.cx3.hpc.ic.ac.uk
          coordinate file            : Fe_C2Py_C8_3.xyz
          omp threads                :                     1

   ID    Z sym.   atoms
    1   26 Fe     1, 59, 133
    2    6 C      2-6, 8-13, 15-19, 21-26, 28-33, 35-40, 60-64, 66-71, 73-77,
                  79-84, 86-91, 93-98, 117-132, 134-138, 140-145, 147-151,
                  153-158, 160-165, 167-172
    3    7 N      7, 14, 20, 27, 34, 41, 65, 72, 78, 85, 92, 99, 139, 146,
                  152, 159, 166, 173
    4    1 H      42-58, 100-116, 174-189

molecular fragmentation (1/2 indicates fragments):
111111111111111111111111111111111111111111111111111111111122222222222222
222222222222222222222222222222222222222222222222222222222222222222222222
222222222222222222222222222222222222222222222
# atoms in fragment 1/2:    58   131
 fragment masses (1/2) :      565.39     1321.93
CMA distance (Bohr)    :  51.406
constraining FC (au)   :  0.0500
########################################################################
[WARNING] Please study the warnings concerning your input carefully
-1- prog_main_parseArguments: Unknown option '-T' provided
########################################################################

           -------------------------------------------------
          |                 G F N 1 - x T B                 |
           -------------------------------------------------

        Reference                      10.1021/acs.jctc.7b00118
      * Hamiltonian:
        H0-scaling (s, p, d)           1.850000    2.250000    2.000000
        zeta-weighting                 0.000000
      * Dispersion:
        s8                             2.400000
        a1                             0.630000
        a2                             5.000000
        s9                             0.000000
      * Repulsion:
        kExp                           1.500000
        rExp                           1.000000
      * Coulomb:
        alpha                          2.000000
        third order                    atomic
        anisotropic                    false
      * Halogen bond correction:
        rad-scale                      1.300000
        damping                        0.440000


          ...................................................
          :                      SETUP                      :
          :.................................................:
          :  # basis functions                 674          :
          :  # atomic orbitals                 671          :
          :  # shells                          381          :
          :  # electrons                       636          :
          :  # halogen bonds                     0          :
          :  max. iterations                   250          :
          :  Hamiltonian                  GFN1-xTB          :
          :  restarted?                      false          :
          :  GBSA solvation                  false          :
          :  PC potential                    false          :
          :  electronic temp.          300.0000000     K    :
          :  accuracy                    1.0000000          :
          :  -> integral cutoff          0.2500000E+02      :
          :  -> integral neglect         0.1000000E-07      :
          :  -> SCF convergence          0.1000000E-05 Eh   :
          :  -> wf. convergence          0.2000000E-04 e    :
          :  Broyden damping             0.4000000          :
          ...................................................

 iter      E             dE          RMSdq      gap      omega  full diag
   1   -313.7436926 -0.313744E+03  0.123E+01    0.03       0.0  T
   2   -158.4182301  0.155325E+03  0.140E+01    0.04       1.0  T
   3   -239.6441057 -0.812259E+02  0.979E+00    0.01       1.0  T
   4    884.1372578  0.112378E+04  0.172E+01    0.03       1.0  T
   5   1916.9170727  0.103278E+04  0.210E+01    0.04       1.0  T
   6    558.8025772 -0.135811E+04  0.153E+01    0.02       1.0  T
   7   -166.8744236 -0.725677E+03  0.938E+00    0.01       1.0  T
   8   -259.5805094 -0.927061E+02  0.764E+00    0.12       1.0  T
   9   -288.7090596 -0.291286E+02  0.740E+00    0.04       1.0  T
  10   -331.6625764 -0.429535E+02  0.482E+00    0.13       1.0  T
  11   -335.6363862 -0.397381E+01  0.427E+00    0.12       1.0  T
  12   -337.1391170 -0.150273E+01  0.400E+00    0.03       1.0  T
  13   -334.5221067  0.261701E+01  0.430E+00    0.11       1.0  T
  14   -327.3590181  0.716309E+01  0.492E+00    0.06       1.0  T
  15   -334.0244614 -0.666544E+01  0.428E+00    0.09       1.0  T
  16   -294.1492002  0.398753E+02  0.639E+00    0.00       1.0  T
  17   -296.3523464 -0.220315E+01  0.512E+00    0.04       1.0  T
  18   -288.2102026  0.814214E+01  0.576E+00    0.18       1.0  T
  19   -292.7527539 -0.454255E+01  0.552E+00    0.05       1.0  T
  20   -308.1731959 -0.154204E+02  0.569E+00    0.01       1.0  T
  21   -314.8479815 -0.667479E+01  0.579E+00    0.04       1.0  T
  22   -318.0937807 -0.324580E+01  0.554E+00    0.01       1.0  T
  23   -299.9492414  0.181445E+02  0.717E+00    0.16       1.0  T
  24   -316.9044422 -0.169552E+02  0.568E+00    0.02       1.0  T
  25   -299.9221110  0.169823E+02  0.713E+00    0.24       1.0  T
  26   -314.9577688 -0.150357E+02  0.582E+00    0.13       1.0  T
  27   -314.4187943  0.538974E+00  0.587E+00    0.11       1.0  T
  28   -291.2367774  0.231820E+02  0.725E+00    0.11       1.0  T
  29   -292.5255743 -0.128880E+01  0.716E+00    0.08       1.0  T
  30   -306.0513731 -0.135258E+02  0.627E+00    0.04       1.0  T
  31   -308.9720826 -0.292071E+01  0.593E+00    0.02       1.0  T
  32   -310.3053557 -0.133327E+01  0.585E+00    0.03       1.0  T
  33   -309.9735810  0.331775E+00  0.587E+00    0.03       1.0  T
  34   -315.3217128 -0.534813E+01  0.540E+00    0.04       1.0  T
  35   -311.9248752  0.339684E+01  0.582E+00    0.04       1.0  T
  36   -320.3855067 -0.846063E+01  0.504E+00    0.03       1.0  T
  37   -320.2364259  0.149081E+00  0.505E+00    0.03       1.0  T
  38   -320.3679763 -0.131550E+00  0.503E+00    0.03       1.0  T
  39   -320.7556838 -0.387708E+00  0.499E+00    0.03       1.0  T
  40   -322.2356552 -0.147997E+01  0.499E+00    0.01       1.0  T
  41   -323.2416427 -0.100599E+01  0.483E+00    0.04       1.0  T
  42   -325.0556263 -0.181398E+01  0.479E+00    0.06       1.0  T
  43   -341.1648093 -0.161092E+02  0.264E+00    0.01       1.0  T
  44   -342.6646928 -0.149988E+01  0.221E+00    0.01       1.0  T
  45   -340.5199573  0.214474E+01  0.268E+00    0.02       1.0  T
  46   -340.3284299  0.191527E+00  0.268E+00    0.02       1.0  T
  47   -343.0969851 -0.276856E+01  0.208E+00    0.01       1.0  T
  48   -344.1292166 -0.103223E+01  0.186E+00    0.04       1.0  T
  49   -341.1268157  0.300240E+01  0.248E+00    0.00       1.0  T
  50   -339.7452985  0.138152E+01  0.271E+00    0.03       1.0  T
  51   -344.2247865 -0.447949E+01  0.179E+00    0.04       1.0  T
  52   -343.6005743  0.624212E+00  0.199E+00    0.02       1.0  T
  53   -343.7078063 -0.107232E+00  0.197E+00    0.00       1.0  T
  54   -346.1437161 -0.243591E+01  0.117E+00    0.01       1.0  T
  55   -347.1281385 -0.984422E+00  0.625E-01    0.00       1.0  T
  56   -345.6327055  0.149543E+01  0.135E+00    0.02       1.0  T
  57   -343.5765523  0.205615E+01  0.195E+00    0.02       1.0  T
  58   -347.1844737 -0.360792E+01  0.567E-01    0.02       1.0  T
  59   -345.0871967  0.209728E+01  0.154E+00    0.00       1.0  T
  60   -346.1900352 -0.110284E+01  0.113E+00    0.01       1.0  T
  61   -346.6636826 -0.473647E+00  0.889E-01    0.00       1.0  T
  62   -345.8746355  0.789047E+00  0.126E+00    0.02       1.0  T
  63   -346.5729696 -0.698334E+00  0.935E-01    0.01       1.0  T
  64   -346.7417569 -0.168787E+00  0.848E-01    0.01       1.0  T
  65   -347.0659438 -0.324187E+00  0.634E-01    0.01       1.0  T
  66   -346.9746978  0.912460E-01  0.691E-01    0.01       1.0  T
  67   -347.1697335 -0.195036E+00  0.538E-01    0.01       1.0  T
  68   -347.3346722 -0.164939E+00  0.351E-01    0.00       1.0  T
  69   -347.3173742  0.172981E-01  0.371E-01    0.00       1.0  T
  70   -347.3381540 -0.207798E-01  0.340E-01    0.00       1.0  T
  71   -347.2536038  0.845502E-01  0.448E-01    0.01       1.0  T
  72   -347.3830485 -0.129445E+00  0.266E-01    0.01       1.0  T
  73   -347.3652136  0.178349E-01  0.299E-01    0.00       1.0  T
  74   -347.4104475 -0.452338E-01  0.204E-01    0.01       1.0  T
  75   -347.4410791 -0.306316E-01  0.802E-02    0.01       1.0  T
  76   -347.4352499  0.582919E-02  0.111E-01    0.01       1.0  T
  77   -347.4358093 -0.559449E-03  0.101E-01    0.01       1.0  T
  78   -347.4234783  0.123310E-01  0.146E-01    0.01       1.0  T
  79   -347.4421863 -0.187080E-01  0.668E-02    0.01       1.0  T
  80   -347.4279179  0.142684E-01  0.133E-01    0.01       1.0  T
  81   -347.4425270 -0.146091E-01  0.651E-02    0.01       1.0  T
  82   -347.4450894 -0.256241E-02  0.433E-02    0.02       1.0  T
  83   -347.4465062 -0.141679E-02  0.225E-02    0.02       1.0  T
  84   -347.4461335  0.372653E-03  0.295E-02    0.02       1.0  T
  85   -347.4463678 -0.234310E-03  0.254E-02    0.02       1.0  T
  86   -347.4462760  0.918110E-04  0.272E-02    0.02       1.0  T
  87   -347.4454819  0.794107E-03  0.390E-02    0.02       1.0  T
  88   -347.4461136 -0.631669E-03  0.299E-02    0.02       1.0  T
  89   -347.4464094 -0.295786E-03  0.245E-02    0.02       1.0  T
  90   -347.4466809 -0.271495E-03  0.180E-02    0.02       1.0  T
  91   -347.4469262 -0.245369E-03  0.821E-03    0.02       1.0  T
  92   -347.4469415 -0.152768E-04  0.700E-03    0.02       1.0  T
  93   -347.4468718  0.696765E-04  0.106E-02    0.02       1.0  T
  94   -347.4468773 -0.543076E-05  0.104E-02    0.02       1.0  T
  95   -347.4469293 -0.520086E-04  0.765E-03    0.02       1.0  T
  96   -347.4469518 -0.225130E-04  0.589E-03    0.02       1.2  T
  97   -347.4469694 -0.175729E-04  0.404E-03    0.02       1.8  T
  98   -347.4469764 -0.700180E-05  0.290E-03    0.02       2.5  T
  99   -347.4469832 -0.678444E-05  0.110E-03    0.02       6.6  T
 100   -347.4469837 -0.556050E-06  0.764E-04    0.02       9.5  T
 101   -347.4469841 -0.357220E-06  0.449E-04    0.02      16.2  T
 102   -347.4469837  0.391456E-06  0.715E-04    0.02      10.2  T
 103   -347.4469837  0.224960E-07  0.738E-04    0.02       9.9  T
 104   -347.4469839 -0.250009E-06  0.575E-04    0.02      12.6  T
 105   -347.4469841 -0.219488E-06  0.326E-04    0.02      22.3  T
 106   -347.4469841  0.293419E-07  0.360E-04    0.02      20.2  T
 107   -347.4469842 -0.126425E-06  0.946E-05    0.02      76.9  T
 108   -347.4469842  0.115774E-07  0.139E-04    0.02      52.2  T

   *** convergence criteria satisfied after 108 iterations ***

         #    Occupation            Energy/Eh            Energy/eV
      -------------------------------------------------------------
         1        2.0000           -0.7821473             -21.2833
       ...           ...                  ...                  ...
       312        1.9991           -0.3849727             -10.4756
       313        1.9983           -0.3844128             -10.4604
       314        1.9982           -0.3843514             -10.4587
       315        1.9523           -0.3812017             -10.3730
       316        1.4009           -0.3784822             -10.2990
       317        1.2745           -0.3782106             -10.2916
       318        1.2454           -0.3781511             -10.2900 (HOMO)
       319        0.9120           -0.3775075             -10.2725 (LUMO)
       320        0.8501           -0.3773881             -10.2693
       321        0.3705           -0.3762680             -10.2388
       322        0.0000           -0.3668448              -9.9824
       323                         -0.3486232              -9.4865
       ...                                ...                  ...
       671                          2.1798351              59.3163
      -------------------------------------------------------------
                  HL-Gap            0.0006437 Eh            0.0175 eV
             Fermi-level           -0.3776752 Eh          -10.2771 eV

 SCC (total)                   0 d,  0 h,  0 min, 24.334 sec
 SCC setup                      ...        0 min,  0.015 sec (  0.062%)
 Dispersion                     ...        0 min,  0.012 sec (  0.048%)
 classical contributions        ...        0 min,  0.003 sec (  0.014%)
 integral evaluation            ...        0 min,  0.352 sec (  1.447%)
 iterations                     ...        0 min, 23.147 sec ( 95.124%)
 molecular gradient             ...        0 min,  0.762 sec (  3.131%)
 printout                       ...        0 min,  0.042 sec (  0.174%)

         :::::::::::::::::::::::::::::::::::::::::::::::::::::
         ::                     SUMMARY                     ::
         :::::::::::::::::::::::::::::::::::::::::::::::::::::
         :: total energy            -341.064423797722 Eh    ::
         :: gradient norm              1.317280364832 Eh/a0 ::
         :: HOMO-LUMO gap              0.017514724339 eV    ::
         ::.................................................::
         :: SCC energy              -347.446984209205 Eh    ::
         :: -> electrostatic           0.260510998900 Eh    ::
         :: repulsion energy           6.538977822072 Eh    ::
         :: dispersion energy         -0.156417410589 Eh    ::
         :: halogen bond corr.         0.000000000000 Eh    ::
         :: add. restraining           0.000000000000 Eh    ::
         :: total charge              -0.000000000000 e     ::
         :::::::::::::::::::::::::::::::::::::::::::::::::::::

      ----------------------------------------------------------- 
     |                   =====================                   |
     |                        A N C O P T                        |
     |                   =====================                   |
     |               Approximate Normal Coordinate               |
     |                Rational Function Optimizer                |
      ----------------------------------------------------------- 

          ...................................................
          :                      SETUP                      :
          :.................................................:
          :   optimization level            normal          :
          :   max. optcycles                   567          :
          :   ANC micro-cycles                  20          :
          :   degrees of freedom               561          :
          :.................................................:
          :   RF solver                   davidson          :
          :   write xtbopt.log                true          :
          :   linear?                        false          :
          :   energy convergence         0.5000000E-05 Eh   :
          :   grad. convergence          0.1000000E-02 Eh/α :
          :   maximium RF displ.         1.0000000          :
          :   Hlow (freq-cutoff)         0.1000000E-01      :
          :   Hmax (freq-cutoff)         5.0000000          :
          :   S6 in model hess.         20.0000000          :
          ...................................................

generating ANC from model Hessian ...
Using Lindh-Hessian (1995)
 Shifting diagonal of input Hessian by    1.0068669844539684E-002
 Lowest  eigenvalues of input Hessian
    0.010000    0.010012    0.010032    0.010039    0.010053    0.010058
    0.010060    0.010061    0.000000    0.000000    0.000000    0.000000
    0.000000    0.000000    0.010077    0.010081    0.010082    0.010093
 Highest eigenvalues
    2.610167    2.707056    3.001861    3.046568    3.245529    3.339751


........................................................................
.............................. CYCLE    1 ..............................
........................................................................
   1   -347.4469842 -0.347447E+03  0.139E-04    0.02       0.0  T
   2   -347.4459782  0.100600E-02  0.316E-02    0.02       1.0  T
   3   -347.4469787 -0.100047E-02  0.234E-03    0.02       3.1  T
   4   -347.4466738  0.304861E-03  0.173E-02    0.02       1.0  T
   5   -347.4469671 -0.293281E-03  0.432E-03    0.02       1.7  T
   6   -347.4469746 -0.750126E-05  0.303E-03    0.02       2.4  T
   7   -347.4469826 -0.802693E-05  0.124E-03    0.02       5.9  T
   8   -347.4469834 -0.763964E-06  0.890E-04    0.02       8.2  T
   9   -347.4469842 -0.775350E-06  0.245E-04    0.02      29.7  T
  10   -347.4469842 -0.372950E-07  0.154E-04    0.02      47.2  T
  11   -347.4469842 -0.190403E-07  0.718E-05    0.02     101.3  T
     SCC iter.                  ...        0 min,  1.794 sec
     gradient                   ...        0 min,  0.754 sec
 * total energy  :  -341.0644238 Eh     change       -0.1283456E-07 Eh
   gradient norm :     1.3172813 Eh/α   predicted     0.0000000E+00 (-100.00%)
   displ. norm   :     0.4962748 α      lambda       -0.5782707E+00
   maximum displ.:     0.2265292 α      in ANC's #558, #559, #155, ...

........................................................................
.............................. CYCLE    2 ..............................
........................................................................
   1   -347.2795355 -0.347280E+03  0.349E-01    0.02       0.0  T
   2   -321.4557645  0.258238E+02  0.485E+00    0.16       1.0  T
   3   -340.8671910 -0.194114E+02  0.275E+00    0.09       1.0  T
   4   -336.1530833  0.471411E+01  0.324E+00    0.03       1.0  T
   5   -337.1615805 -0.100850E+01  0.309E+00    0.03       1.0  T
   6   -342.3546291 -0.519305E+01  0.216E+00    0.03       1.0  T
   7   -345.1122562 -0.275763E+01  0.151E+00    0.02       1.0  T
   8   -347.0624976 -0.195024E+01  0.628E-01    0.01       1.0  T
   9   -347.1361311 -0.736335E-01  0.548E-01    0.00       1.0  T
  10   -346.9361449  0.199986E+00  0.690E-01    0.01       1.0  T
  11   -342.4342881  0.450186E+01  0.219E+00    0.07       1.0  T
  12   -345.3099108 -0.287562E+01  0.145E+00    0.00       1.0  T
  13   -346.6222965 -0.131239E+01  0.866E-01    0.00       1.0  T
  14   -347.0039121 -0.381616E+00  0.607E-01    0.03       1.0  T
  15   -347.2257453 -0.221833E+00  0.384E-01    0.02       1.0  T
  16   -346.8715374  0.354208E+00  0.714E-01    0.00       1.0  T
  17   -347.1983116 -0.326774E+00  0.421E-01    0.02       1.0  T
  18   -347.0982491  0.100063E+00  0.523E-01    0.02       1.0  T
  19   -347.2253851 -0.127136E+00  0.393E-01    0.02       1.0  T
  20   -347.1910451  0.343400E-01  0.431E-01    0.02       1.0  T
  21   -347.2333047 -0.422597E-01  0.380E-01    0.01       1.0  T
  22   -347.2779428 -0.446380E-01  0.321E-01    0.02       1.0  T
  23   -347.2516249  0.263179E-01  0.359E-01    0.01       1.0  T
  24   -347.3541937 -0.102569E+00  0.172E-01    0.01       1.0  T
  25   -347.3661544 -0.119608E-01  0.135E-01    0.00       1.0  T
  26   -347.3830289 -0.168745E-01  0.393E-02    0.00       1.0  T
  27   -347.3839983 -0.969431E-03  0.237E-02    0.00       1.0  T
  28   -347.3843305 -0.332209E-03  0.152E-02    0.00       1.0  T
  29   -347.3834683  0.862257E-03  0.329E-02    0.00       1.0  T
  30   -347.3833591  0.109158E-03  0.345E-02    0.00       1.0  T
  31   -347.3841190 -0.759836E-03  0.208E-02    0.00       1.0  T
  32   -347.3844057 -0.286722E-03  0.119E-02    0.00       1.0  T
  33   -347.3845381 -0.132405E-03  0.272E-03    0.00       2.7  T
  34   -347.3845251  0.129797E-04  0.446E-03    0.00       1.6  T
  35   -347.3845254 -0.300397E-06  0.442E-03    0.00       1.6  T
  36   -347.3845371 -0.116369E-04  0.280E-03    0.00       2.6  T
  37   -347.3845372 -0.176554E-06  0.273E-03    0.00       2.7  T
  38   -347.3845407 -0.342081E-05  0.198E-03    0.00       3.7  T
  39   -347.3845438 -0.311545E-05  0.917E-04    0.00       7.9  T
  40   -347.3845442 -0.474880E-06  0.596E-04    0.00      12.2  T
  41   -347.3845446 -0.340745E-06  0.143E-04    0.00      50.8  T
  42   -347.3845446 -0.190798E-07  0.407E-05    0.00     178.6  T
     SCC iter.                  ...        0 min,  6.756 sec
     gradient                   ...        0 min,  0.538 sec
 * total energy  :  -341.4505517 Eh     change       -0.3861279E+00 Eh
   gradient norm :     0.5247930 Eh/α   predicted    -0.3603567E+00 (  -6.67%)
   displ. norm   :     0.5773980 α      lambda       -0.2330613E+00
   maximum displ.:     0.1330954 α      in ANC's #155, #558, #101, ...

........................................................................
.............................. CYCLE    3 ..............................
........................................................................
   1   -347.4232635 -0.347423E+03  0.330E-01    0.05       0.0  T
   2   -324.0016838  0.234216E+02  0.463E+00    0.10       1.0  T
   3   -341.6022993 -0.176006E+02  0.272E+00    0.12       1.0  T
   4   -345.3815227 -0.377922E+01  0.146E+00    0.01       1.0  T
   5   -344.7182167  0.663306E+00  0.166E+00    0.05       1.0  T
   6   -343.8566388  0.861578E+00  0.186E+00    0.04       1.0  T
   7   -344.1812341 -0.324595E+00  0.176E+00    0.03       1.0  T
   8   -345.4083969 -0.122716E+01  0.142E+00    0.07       1.0  T
   9   -346.0695551 -0.661158E+00  0.120E+00    0.01       1.0  T
  10   -347.1542430 -0.108469E+01  0.590E-01    0.00       1.0  T
  11   -345.3478114  0.180643E+01  0.147E+00    0.07       1.0  T
  12   -347.2293518 -0.188154E+01  0.549E-01    0.00       1.0  T
  13   -345.8899743  0.133938E+01  0.128E+00    0.04       1.0  T
  14   -346.2826764 -0.392702E+00  0.111E+00    0.02       1.0  T
  15   -345.6814484  0.601228E+00  0.135E+00    0.00       1.0  T
  16   -345.4200454  0.261403E+00  0.144E+00    0.01       1.0  T
  17   -345.3851361  0.349093E-01  0.146E+00    0.01       1.0  T
  18   -347.2871191 -0.190198E+01  0.484E-01    0.01       1.0  T
  19   -346.9868948  0.300224E+00  0.735E-01    0.00       1.0  T
  20   -347.0411878 -0.542930E-01  0.694E-01    0.00       1.0  T
  21   -347.3900739 -0.348886E+00  0.364E-01    0.02       1.0  T
  22   -347.3621661  0.279077E-01  0.400E-01    0.02       1.0  T
  23   -347.4209394 -0.587733E-01  0.315E-01    0.02       1.0  T
  24   -347.4805419 -0.596025E-01  0.195E-01    0.03       1.0  T
  25   -347.5031440 -0.226021E-01  0.119E-01    0.03       1.0  T
  26   -347.5039446 -0.800578E-03  0.114E-01    0.03       1.0  T
  27   -347.5143483 -0.104038E-01  0.485E-02    0.03       1.0  T
  28   -347.5161229 -0.177460E-02  0.231E-02    0.03       1.0  T
  29   -347.5165484 -0.425445E-03  0.103E-02    0.03       1.0  T
  30   -347.5165603 -0.119689E-04  0.972E-03    0.03       1.0  T
  31   -347.5166384 -0.780572E-04  0.435E-03    0.03       1.7  T
  32   -347.5166496 -0.112534E-04  0.258E-03    0.03       2.8  T
  33   -347.5166521 -0.249999E-05  0.189E-03    0.03       3.9  T
  34   -347.5166556 -0.348254E-05  0.481E-04    0.03      15.1  T
  35   -347.5166558 -0.199695E-06  0.150E-04    0.03      48.5  T
  36   -347.5166556  0.263068E-06  0.535E-04    0.03      13.6  T
  37   -347.5166558 -0.266118E-06  0.140E-04    0.03      52.1  T
     SCC iter.                  ...        0 min,  7.986 sec
     gradient                   ...        0 min,  0.771 sec
 * total energy  :  -341.6130523 Eh     change       -0.1625006E+00 Eh
   gradient norm :     0.2255583 Eh/α   predicted    -0.1553816E+00 (  -4.38%)
   displ. norm   :     0.7550859 α      lambda       -0.1226813E+00
   maximum displ.:     0.2652336 α      in ANC's #155, #101, #160, ...

........................................................................
.............................. CYCLE    4 ..............................
........................................................................
   1   -347.5653891 -0.347565E+03  0.169E-01    0.06       0.0  T
   2   -343.0654730  0.449992E+01  0.240E+00    0.10       1.0  T
   3   -336.4993324  0.656614E+01  0.327E+00    0.06       1.0  T
   4   -346.2722244 -0.977289E+01  0.114E+00    0.01       1.0  T
   5   -344.3869796  0.188524E+01  0.177E+00    0.07       1.0  T
   6   -345.0084161 -0.621436E+00  0.158E+00    0.03       1.0  T
   7   -345.7125702 -0.704154E+00  0.137E+00    0.00       1.0  T
   8   -347.4811402 -0.176857E+01  0.343E-01    0.04       1.0  T
   9   -346.2555405  0.122560E+01  0.114E+00    0.03       1.0  T
  10   -347.4463075 -0.119077E+01  0.378E-01    0.05       1.0  T
  11   -347.5009852 -0.546777E-01  0.281E-01    0.03       1.0  T
  12   -347.5759069 -0.749216E-01  0.978E-02    0.05       1.0  T
  13   -347.5344706  0.414363E-01  0.237E-01    0.04       1.0  T
  14   -347.5472206 -0.127500E-01  0.195E-01    0.04       1.0  T
  15   -347.5556826 -0.846203E-02  0.177E-01    0.05       1.0  T
  16   -347.5748797 -0.191970E-01  0.107E-01    0.05       1.0  T
  17   -347.5735771  0.130256E-02  0.113E-01    0.05       1.0  T
  18   -347.5824490 -0.887189E-02  0.615E-02    0.05       1.0  T
  19   -347.5809012  0.154784E-02  0.722E-02    0.05       1.0  T
  20   -347.5854182 -0.451706E-02  0.248E-02    0.05       1.0  T
  21   -347.5853319  0.863114E-04  0.254E-02    0.05       1.0  T
  22   -347.5857802 -0.448276E-03  0.134E-02    0.05       1.0  T
  23   -347.5858589 -0.787230E-04  0.994E-03    0.05       1.0  T
  24   -347.5858939 -0.349361E-04  0.806E-03    0.05       1.0  T
  25   -347.5859467 -0.528482E-04  0.335E-03    0.05       2.2  T
  26   -347.5859510 -0.431892E-05  0.274E-03    0.05       2.7  T
  27   -347.5859574 -0.635457E-05  0.996E-04    0.05       7.3  T
  28   -347.5859582 -0.833077E-06  0.158E-04    0.05      45.9  T
  29   -347.5859579  0.282994E-06  0.574E-04    0.05      12.7  T
  30   -347.5859580 -0.118442E-06  0.434E-04    0.05      16.7  T
  31   -347.5859582 -0.184939E-06  0.128E-04    0.05      56.9  T
     SCC iter.                  ...        0 min,  6.925 sec
     gradient                   ...        0 min,  0.817 sec
 * total energy  :  -341.7173734 Eh     change       -0.1043211E+00 Eh
   gradient norm :     0.1575374 Eh/α   predicted    -0.9631427E-01 (  -7.68%)
   displ. norm   :     0.8605134 α      lambda       -0.1050683E+00
   maximum displ.:     0.2963122 α      in ANC's #101, #155, #75, ...

........................................................................
.............................. CYCLE    5 ..............................
........................................................................
   1   -347.6148628 -0.347615E+03  0.146E-01    0.08       0.0  T
   2   -343.2706350  0.434423E+01  0.238E+00    0.18       1.0  T
   3   -343.4813035 -0.210669E+00  0.202E+00    0.05       1.0  T
   4   -340.4024325  0.307887E+01  0.263E+00    0.00       1.0  T
   5   -338.2304727  0.217196E+01  0.300E+00    0.04       1.0  T
   6   -346.5482330 -0.831776E+01  0.104E+00    0.01       1.0  T
   7   -344.7184367  0.182980E+01  0.165E+00    0.03       1.0  T
   8   -344.6654021  0.530345E-01  0.172E+00    0.01       1.0  T
   9   -347.4687849 -0.280338E+01  0.397E-01    0.05       1.0  T
  10   -347.5889016 -0.120117E+00  0.225E-01    0.07       1.0  T
  11   -347.1616325  0.427269E+00  0.683E-01    0.03       1.0  T
  12   -346.2435622  0.918070E+00  0.115E+00    0.02       1.0  T
  13   -347.3594261 -0.111586E+01  0.521E-01    0.04       1.0  T
  14   -347.6127879 -0.253362E+00  0.116E-01    0.06       1.0  T
  15   -347.4378411  0.174947E+00  0.435E-01    0.05       1.0  T
  16   -347.6019047 -0.164064E+00  0.159E-01    0.06       1.0  T
  17   -347.5652387  0.366660E-01  0.246E-01    0.05       1.0  T
  18   -347.6255824 -0.603438E-01  0.427E-02    0.07       1.0  T
  19   -347.6084300  0.171525E-01  0.138E-01    0.06       1.0  T
  20   -347.6170749 -0.864489E-02  0.102E-01    0.06       1.0  T
  21   -347.6173458 -0.270968E-03  0.101E-01    0.06       1.0  T
  22   -347.6175604 -0.214562E-03  0.100E-01    0.06       1.0  T
  23   -347.6196333 -0.207286E-02  0.886E-02    0.06       1.0  T
  24   -347.6215847 -0.195143E-02  0.763E-02    0.07       1.0  T
  25   -347.6239902 -0.240547E-02  0.580E-02    0.07       1.0  T
  26   -347.6257305 -0.174034E-02  0.394E-02    0.07       1.0  T
  27   -347.6265347 -0.804245E-03  0.270E-02    0.07       1.0  T
  28   -347.6271404 -0.605683E-03  0.103E-02    0.07       1.0  T
  29   -347.6272100 -0.696056E-04  0.556E-03    0.07       1.3  T
  30   -347.6272294 -0.193594E-04  0.317E-03    0.07       2.3  T
  31   -347.6272370 -0.758134E-05  0.132E-03    0.07       5.5  T
  32   -347.6272315  0.545440E-05  0.267E-03    0.07       2.7  T
  33   -347.6272341 -0.262788E-05  0.213E-03    0.07       3.4  T
  34   -347.6272354 -0.123847E-05  0.181E-03    0.07       4.0  T
  35   -347.6272375 -0.215817E-05  0.105E-03    0.07       6.9  T
  36   -347.6272384 -0.905972E-06  0.457E-04    0.07      15.9  T
  37   -347.6272386 -0.198452E-06  0.788E-05    0.07      92.3  T
  38   -347.6272386 -0.666205E-09  0.703E-05    0.07     103.4  T
     SCC iter.                  ...        0 min,  8.360 sec
     gradient                   ...        0 min,  0.714 sec
 * total energy  :  -341.8082025 Eh     change       -0.9082911E-01 Eh
   gradient norm :     0.1316941 Eh/α   predicted    -0.9143481E-01 (   0.67%)
   displ. norm   :     0.8707233 α      lambda       -0.8194288E-01
   maximum displ.:     0.3320346 α      in ANC's #101, #155, #66, ...

........................................................................
.............................. CYCLE    6 ..............................
........................................................................
   1   -347.6451359 -0.347645E+03  0.128E-01    0.08       0.0  T
   2   -335.5616408  0.120835E+02  0.339E+00    0.00       1.0  T
   3   -335.0573897  0.504251E+00  0.346E+00    0.01       1.0  T
   4   -341.7587460 -0.670136E+01  0.236E+00    0.05       1.0  T
   5   -347.3501362 -0.559139E+01  0.566E-01    0.07       1.0  T
   6   -345.3144504  0.203569E+01  0.151E+00    0.00       1.0  T
   7   -345.6205997 -0.306149E+00  0.142E+00    0.03       1.0  T
   8   -344.8745212  0.746079E+00  0.167E+00    0.01       1.0  T
   9   -344.5370306  0.337491E+00  0.175E+00    0.02       1.0  T
  10   -342.5708590  0.196617E+01  0.222E+00    0.02       1.0  T
  11   -344.9022939 -0.233143E+01  0.165E+00    0.02       1.0  T
  12   -347.4332853 -0.253099E+01  0.479E-01    0.04       1.0  T
  13   -347.0224229  0.410862E+00  0.779E-01    0.01       1.0  T
  14   -347.0592342 -0.368113E-01  0.762E-01    0.02       1.0  T
  15   -347.4544651 -0.395231E+00  0.465E-01    0.06       1.0  T
  16   -347.5933911 -0.138926E+00  0.275E-01    0.07       1.0  T
  17   -347.0866569  0.506734E+00  0.783E-01    0.03       1.0  T
  18   -347.1128145 -0.261576E-01  0.767E-01    0.03       1.0  T
  19   -346.7323540  0.380461E+00  0.994E-01    0.01       1.0  T
  20   -346.6761114  0.562425E-01  0.103E+00    0.01       1.0  T
  21   -346.8656507 -0.189539E+00  0.919E-01    0.02       1.0  T
  22   -347.2610832 -0.395432E+00  0.645E-01    0.04       1.0  T
  23   -347.5462042 -0.285121E+00  0.332E-01    0.07       1.0  T
  24   -347.6320856 -0.858814E-01  0.149E-01    0.08       1.0  T
  25   -347.6537106 -0.216250E-01  0.236E-02    0.08       1.0  T
  26   -347.6537293 -0.186836E-04  0.224E-02    0.08       1.0  T
  27   -347.6539015 -0.172232E-03  0.180E-02    0.08       1.0  T
  28   -347.6540546 -0.153037E-03  0.131E-02    0.08       1.0  T
  29   -347.6541750 -0.120400E-03  0.687E-03    0.08       1.1  T
  30   -347.6541754 -0.390778E-06  0.667E-03    0.08       1.1  T
  31   -347.6542051 -0.297608E-04  0.376E-03    0.08       1.9  T
  32   -347.6542176 -0.125133E-04  0.163E-03    0.08       4.5  T
  33   -347.6542196 -0.198772E-05  0.632E-04    0.08      11.5  T
  34   -347.6542195  0.116485E-06  0.780E-04    0.08       9.3  T
  35   -347.6542191  0.399966E-06  0.971E-04    0.08       7.5  T
  36   -347.6542199 -0.805289E-06  0.372E-04    0.08      19.5  T
  37   -347.6542200 -0.105621E-06  0.173E-04    0.08      42.1  T
  38   -347.6542200 -0.149478E-07  0.118E-04    0.08      61.7  T
     SCC iter.                  ...        0 min,  8.277 sec
     gradient                   ...        0 min,  0.802 sec
 * total energy  :  -341.8730329 Eh     change       -0.6483032E-01 Eh
   gradient norm :     0.1099081 Eh/α   predicted    -0.7203438E-01 (  11.11%)
   displ. norm   :     0.7647264 α      lambda       -0.5077060E-01
   maximum displ.:     0.2719347 α      in ANC's #101, #66, #75, ...

........................................................................
.............................. CYCLE    7 ..............................
........................................................................
   1   -347.7060631 -0.347706E+03  0.903E-02    0.09       0.0  T
   2   -344.4712725  0.323479E+01  0.188E+00    0.06       1.0  T
   3   -335.8835315  0.858774E+01  0.334E+00    0.01       1.0  T
   4   -337.2683797 -0.138485E+01  0.316E+00    0.02       1.0  T
   5   -337.7449791 -0.476599E+00  0.309E+00    0.02       1.0  T
   6   -345.9184956 -0.817352E+01  0.132E+00    0.02       1.0  T
   7   -342.7475752  0.317092E+01  0.221E+00    0.01       1.0  T
   8   -345.3763527 -0.262878E+01  0.152E+00    0.02       1.0  T
   9   -345.3324904  0.438623E-01  0.155E+00    0.02       1.0  T
  10   -346.1823654 -0.849875E+00  0.124E+00    0.01       1.0  T
  11   -346.4759851 -0.293620E+00  0.111E+00    0.00       1.0  T
  12   -347.3794038 -0.903419E+00  0.586E-01    0.05       1.0  T
  13   -347.5893598 -0.209956E+00  0.366E-01    0.07       1.0  T
  14   -347.5412520  0.481078E-01  0.391E-01    0.05       1.0  T
  15   -347.7098985 -0.168646E+00  0.459E-02    0.09       1.0  T
  16   -347.6946991  0.151994E-01  0.132E-01    0.07       1.0  T
  17   -347.6981646 -0.346548E-02  0.117E-01    0.07       1.0  T
  18   -347.6572829  0.408817E-01  0.236E-01    0.06       1.0  T
  19   -347.6678268 -0.105439E-01  0.208E-01    0.06       1.0  T
  20   -347.6302681  0.375587E-01  0.284E-01    0.06       1.0  T
  21   -347.6754578 -0.451897E-01  0.190E-01    0.07       1.0  T
  22   -347.6730299  0.242787E-02  0.195E-01    0.07       1.0  T
  23   -347.7085615 -0.355316E-01  0.569E-02    0.08       1.0  T
  24   -347.7111855 -0.262398E-02  0.239E-02    0.09       1.0  T
  25   -347.7038634  0.732205E-02  0.865E-02    0.09       1.0  T
  26   -347.7094879 -0.562445E-02  0.464E-02    0.09       1.0  T
  27   -347.7112377 -0.174981E-02  0.218E-02    0.09       1.0  T
  28   -347.7114570 -0.219333E-03  0.165E-02    0.09       1.0  T
  29   -347.7117004 -0.243430E-03  0.654E-03    0.09       1.1  T
  30   -347.7117333 -0.328395E-04  0.288E-03    0.09       2.5  T
  31   -347.7117243  0.900194E-05  0.408E-03    0.09       1.8  T
  32   -347.7117364 -0.121675E-04  0.194E-03    0.09       3.8  T
  33   -347.7117391 -0.267205E-05  0.982E-04    0.09       7.4  T
  34   -347.7117394 -0.339420E-06  0.767E-04    0.09       9.5  T
  35   -347.7117398 -0.388447E-06  0.443E-04    0.09      16.4  T
  36   -347.7117400 -0.163428E-06  0.169E-04    0.09      43.1  T
  37   -347.7117400 -0.263581E-07  0.400E-05    0.09     181.9  T
     SCC iter.                  ...        0 min,  8.286 sec
     gradient                   ...        0 min,  0.851 sec
 * total energy  :  -341.9134256 Eh     change       -0.4039278E-01 Eh
   gradient norm :     0.0962084 Eh/α   predicted    -0.4023078E-01 (  -0.40%)
   displ. norm   :     0.7605507 α      lambda       -0.4308992E-01
   maximum displ.:     0.2730601 α      in ANC's #101, #66, #65, ...

........................................................................
.............................. CYCLE    8 ..............................
........................................................................
   1   -347.7723045 -0.347772E+03  0.100E-01    0.10       0.0  T
   2   -343.4405193  0.433179E+01  0.237E+00    0.19       1.0  T
   3   -345.2706234 -0.183010E+01  0.159E+00    0.05       1.0  T
   4   -340.0474529  0.522317E+01  0.273E+00    0.02       1.0  T
   5   -343.7192807 -0.367183E+01  0.200E+00    0.02       1.0  T
   6   -342.8214809  0.897800E+00  0.221E+00    0.02       1.0  T
   7   -337.4697702  0.535171E+01  0.313E+00    0.01       1.0  T
   8   -337.4126706  0.570996E-01  0.314E+00    0.01       1.0  T
   9   -337.6905628 -0.277892E+00  0.309E+00    0.01       1.0  T
  10   -347.2712790 -0.958072E+01  0.689E-01    0.04       1.0  T
  11   -347.5854095 -0.314131E+00  0.427E-01    0.05       1.0  T
  12   -347.5130423  0.723672E-01  0.502E-01    0.05       1.0  T
  13   -347.5009267  0.121156E-01  0.525E-01    0.05       1.0  T
  14   -347.3580147  0.142912E+00  0.643E-01    0.03       1.0  T
  15   -347.2767822  0.812325E-01  0.701E-01    0.03       1.0  T
  16   -347.6937684 -0.416986E+00  0.291E-01    0.07       1.0  T
  17   -347.6461359  0.476325E-01  0.362E-01    0.07       1.0  T
  18   -347.7591265 -0.112991E+00  0.143E-01    0.09       1.0  T
  19   -347.7657866 -0.666012E-02  0.118E-01    0.09       1.0  T
  20   -347.7670956 -0.130898E-02  0.112E-01    0.09       1.0  T
  21   -347.7765410 -0.944545E-02  0.562E-02    0.09       1.0  T
  22   -347.7742248  0.231623E-02  0.744E-02    0.09       1.0  T
  23   -347.7741773  0.475023E-04  0.747E-02    0.09       1.0  T
  24   -347.7759642 -0.178688E-02  0.610E-02    0.09       1.0  T
  25   -347.7786581 -0.269394E-02  0.309E-02    0.10       1.0  T
  26   -347.7793370 -0.678937E-03  0.160E-02    0.10       1.0  T
  27   -347.7795184 -0.181385E-03  0.839E-03    0.10       1.0  T
  28   -347.7795867 -0.682640E-04  0.154E-03    0.10       4.7  T
  29   -347.7795866  0.109853E-06  0.161E-03    0.10       4.5  T
  30   -347.7795876 -0.103278E-05  0.122E-03    0.10       6.0  T
  31   -347.7795883 -0.649006E-06  0.882E-04    0.10       8.2  T
  32   -347.7795887 -0.452583E-06  0.541E-04    0.10      13.4  T
  33   -347.7795889 -0.132931E-06  0.384E-04    0.10      18.9  T
  34   -347.7795890 -0.114271E-06  0.171E-04    0.10      42.6  T
  35   -347.7795890 -0.272316E-07  0.443E-05    0.10     164.4  T
     SCC iter.                  ...        0 min,  7.620 sec
     gradient                   ...        0 min,  0.829 sec
 * total energy  :  -341.9450649 Eh     change       -0.3163926E-01 Eh
   gradient norm :     0.0877148 Eh/α   predicted    -0.3400739E-01 (   7.48%)
   displ. norm   :     0.7512720 α      lambda       -0.2850622E-01
   maximum displ.:     0.3121719 α      in ANC's #66, #65, #75, ...

........................................................................
.............................. CYCLE    9 ..............................
........................................................................
   1   -347.8293458 -0.347829E+03  0.514E-02    0.10       0.0  T
   2   -335.2106187  0.126187E+02  0.348E+00    0.02       1.0  T
   3   -339.2820899 -0.407147E+01  0.284E+00    0.02       1.0  T
   4   -339.4793670 -0.197277E+00  0.283E+00    0.01       1.0  T
   5   -342.3009647 -0.282160E+01  0.231E+00    0.01       1.0  T
   6   -345.8059140 -0.350495E+01  0.141E+00    0.01       1.0  T
   7   -347.1306462 -0.132473E+01  0.805E-01    0.02       1.0  T
   8   -347.4508942 -0.320248E+00  0.610E-01    0.04       1.0  T
   9   -344.8632668  0.258763E+01  0.168E+00    0.03       1.0  T
  10   -345.1483241 -0.285057E+00  0.159E+00    0.02       1.0  T
  11   -347.4147890 -0.226646E+01  0.649E-01    0.06       1.0  T
  12   -347.8259177 -0.411129E+00  0.916E-02    0.11       1.0  T
  13   -347.8004203  0.254974E-01  0.182E-01    0.09       1.0  T
  14   -347.7569718  0.434484E-01  0.274E-01    0.08       1.0  T
  15   -347.8245529 -0.675811E-01  0.972E-02    0.10       1.0  T
  16   -347.8293257 -0.477278E-02  0.660E-02    0.11       1.0  T
  17   -347.8126711  0.166546E-01  0.147E-01    0.10       1.0  T
  18   -347.8215187 -0.884760E-02  0.113E-01    0.10       1.0  T
  19   -347.8173567  0.416201E-02  0.131E-01    0.10       1.0  T
  20   -347.8299562 -0.125995E-01  0.624E-02    0.11       1.0  T
  21   -347.8329215 -0.296531E-02  0.274E-02    0.11       1.0  T
  22   -347.8335446 -0.623088E-03  0.887E-03    0.11       1.0  T
  23   -347.8334307  0.113957E-03  0.114E-02    0.11       1.0  T
  24   -347.8331140  0.316628E-03  0.206E-02    0.11       1.0  T
  25   -347.8329292  0.184854E-03  0.247E-02    0.11       1.0  T
  26   -347.8325139  0.415295E-03  0.322E-02    0.11       1.0  T
  27   -347.8324852  0.286403E-04  0.331E-02    0.11       1.0  T
  28   -347.8325524 -0.672001E-04  0.324E-02    0.11       1.0  T
  29   -347.8325313  0.211861E-04  0.327E-02    0.11       1.0  T
  30   -347.8324650  0.662259E-04  0.335E-02    0.11       1.0  T
  31   -347.8329300 -0.464970E-03  0.257E-02    0.11       1.0  T
  32   -347.8333893 -0.459296E-03  0.143E-02    0.11       1.0  T
  33   -347.8335025 -0.113202E-03  0.958E-03    0.11       1.0  T
  34   -347.8335816 -0.790923E-04  0.368E-03    0.11       2.0  T
  35   -347.8335911 -0.946360E-05  0.203E-03    0.11       3.6  T
  36   -347.8335951 -0.403379E-05  0.398E-04    0.11      18.3  T
  37   -347.8335952 -0.105234E-06  0.235E-04    0.11      30.9  T
  38   -347.8335952 -0.391532E-07  0.124E-04    0.11      58.7  T
  39   -347.8335952 -0.432999E-08  0.102E-04    0.11      71.0  T
     SCC iter.                  ...        0 min,  8.729 sec
     gradient                   ...        0 min,  0.763 sec
 * total energy  :  -341.9670043 Eh     change       -0.2193938E-01 Eh
   gradient norm :     0.0592609 Eh/α   predicted    -0.2229771E-01 (   1.63%)
   displ. norm   :     0.7389515 α      lambda       -0.1887033E-01
   maximum displ.:     0.3447613 α      in ANC's #66, #65, #58, ...

........................................................................
.............................. CYCLE   10 ..............................
........................................................................
   1   -347.8747730 -0.347875E+03  0.111E-01    0.10       0.0  T
   2   -323.0993940  0.247754E+02  0.472E+00    0.02       1.0  T
   3   -340.3871055 -0.172877E+02  0.265E+00    0.02       1.0  T
   4   -343.0250165 -0.263791E+01  0.216E+00    0.00       1.0  T
   5   -343.3994256 -0.374409E+00  0.208E+00    0.02       1.0  T
   6   -346.4033457 -0.300392E+01  0.119E+00    0.00       1.0  T
   7   -346.1080979  0.295248E+00  0.133E+00    0.02       1.0  T
   8   -347.6069117 -0.149881E+01  0.532E-01    0.07       1.0  T
   9   -343.5216606  0.408525E+01  0.206E+00    0.02       1.0  T
  10   -346.8703902 -0.334873E+01  0.102E+00    0.01       1.0  T
  11   -345.8589692  0.101142E+01  0.141E+00    0.01       1.0  T
  12   -347.0090794 -0.115011E+01  0.928E-01    0.02       1.0  T
  13   -347.6095155 -0.600436E+00  0.538E-01    0.06       1.0  T
  14   -347.6408971 -0.313816E-01  0.505E-01    0.06       1.0  T
  15   -347.8295408 -0.188644E+00  0.251E-01    0.09       1.0  T
  16   -347.8581528 -0.286120E-01  0.182E-01    0.10       1.0  T
  17   -347.8763757 -0.182229E-01  0.123E-01    0.10       1.0  T
  18   -347.8890642 -0.126885E-01  0.235E-02    0.11       1.0  T
  19   -347.8870167  0.204743E-02  0.458E-02    0.11       1.0  T
  20   -347.8870901 -0.733983E-04  0.474E-02    0.11       1.0  T
  21   -347.8863069  0.783245E-03  0.559E-02    0.11       1.0  T
  22   -347.8862922  0.146379E-04  0.566E-02    0.11       1.0  T
  23   -347.8848893  0.140298E-02  0.641E-02    0.10       1.0  T
  24   -347.8860013 -0.111204E-02  0.559E-02    0.11       1.0  T
  25   -347.8828205  0.318075E-02  0.773E-02    0.10       1.0  T
  26   -347.8859838 -0.316329E-02  0.566E-02    0.11       1.0  T
  27   -347.8887578 -0.277400E-02  0.263E-02    0.11       1.0  T
  28   -347.8892323 -0.474453E-03  0.166E-02    0.11       1.0  T
  29   -347.8895025 -0.270183E-03  0.479E-03    0.11       1.5  T
  30   -347.8895171 -0.146078E-04  0.326E-03    0.11       2.2  T
  31   -347.8895273 -0.101934E-04  0.103E-03    0.11       7.1  T
  32   -347.8895267  0.558756E-06  0.133E-03    0.11       5.5  T
  33   -347.8895262  0.511215E-06  0.153E-03    0.11       4.8  T
  34   -347.8895268 -0.619569E-06  0.128E-03    0.11       5.7  T
  35   -347.8895281 -0.125324E-05  0.394E-04    0.11      18.5  T
  36   -347.8895281 -0.622309E-07  0.138E-04    0.11      52.6  T
  37   -347.8895281  0.539258E-07  0.276E-04    0.11      26.3  T
  38   -347.8895281 -0.468760E-07  0.171E-04    0.11      42.5  T
     SCC iter.                  ...        0 min,  8.066 sec
     gradient                   ...        0 min,  0.797 sec
 * total energy  :  -341.9811469 Eh     change       -0.1414267E-01 Eh
   gradient norm :     0.0464898 Eh/α   predicted    -0.1458722E-01 (   3.14%)
   displ. norm   :     0.7885186 α      lambda       -0.1637852E-01
   maximum displ.:     0.2834549 α      in ANC's #66, #65, #58, ...

........................................................................
.............................. CYCLE   11 ..............................
........................................................................
   1   -347.9052925 -0.347905E+03  0.166E-01    0.10       0.0  T
   2   -318.4160471  0.294892E+02  0.509E+00    0.01       1.0  T
   3   -344.7947316 -0.263787E+02  0.184E+00    0.01       1.0  T
   4   -347.3274384 -0.253271E+01  0.776E-01    0.05       1.0  T
   5   -336.2889791  0.110385E+02  0.331E+00    0.02       1.0  T
   6   -346.2286217 -0.993964E+01  0.131E+00    0.01       1.0  T
   7   -347.4595341 -0.123091E+01  0.693E-01    0.06       1.0  T
   8   -347.2943208  0.165213E+00  0.785E-01    0.04       1.0  T
   9   -347.7469235 -0.452603E+00  0.434E-01    0.08       1.0  T
  10   -346.4094559  0.133747E+01  0.124E+00    0.01       1.0  T
  11   -346.8560153 -0.446559E+00  0.104E+00    0.02       1.0  T
  12   -347.1149246 -0.258909E+00  0.904E-01    0.03       1.0  T
  13   -347.7248644 -0.609940E+00  0.460E-01    0.07       1.0  T
  14   -347.9006454 -0.175781E+00  0.186E-01    0.09       1.0  T
  15   -347.9151850 -0.145396E-01  0.136E-01    0.10       1.0  T
  16   -347.9228542 -0.766917E-02  0.107E-01    0.10       1.0  T
  17   -347.9218235  0.103074E-02  0.111E-01    0.10       1.0  T
  18   -347.9186878  0.313562E-02  0.125E-01    0.10       1.0  T
  19   -347.9277239 -0.903601E-02  0.812E-02    0.10       1.0  T
  20   -347.9306588 -0.293499E-02  0.615E-02    0.10       1.0  T
  21   -347.9322029 -0.154408E-02  0.474E-02    0.10       1.0  T
  22   -347.9331333 -0.930396E-03  0.362E-02    0.10       1.0  T
  23   -347.9341521 -0.101879E-02  0.169E-02    0.10       1.0  T
  24   -347.9343966 -0.244452E-03  0.614E-03    0.10       1.2  T
  25   -347.9343699  0.266740E-04  0.799E-03    0.10       1.0  T
  26   -347.9343433  0.265707E-04  0.959E-03    0.10       1.0  T
  27   -347.9343220  0.212723E-04  0.107E-02    0.10       1.0  T
  28   -347.9343221 -0.582539E-07  0.107E-02    0.10       1.0  T
  29   -347.9343654 -0.432875E-04  0.828E-03    0.10       1.0  T
  30   -347.9344111 -0.457565E-04  0.465E-03    0.10       1.6  T
  31   -347.9344272 -0.160184E-04  0.230E-03    0.10       3.2  T
  32   -347.9344314 -0.425220E-05  0.987E-04    0.10       7.4  T
  33   -347.9344322 -0.786239E-06  0.411E-04    0.10      17.7  T
  34   -347.9344323 -0.117067E-06  0.205E-04    0.10      35.5  T
  35   -347.9344323 -0.289719E-07  0.108E-04    0.10      67.3  T
  36   -347.9344324 -0.995755E-08  0.366E-05    0.10     198.7  T
     SCC iter.                  ...        0 min,  7.920 sec
     gradient                   ...        0 min,  0.782 sec
 * total energy  :  -341.9885415 Eh     change       -0.7394569E-02 Eh
   gradient norm :     0.0488088 Eh/α   predicted    -0.1328105E-01 (  79.61%)
   displ. norm   :     0.5767930 α      lambda       -0.1185057E-01
   maximum displ.:     0.2594919 α      in ANC's #66, #33, #54, ...

........................................................................
.............................. CYCLE   12 ..............................
........................................................................
   1   -347.9554562 -0.347955E+03  0.130E-01    0.09       0.0  T
   2   -324.5005643  0.234549E+02  0.463E+00    0.02       1.0  T
   3   -345.2700734 -0.207695E+02  0.170E+00    0.01       1.0  T
   4   -347.8907799 -0.262071E+01  0.290E-01    0.11       1.0  T
   5   -336.5149409  0.113758E+02  0.329E+00    0.03       1.0  T
   6   -345.7382537 -0.922331E+01  0.148E+00    0.00       1.0  T
   7   -347.4620894 -0.172384E+01  0.717E-01    0.06       1.0  T
   8   -344.4205475  0.304154E+01  0.185E+00    0.00       1.0  T
   9   -347.7184324 -0.329788E+01  0.505E-01    0.08       1.0  T
  10   -347.6845942  0.338382E-01  0.522E-01    0.06       1.0  T
  11   -347.5638461  0.120748E+00  0.635E-01    0.06       1.0  T
  12   -347.6075541 -0.437081E-01  0.600E-01    0.06       1.0  T
  13   -347.9124638 -0.304910E+00  0.238E-01    0.10       1.0  T
  14   -347.9452913 -0.328275E-01  0.162E-01    0.10       1.0  T
  15   -347.9601253 -0.148339E-01  0.112E-01    0.11       1.0  T
  16   -347.9515859  0.853939E-02  0.145E-01    0.10       1.0  T
  17   -347.9607564 -0.917052E-02  0.109E-01    0.10       1.0  T
  18   -347.9642140 -0.345763E-02  0.920E-02    0.09       1.0  T
  19   -347.9635745  0.639494E-03  0.948E-02    0.09       1.0  T
  20   -347.9678556 -0.428107E-02  0.672E-02    0.09       1.0  T
  21   -347.9717126 -0.385698E-02  0.260E-02    0.09       1.0  T
  22   -347.9720385 -0.325970E-03  0.181E-02    0.09       1.0  T
  23   -347.9721371 -0.985234E-04  0.148E-02    0.09       1.0  T
  24   -347.9722424 -0.105331E-03  0.106E-02    0.09       1.0  T
  25   -347.9722892 -0.467717E-04  0.814E-03    0.09       1.0  T
  26   -347.9723266 -0.374508E-04  0.549E-03    0.09       1.3  T
  27   -347.9723502 -0.236221E-04  0.269E-03    0.09       2.7  T
  28   -347.9723566 -0.632515E-05  0.108E-03    0.09       6.8  T
  29   -347.9723576 -0.101432E-05  0.456E-04    0.09      16.0  T
  30   -347.9723576 -0.465602E-07  0.428E-04    0.09      17.0  T
  31   -347.9723576 -0.674277E-08  0.423E-04    0.09      17.2  T
  32   -347.9723577 -0.677757E-07  0.328E-04    0.09      22.2  T
  33   -347.9723578 -0.759155E-07  0.161E-04    0.09      45.2  T
  34   -347.9723578 -0.193536E-07  0.749E-05    0.09      97.2  T
     SCC iter.                  ...        0 min,  7.904 sec
     gradient                   ...        0 min,  0.825 sec
 * total energy  :  -341.9952455 Eh     change       -0.6703980E-02 Eh
   gradient norm :     0.0433855 Eh/α   predicted    -0.7896575E-02 (  17.79%)
   displ. norm   :     0.6006659 α      lambda       -0.8492686E-02
   maximum displ.:     0.2724805 α      in ANC's #33, #74, #66, ...

........................................................................
.............................. CYCLE   13 ..............................
........................................................................
   1   -347.9891250 -0.347989E+03  0.831E-02    0.08       0.0  T
   2   -333.0036200  0.149855E+02  0.378E+00    0.00       1.0  T
   3   -347.8455472 -0.148419E+02  0.388E-01    0.09       1.0  T
   4   -344.6394964  0.320605E+01  0.181E+00    0.00       1.0  T
   5   -346.8634332 -0.222394E+01  0.119E+00    0.02       1.0  T
   6   -345.4464348  0.141700E+01  0.159E+00    0.00       1.0  T
   7   -347.9122056 -0.246577E+01  0.300E-01    0.12       1.0  T
   8   -347.9381935 -0.259879E-01  0.239E-01    0.10       1.0  T
   9   -347.9597205 -0.215270E-01  0.187E-01    0.09       1.0  T
  10   -347.9745387 -0.148182E-01  0.144E-01    0.10       1.0  T
  11   -347.9581082  0.164305E-01  0.192E-01    0.09       1.0  T
  12   -347.9828134 -0.247052E-01  0.115E-01    0.10       1.0  T
  13   -347.9804991  0.231431E-02  0.121E-01    0.09       1.0  T
  14   -347.9951272 -0.146282E-01  0.256E-02    0.09       1.0  T
  15   -347.9925653  0.256195E-02  0.575E-02    0.09       1.0  T
  16   -347.9934555 -0.890175E-03  0.493E-02    0.09       1.0  T
  17   -347.9951844 -0.172891E-02  0.279E-02    0.09       1.0  T
  18   -347.9948027  0.381697E-03  0.340E-02    0.09       1.0  T
  19   -347.9949656 -0.162903E-03  0.308E-02    0.09       1.0  T
  20   -347.9952797 -0.314074E-03  0.242E-02    0.09       1.0  T
  21   -347.9955520 -0.272299E-03  0.167E-02    0.09       1.0  T
  22   -347.9957109 -0.158942E-03  0.109E-02    0.09       1.0  T
  23   -347.9957717 -0.608246E-04  0.778E-03    0.09       1.0  T
  24   -347.9957989 -0.271475E-04  0.575E-03    0.09       1.3  T
  25   -347.9958118 -0.129113E-04  0.436E-03    0.09       1.7  T
  26   -347.9958214 -0.965944E-05  0.312E-03    0.09       2.3  T
  27   -347.9958256 -0.421183E-05  0.243E-03    0.09       3.0  T
  28   -347.9958268 -0.113626E-05  0.220E-03    0.09       3.3  T
  29   -347.9958305 -0.372693E-05  0.111E-03    0.09       6.6  T
  30   -347.9958316 -0.106286E-05  0.413E-04    0.09      17.6  T
  31   -347.9958317 -0.138170E-06  0.167E-04    0.09      43.5  T
  32   -347.9958317 -0.253443E-07  0.497E-05    0.09     146.2  T
     SCC iter.                  ...        0 min,  7.141 sec
     gradient                   ...        0 min,  0.789 sec
 * total energy  :  -341.9972357 Eh     change       -0.1990202E-02 Eh
   gradient norm :     0.0580872 Eh/α   predicted    -0.5778423E-02 ( 190.34%)
   displ. norm   :     0.4447599 α      lambda       -0.7696365E-02
   maximum displ.:     0.1773215 α      in ANC's #74, #33, #66, ...

........................................................................
.............................. CYCLE   14 ..............................
........................................................................
   1   -348.0187172 -0.348019E+03  0.331E-02    0.08       0.0  T
   2   -336.0132894  0.120054E+02  0.339E+00    0.00       1.0  T
   3   -346.4880115 -0.104747E+02  0.123E+00    0.01       1.0  T
   4   -344.7344620  0.175355E+01  0.178E+00    0.00       1.0  T
   5   -347.9395742 -0.320511E+01  0.305E-01    0.05       1.0  T
   6   -345.0508310  0.288874E+01  0.171E+00    0.01       1.0  T
   7   -346.6696484 -0.161882E+01  0.115E+00    0.02       1.0  T
   8   -347.5284930 -0.858845E+00  0.708E-01    0.04       1.0  T
   9   -347.7248484 -0.196355E+00  0.535E-01    0.06       1.0  T
  10   -347.9622272 -0.237379E+00  0.235E-01    0.09       1.0  T
  11   -348.0122115 -0.499843E-01  0.847E-02    0.08       1.0  T
  12   -347.9920795  0.201321E-01  0.162E-01    0.09       1.0  T
  13   -348.0051379 -0.130584E-01  0.119E-01    0.10       1.0  T
  14   -348.0180937 -0.129558E-01  0.377E-02    0.09       1.0  T
  15   -348.0154954  0.259824E-02  0.627E-02    0.10       1.0  T
  16   -348.0191386 -0.364319E-02  0.195E-02    0.09       1.0  T
  17   -348.0190855  0.531137E-04  0.206E-02    0.09       1.0  T
  18   -348.0190585  0.269928E-04  0.213E-02    0.09       1.0  T
  19   -348.0192615 -0.203021E-03  0.161E-02    0.09       1.0  T
  20   -348.0193893 -0.127780E-03  0.111E-02    0.09       1.0  T
  21   -348.0194192 -0.298670E-04  0.954E-03    0.09       1.0  T
  22   -348.0194485 -0.293213E-04  0.785E-03    0.09       1.0  T
  23   -348.0194614 -0.129276E-04  0.693E-03    0.09       1.0  T
  24   -348.0194763 -0.148518E-04  0.570E-03    0.09       1.3  T
  25   -348.0194951 -0.188469E-04  0.360E-03    0.09       2.0  T
  26   -348.0195037 -0.855756E-05  0.201E-03    0.09       3.6  T
  27   -348.0195063 -0.262060E-05  0.116E-03    0.09       6.3  T
  28   -348.0195072 -0.873861E-06  0.656E-04    0.09      11.1  T
  29   -348.0195073 -0.100105E-06  0.564E-04    0.09      12.9  T
  30   -348.0195074 -0.113641E-06  0.446E-04    0.09      16.3  T
  31   -348.0195075 -0.124386E-06  0.266E-04    0.09      27.4  T
  32   -348.0195075 -0.397239E-07  0.168E-04    0.09      43.2  T
  33   -348.0195076 -0.201758E-07  0.829E-05    0.09      87.7  T
     SCC iter.                  ...        0 min,  7.045 sec
     gradient                   ...        0 min,  0.791 sec
 * total energy  :  -342.0014904 Eh     change       -0.4254728E-02 Eh
   gradient norm :     0.0386002 Eh/α   predicted    -0.4609406E-02 (   8.34%)
   displ. norm   :     0.4720829 α      lambda       -0.5923629E-02
   maximum displ.:     0.2389469 α      in ANC's #33, #101, #35, ...

........................................................................
.............................. CYCLE   15 ..............................
........................................................................
   1   -348.0395519 -0.348040E+03  0.386E-02    0.10       0.0  T
   2   -336.4184787  0.116211E+02  0.334E+00    0.01       1.0  T
   3   -346.0270638 -0.960859E+01  0.142E+00    0.00       1.0  T
   4   -343.8494360  0.217763E+01  0.200E+00    0.02       1.0  T
   5   -347.7408716 -0.389144E+01  0.554E-01    0.05       1.0  T
   6   -340.1964966  0.754437E+01  0.275E+00    0.01       1.0  T
   7   -347.6498589 -0.745336E+01  0.629E-01    0.07       1.0  T
   8   -347.6268494  0.230095E-01  0.615E-01    0.02       1.0  T
   9   -347.9784397 -0.351590E+00  0.253E-01    0.09       1.0  T
  10   -348.0244829 -0.460433E-01  0.123E-01    0.10       1.0  T
  11   -347.9979457  0.265372E-01  0.209E-01    0.09       1.0  T
  12   -348.0268466 -0.289009E-01  0.115E-01    0.11       1.0  T
  13   -348.0172753  0.957127E-02  0.153E-01    0.10       1.0  T
  14   -348.0301167 -0.128413E-01  0.103E-01    0.10       1.0  T
  15   -348.0267933  0.332334E-02  0.117E-01    0.10       1.0  T
  16   -348.0319199 -0.512661E-02  0.929E-02    0.10       1.0  T
  17   -348.0334743 -0.155440E-02  0.842E-02    0.10       1.0  T
  18   -348.0374815 -0.400718E-02  0.548E-02    0.11       1.0  T
  19   -348.0391019 -0.162039E-02  0.368E-02    0.11       1.0  T
  20   -348.0401390 -0.103710E-02  0.173E-02    0.11       1.0  T
  21   -348.0402776 -0.138647E-03  0.126E-02    0.11       1.0  T
  22   -348.0402818 -0.419561E-05  0.123E-02    0.11       1.0  T
  23   -348.0403544 -0.725971E-04  0.872E-03    0.11       1.0  T
  24   -348.0403809 -0.264483E-04  0.679E-03    0.11       1.1  T
  25   -348.0403762  0.471917E-05  0.701E-03    0.11       1.0  T
  26   -348.0403741  0.203300E-05  0.702E-03    0.11       1.0  T
  27   -348.0403939 -0.197515E-04  0.526E-03    0.11       1.4  T
  28   -348.0404082 -0.143452E-04  0.346E-03    0.11       2.1  T
  29   -348.0404178 -0.952132E-05  0.133E-03    0.11       5.5  T
  30   -348.0404192 -0.140624E-05  0.517E-04    0.11      14.1  T
  31   -348.0404194 -0.239635E-06  0.106E-04    0.11      68.6  T
  32   -348.0404194 -0.531406E-08  0.578E-05    0.11     125.8  T
     SCC iter.                  ...        0 min,  6.945 sec
     gradient                   ...        0 min,  0.800 sec
 * total energy  :  -342.0026604 Eh     change       -0.1169955E-02 Eh
   gradient norm :     0.0495315 Eh/α   predicted    -0.3621896E-02 ( 209.58%)
   displ. norm   :     0.4375016 α      lambda       -0.5056203E-02
   maximum displ.:     0.2072029 α      in ANC's #34, #33, #31, ...

........................................................................
.............................. CYCLE   16 ..............................
........................................................................
   1   -348.0516519 -0.348052E+03  0.473E-02    0.12       0.0  T
   2   -335.5220665  0.125296E+02  0.346E+00    0.01       1.0  T
   3   -346.1252876 -0.106032E+02  0.139E+00    0.01       1.0  T
   4   -337.8713720  0.825392E+01  0.310E+00    0.03       1.0  T
   5   -348.0343078 -0.101629E+02  0.136E-01    0.12       1.0  T
   6   -345.3556036  0.267870E+01  0.163E+00    0.01       1.0  T
   7   -347.7157638 -0.236016E+01  0.581E-01    0.07       1.0  T
   8   -347.8094996 -0.937358E-01  0.524E-01    0.08       1.0  T
   9   -347.9986736 -0.189174E+00  0.227E-01    0.10       1.0  T
  10   -348.0450486 -0.463750E-01  0.907E-02    0.12       1.0  T
  11   -348.0326776  0.123710E-01  0.141E-01    0.12       1.0  T
  12   -348.0453648 -0.126872E-01  0.894E-02    0.13       1.0  T
  13   -348.0497803 -0.441543E-02  0.583E-02    0.12       1.0  T
  14   -348.0518248 -0.204455E-02  0.388E-02    0.13       1.0  T
  15   -348.0519756 -0.150760E-03  0.371E-02    0.13       1.0  T
  16   -348.0528129 -0.837310E-03  0.227E-02    0.13       1.0  T
  17   -348.0526022  0.210709E-03  0.270E-02    0.13       1.0  T
  18   -348.0530078 -0.405600E-03  0.175E-02    0.13       1.0  T
  19   -348.0532700 -0.262248E-03  0.622E-03    0.13       1.2  T
  20   -348.0532850 -0.150031E-04  0.484E-03    0.13       1.5  T
  21   -348.0532581  0.269607E-04  0.717E-03    0.12       1.0  T
  22   -348.0532600 -0.192441E-05  0.702E-03    0.12       1.0  T
  23   -348.0532647 -0.464864E-05  0.665E-03    0.12       1.1  T
  24   -348.0532857 -0.210692E-04  0.474E-03    0.13       1.5  T
  25   -348.0533028 -0.170786E-04  0.216E-03    0.13       3.4  T
  26   -348.0533065 -0.371752E-05  0.917E-04    0.13       7.9  T
  27   -348.0533070 -0.468394E-06  0.597E-04    0.13      12.2  T
  28   -348.0533072 -0.219317E-06  0.362E-04    0.13      20.1  T
  29   -348.0533073 -0.700669E-07  0.243E-04    0.13      29.9  T
  30   -348.0533073 -0.391036E-07  0.136E-04    0.13      53.6  T
  31   -348.0533073 -0.805994E-08  0.987E-05    0.13      73.7  T
     SCC iter.                  ...        0 min,  6.746 sec
     gradient                   ...        0 min,  0.885 sec
 * total energy  :  -342.0056202 Eh     change       -0.2959841E-02 Eh
   gradient norm :     0.0218390 Eh/α   predicted    -0.3012001E-02 (   1.76%)
   displ. norm   :     0.5546780 α      lambda       -0.4566303E-02
   maximum displ.:     0.3422319 α      in ANC's #33, #35, #19, ...

........................................................................
.............................. CYCLE   17 ..............................
........................................................................
   1   -348.0605884 -0.348061E+03  0.495E-02    0.13       0.0  T
   2   -347.7102107  0.350378E+00  0.609E-01    0.09       1.0  T
   3   -336.9545698  0.107556E+02  0.326E+00    0.01       1.0  T
   4   -345.4288295 -0.847426E+01  0.161E+00    0.01       1.0  T
   5   -347.4728805 -0.204405E+01  0.755E-01    0.05       1.0  T
   6   -347.4107148  0.621657E-01  0.801E-01    0.05       1.0  T
   7   -347.8655565 -0.454842E+00  0.444E-01    0.08       1.0  T
   8   -348.0194523 -0.153896E+00  0.205E-01    0.11       1.0  T
   9   -348.0481121 -0.286598E-01  0.123E-01    0.12       1.0  T
  10   -348.0440022  0.410992E-02  0.140E-01    0.13       1.0  T
  11   -348.0588033 -0.148012E-01  0.596E-02    0.13       1.0  T
  12   -348.0594697 -0.666416E-03  0.569E-02    0.13       1.0  T
  13   -348.0572640  0.220570E-02  0.695E-02    0.13       1.0  T
  14   -348.0585835 -0.131942E-02  0.609E-02    0.13       1.0  T
  15   -348.0621292 -0.354578E-02  0.157E-02    0.14       1.0  T
  16   -348.0620220  0.107282E-03  0.185E-02    0.14       1.0  T
  17   -348.0622896 -0.267666E-03  0.874E-03    0.14       1.0  T
  18   -348.0621981  0.914937E-04  0.132E-02    0.14       1.0  T
  19   -348.0621661  0.320154E-04  0.143E-02    0.14       1.0  T
  20   -348.0621996 -0.334498E-04  0.131E-02    0.14       1.0  T
  21   -348.0622452 -0.456704E-04  0.111E-02    0.14       1.0  T
  22   -348.0623023 -0.570539E-04  0.813E-03    0.14       1.0  T
  23   -348.0623391 -0.367767E-04  0.533E-03    0.14       1.4  T
  24   -348.0623538 -0.147139E-04  0.362E-03    0.14       2.0  T
  25   -348.0623593 -0.548052E-05  0.273E-03    0.14       2.7  T
  26   -348.0623622 -0.291105E-05  0.210E-03    0.14       3.5  T
  27   -348.0623635 -0.136741E-05  0.172E-03    0.14       4.2  T
  28   -348.0623654 -0.183529E-05  0.102E-03    0.14       7.1  T
  29   -348.0623663 -0.940737E-06  0.214E-04    0.14      34.0  T
  30   -348.0623664 -0.405765E-07  0.451E-05    0.14     161.1  T
  31   -348.0623664 -0.180597E-08  0.113E-05    0.14     641.9  T
     SCC iter.                  ...        0 min,  7.010 sec
     gradient                   ...        0 min,  0.838 sec
 * total energy  :  -342.0051630 Eh     change        0.4571879E-03 Eh
   gradient norm :     0.0580826 Eh/α   predicted    -0.2985609E-02 (-753.04%)
   displ. norm   :     0.3149866 α      lambda       -0.5882767E-02
   maximum displ.:     0.1236209 α      in ANC's #34, #33, #35, ...

........................................................................
.............................. CYCLE   18 ..............................
........................................................................
   1   -348.0727197 -0.348073E+03  0.185E-02    0.14       0.0  T
   2   -346.2989836  0.177374E+01  0.133E+00    0.01       1.0  T
   3   -348.0311157 -0.173213E+01  0.210E-01    0.11       1.0  T
   4   -347.9070509  0.124065E+00  0.410E-01    0.09       1.0  T
   5   -347.8018249  0.105226E+00  0.517E-01    0.08       1.0  T
   6   -347.9209371 -0.119112E+00  0.380E-01    0.08       1.0  T
   7   -347.6821912  0.238746E+00  0.619E-01    0.06       1.0  T
   8   -347.6611380  0.210532E-01  0.636E-01    0.06       1.0  T
   9   -347.7609704 -0.998324E-01  0.552E-01    0.08       1.0  T
  10   -347.9811891 -0.220219E+00  0.298E-01    0.10       1.0  T
  11   -348.0664368 -0.852477E-01  0.777E-02    0.13       1.0  T
  12   -348.0669592 -0.522355E-03  0.805E-02    0.13       1.0  T
  13   -348.0644958  0.246338E-02  0.963E-02    0.13       1.0  T
  14   -348.0653635 -0.867762E-03  0.916E-02    0.13       1.0  T
  15   -348.0656886 -0.325085E-03  0.900E-02    0.13       1.0  T
  16   -348.0690641 -0.337545E-02  0.626E-02    0.13       1.0  T
  17   -348.0721051 -0.304098E-02  0.288E-02    0.13       1.0  T
  18   -348.0725173 -0.412217E-03  0.217E-02    0.14       1.0  T
  19   -348.0729225 -0.405232E-03  0.832E-03    0.14       1.0  T
  20   -348.0729109  0.116488E-04  0.915E-03    0.14       1.0  T
  21   -348.0729366 -0.257673E-04  0.739E-03    0.14       1.0  T
  22   -348.0729719 -0.353093E-04  0.405E-03    0.14       1.8  T
  23   -348.0729829 -0.110103E-04  0.192E-03    0.14       3.8  T
  24   -348.0729859 -0.293988E-05  0.648E-04    0.14      11.2  T
  25   -348.0729862 -0.293914E-06  0.319E-04    0.14      22.8  T
  26   -348.0729862 -0.158404E-07  0.287E-04    0.14      25.3  T
  27   -348.0729862 -0.212203E-07  0.245E-04    0.14      29.7  T
  28   -348.0729862 -0.318962E-07  0.166E-04    0.14      43.9  T
  29   -348.0729863 -0.153660E-07  0.109E-04    0.14      67.0  T
     SCC iter.                  ...        0 min,  6.506 sec
     gradient                   ...        0 min,  0.787 sec
 * total energy  :  -342.0083029 Eh     change       -0.3139902E-02 Eh
   gradient norm :     0.0181613 Eh/α   predicted    -0.3233220E-02 (   2.97%)
   displ. norm   :     0.4766040 α      lambda       -0.2766615E-02
   maximum displ.:     0.1893586 α      in ANC's #33, #34, #19, ...

........................................................................
.............................. CYCLE   19 ..............................
........................................................................
   1   -348.0767037 -0.348077E+03  0.544E-02    0.14       0.0  T
   2   -344.0943342  0.398237E+01  0.199E+00    0.00       1.0  T
   3   -339.8455249  0.424881E+01  0.279E+00    0.05       1.0  T
   4   -347.3211604 -0.747564E+01  0.971E-01    0.06       1.0  T
   5   -348.0347919 -0.713631E+00  0.218E-01    0.11       1.0  T
   6   -347.8800104  0.154782E+00  0.441E-01    0.08       1.0  T
   7   -348.0525177 -0.172507E+00  0.168E-01    0.13       1.0  T
   8   -348.0569601 -0.444236E-02  0.151E-01    0.12       1.0  T
   9   -348.0569501  0.100276E-04  0.149E-01    0.12       1.0  T
  10   -348.0519525  0.499756E-02  0.166E-01    0.13       1.0  T
  11   -348.0687395 -0.167870E-01  0.103E-01    0.13       1.0  T
  12   -348.0742262 -0.548675E-02  0.708E-02    0.13       1.0  T
  13   -348.0781906 -0.396436E-02  0.351E-02    0.14       1.0  T
  14   -348.0788057 -0.615146E-03  0.239E-02    0.14       1.0  T
  15   -348.0792805 -0.474730E-03  0.100E-02    0.14       1.0  T
  16   -348.0793642 -0.837407E-04  0.474E-03    0.14       1.5  T
  17   -348.0793650 -0.764128E-06  0.473E-03    0.14       1.5  T
  18   -348.0793740 -0.907946E-05  0.361E-03    0.14       2.0  T
  19   -348.0793761 -0.205342E-05  0.333E-03    0.14       2.2  T
  20   -348.0793773 -0.115664E-05  0.314E-03    0.14       2.3  T
  21   -348.0793799 -0.266480E-05  0.267E-03    0.14       2.7  T
  22   -348.0793821 -0.216920E-05  0.222E-03    0.14       3.3  T
  23   -348.0793840 -0.191401E-05  0.173E-03    0.14       4.2  T
  24   -348.0793853 -0.129864E-05  0.131E-03    0.14       5.5  T
  25   -348.0793861 -0.846831E-06  0.944E-04    0.14       7.7  T
  26   -348.0793867 -0.517263E-06  0.584E-04    0.14      12.5  T
  27   -348.0793868 -0.162497E-06  0.372E-04    0.14      19.5  T
  28   -348.0793869 -0.975721E-07  0.103E-04    0.14      70.5  T
  29   -348.0793869 -0.647009E-08  0.472E-05    0.14     154.2  T
     SCC iter.                  ...        0 min,  6.149 sec
     gradient                   ...        0 min,  0.792 sec
 * total energy  :  -342.0087333 Eh     change       -0.4304203E-03 Eh
   gradient norm :     0.0225774 Eh/α   predicted    -0.1697531E-02 ( 294.39%)
   displ. norm   :     0.4572451 α      lambda       -0.3388023E-02
   maximum displ.:     0.2565165 α      in ANC's #33, #51, #19, ...

........................................................................
.............................. CYCLE   20 ..............................
........................................................................
   1   -348.0830598 -0.348083E+03  0.529E-02    0.13       0.0  T
   2   -345.0701887  0.301287E+01  0.175E+00    0.00       1.0  T
   3   -347.5139553 -0.244377E+01  0.841E-01    0.07       1.0  T
   4   -347.8519903 -0.338035E+00  0.480E-01    0.08       1.0  T
   5   -347.9843790 -0.132389E+00  0.320E-01    0.10       1.0  T
   6   -348.0272927 -0.429137E-01  0.243E-01    0.12       1.0  T
   7   -348.0739374 -0.466447E-01  0.111E-01    0.13       1.0  T
   8   -348.0556271  0.183104E-01  0.172E-01    0.12       1.0  T
   9   -348.0849224 -0.292953E-01  0.258E-02    0.14       1.0  T
  10   -348.0832133  0.170913E-02  0.476E-02    0.13       1.0  T
  11   -348.0843001 -0.108681E-02  0.355E-02    0.13       1.0  T
  12   -348.0846652 -0.365121E-03  0.301E-02    0.13       1.0  T
  13   -348.0851331 -0.467858E-03  0.212E-02    0.13       1.0  T
  14   -348.0847721  0.361021E-03  0.288E-02    0.13       1.0  T
  15   -348.0851078 -0.335699E-03  0.220E-02    0.13       1.0  T
  16   -348.0855577 -0.449919E-03  0.537E-03    0.13       1.4  T
  17   -348.0854502  0.107534E-03  0.117E-02    0.13       1.0  T
  18   -348.0854872 -0.370533E-04  0.985E-03    0.13       1.0  T
  19   -348.0855738 -0.866251E-04  0.311E-03    0.13       2.3  T
  20   -348.0855809 -0.709175E-05  0.158E-03    0.13       4.6  T
  21   -348.0855816 -0.704764E-06  0.127E-03    0.13       5.7  T
  22   -348.0855820 -0.389909E-06  0.101E-03    0.13       7.2  T
  23   -348.0855826 -0.563155E-06  0.545E-04    0.13      13.3  T
  24   -348.0855828 -0.195244E-06  0.308E-04    0.13      23.6  T
  25   -348.0855828 -0.732920E-07  0.134E-04    0.13      54.1  T
  26   -348.0855829 -0.156979E-07  0.413E-05    0.13     176.1  T
     SCC iter.                  ...        0 min,  5.629 sec
     gradient                   ...        0 min,  0.805 sec
 * total energy  :  -342.0104021 Eh     change       -0.1668803E-02 Eh
   gradient norm :     0.0226247 Eh/α   predicted    -0.2048187E-02 (  22.73%)
   displ. norm   :     0.4939308 α      lambda       -0.3036681E-02
   maximum displ.:     0.2583951 α      in ANC's #33, #35, #19, ...
 * RMSD in coord.:     0.5821944 α      energy gain  -0.9459784E+00 Eh

generating ANC from model Hessian ...
Using Lindh-Hessian (1995)
 Shifting diagonal of input Hessian by    1.0036504362002195E-002
 Lowest  eigenvalues of input Hessian
    0.010000    0.010013    0.010024    0.010027    0.010028    0.010031
    0.010035    0.000000    0.000000    0.000000    0.000000    0.000000
    0.000000    0.010044    0.010056    0.010073    0.010076    0.010105
 Highest eigenvalues
    2.643439    2.643777    2.769150    2.770200    2.987306    2.990939


........................................................................
.............................. CYCLE   21 ..............................
........................................................................
   1   -348.0919073 -0.348092E+03  0.229E-02    0.13       0.0  T
   2   -343.2963309  0.479558E+01  0.216E+00    0.00       1.0  T
   3   -346.1975561 -0.290123E+01  0.136E+00    0.01       1.0  T
   4   -348.0331294 -0.183557E+01  0.237E-01    0.11       1.0  T
   5   -347.2735048  0.759625E+00  0.944E-01    0.03       1.0  T
   6   -347.0597339  0.213771E+00  0.999E-01    0.02       1.0  T
   7   -347.8250221 -0.765288E+00  0.518E-01    0.08       1.0  T
   8   -347.7848050  0.402171E-01  0.546E-01    0.07       1.0  T
   9   -348.0809883 -0.296183E+00  0.102E-01    0.12       1.0  T
  10   -348.0785382  0.245012E-02  0.116E-01    0.13       1.0  T
  11   -348.0906365 -0.120984E-01  0.414E-02    0.14       1.0  T
  12   -348.0889741  0.166243E-02  0.563E-02    0.13       1.0  T
  13   -348.0919395 -0.296535E-02  0.197E-02    0.13       1.0  T
  14   -348.0919024  0.370086E-04  0.211E-02    0.13       1.0  T
  15   -348.0920162 -0.113797E-03  0.184E-02    0.13       1.0  T
  16   -348.0918764  0.139817E-03  0.218E-02    0.13       1.0  T
  17   -348.0921789 -0.302454E-03  0.128E-02    0.13       1.0  T
  18   -348.0923112 -0.132301E-03  0.593E-03    0.13       1.2  T
  19   -348.0923167 -0.556301E-05  0.565E-03    0.13       1.3  T
  20   -348.0923150  0.174970E-05  0.589E-03    0.13       1.2  T
  21   -348.0923036  0.113690E-04  0.676E-03    0.13       1.1  T
  22   -348.0923062 -0.256007E-05  0.614E-03    0.13       1.2  T
  23   -348.0923058  0.343274E-06  0.583E-03    0.13       1.2  T
  24   -348.0923088 -0.296523E-05  0.537E-03    0.13       1.4  T
  25   -348.0923126 -0.380776E-05  0.494E-03    0.13       1.5  T
  26   -348.0923154 -0.281137E-05  0.462E-03    0.13       1.6  T
  27   -348.0923220 -0.658457E-05  0.380E-03    0.13       1.9  T
  28   -348.0923318 -0.978073E-05  0.210E-03    0.13       3.5  T
  29   -348.0923359 -0.409442E-05  0.454E-04    0.13      16.0  T
  30   -348.0923361 -0.188372E-06  0.106E-04    0.13      68.4  T
  31   -348.0923361 -0.861786E-08  0.482E-05    0.13     150.8  T
     SCC iter.                  ...        0 min,  6.827 sec
     gradient                   ...        0 min,  0.752 sec
 * total energy  :  -342.0113072 Eh     change       -0.9050827E-03 Eh
   gradient norm :     0.0188688 Eh/α   predicted     0.0000000E+00 (-100.00%)
   displ. norm   :     0.2075613 α      lambda       -0.1112727E-02
   maximum displ.:     0.0986710 α      in ANC's #35, #34, #33, ...

........................................................................
.............................. CYCLE   22 ..............................
........................................................................
   1   -348.0945963 -0.348095E+03  0.131E-02    0.13       0.0  T
   2   -340.7115104  0.738309E+01  0.268E+00    0.02       1.0  T
   3   -348.0860519 -0.737454E+01  0.984E-02    0.11       1.0  T
   4   -346.2302263  0.185583E+01  0.135E+00    0.00       1.0  T
   5   -347.8231409 -0.159291E+01  0.527E-01    0.08       1.0  T
   6   -348.0658516 -0.242711E+00  0.172E-01    0.12       1.0  T
   7   -348.0485759  0.172756E-01  0.211E-01    0.11       1.0  T
   8   -347.9486536  0.999223E-01  0.384E-01    0.09       1.0  T
   9   -348.0887143 -0.140061E+00  0.779E-02    0.12       1.0  T
  10   -348.0782853  0.104290E-01  0.126E-01    0.12       1.0  T
[...]
   136   6 C    3.959 --   137 C    1.630   135 C    1.191   174 H    0.973
   137   6 C    3.959 --   136 C    1.630   138 C    1.190   175 H    0.973
   138   6 C    3.904 --   140 C    1.272   139 N    1.223   137 C    1.190
   139   7 N    3.377 --   135 C    1.236   138 C    1.223   133 Fe   0.654
   140   6 C    3.927 --   149 C    1.272   138 C    1.272   141 C    1.161
   141   6 C    3.956 --   142 C    2.621   140 C    1.161
   142   6 C    3.927 --   141 C    2.621   143 C    1.141
   143   6 C    3.987 --   144 C    1.350   148 C    1.350   142 C    1.141
   144   6 C    3.972 --   145 C    1.456   143 C    1.350   176 H    0.974
                           147 C    0.104
   145   6 C    3.972 --   144 C    1.456   146 N    1.408   177 H    0.972
                           148 C    0.104
   146   7 N    2.994 --   145 C    1.408   147 C    1.408
   147   6 C    3.972 --   148 C    1.456   146 N    1.408   178 H    0.972
                           144 C    0.104
   148   6 C    3.972 --   147 C    1.456   143 C    1.350   179 H    0.974
                           145 C    0.104
   149   6 C    3.904 --   140 C    1.272   152 N    1.224   150 C    1.190
   150   6 C    3.959 --   151 C    1.631   149 C    1.190   180 H    0.974
   151   6 C    3.958 --   150 C    1.631   153 C    1.191   181 H    0.973
   152   7 N    3.377 --   153 C    1.235   149 C    1.224   133 Fe   0.655
   153   6 C    3.896 --   154 C    1.255   152 N    1.235   151 C    1.191
   154   6 C    3.924 --   153 C    1.255   155 C    1.253   125 C    1.198
   155   6 C    3.896 --   154 C    1.253   159 N    1.237   156 C    1.191
   156   6 C    3.959 --   157 C    1.630   155 C    1.191   182 H    0.973
   157   6 C    3.959 --   156 C    1.630   158 C    1.190   183 H    0.973
   158   6 C    3.904 --   160 C    1.273   159 N    1.222   157 C    1.190
   159   7 N    3.376 --   155 C    1.237   158 C    1.222   133 Fe   0.654
   160   6 C    3.927 --   158 C    1.273   169 C    1.270   161 C    1.161
   161   6 C    3.956 --   162 C    2.621   160 C    1.161
   162   6 C    3.927 --   161 C    2.621   163 C    1.141
   163   6 C    3.987 --   164 C    1.350   168 C    1.350   162 C    1.141
   164   6 C    3.972 --   165 C    1.456   163 C    1.350   184 H    0.974
                           167 C    0.104
   165   6 C    3.972 --   164 C    1.456   166 N    1.408   185 H    0.972
                           168 C    0.104
   166   7 N    2.994 --   167 C    1.408   165 C    1.408
   167   6 C    3.972 --   168 C    1.456   166 N    1.408   186 H    0.972
                           164 C    0.104
   168   6 C    3.972 --   167 C    1.456   163 C    1.350   187 H    0.974
                           165 C    0.104
   169   6 C    3.904 --   160 C    1.270   173 N    1.225   170 C    1.190
   170   6 C    3.959 --   171 C    1.630   169 C    1.190   188 H    0.974
   171   6 C    3.959 --   170 C    1.630   172 C    1.191   189 H    0.973
   172   6 C    3.897 --   134 C    1.257   173 N    1.233   171 C    1.191
   173   7 N    3.377 --   172 C    1.233   169 C    1.225   133 Fe   0.656
   174   1 H    1.001 --   136 C    0.973
   175   1 H    1.002 --   137 C    0.973
   176   1 H    1.002 --   144 C    0.974
   177   1 H    1.013 --   145 C    0.972
   178   1 H    1.013 --   147 C    0.972
   179   1 H    1.002 --   148 C    0.974
   180   1 H    1.002 --   150 C    0.974
   181   1 H    1.001 --   151 C    0.973
   182   1 H    1.001 --   156 C    0.973
   183   1 H    1.002 --   157 C    0.973
   184   1 H    1.002 --   164 C    0.974
   185   1 H    1.013 --   165 C    0.972
   186   1 H    1.013 --   167 C    0.972
   187   1 H    1.002 --   168 C    0.974
   188   1 H    1.002 --   170 C    0.974
   189   1 H    1.001 --   171 C    0.973
 ---------------------------------------------------------------------------

Topologies differ in total number of bonds
Writing topology from bond orders to xtbtopo.mol

 dipole moment from electron density (au)
     X       Y       Z   
   0.0752  -0.2105   0.2720  total (Debye):    0.895

           -------------------------------------------------
          |                Geometry Summary                 |
           -------------------------------------------------

      molecular mass/u    :     1887.3199648
   center of mass at/Å    :       45.7793873      -0.3117970      -0.2038179
  moments of inertia/u·Å² :        0.4763133E+05   0.4308489E+06   0.4440776E+06
rotational constants/cm⁻¹ :        0.3539190E-03   0.3912656E-04   0.3796100E-04

 * 184 selected distances

     #   Z          #   Z                                           value/Å
     2   6 C        3   6 C                                       1.3790105
     3   6 C        4   6 C                                       1.4318315
     4   6 C        5   6 C                                       1.3543227
     5   6 C        6   6 C                                       1.4318149
     3   6 C        7   7 N                                       1.3723172
     6   6 C        7   7 N                                       1.3639542
     6   6 C        8   6 C                                       1.3965698
     9   6 C       10   6 C                                       1.2135012
    11   6 C       12   6 C                                       1.3997978
    12   6 C       13   6 C                                       1.3834894
    13   6 C       14   7 N                                       1.3306025
    14   7 N       15   6 C                                       1.3305779
    11   6 C       16   6 C                                       1.3997327
    15   6 C       16   6 C                                       1.3835212
     8   6 C       17   6 C                                       1.3949028
    17   6 C       18   6 C                                       1.4296883
    18   6 C       19   6 C                                       1.3552781
    17   6 C       20   7 N                                       1.3692505
    19   6 C       21   6 C                                       1.4293099
    20   7 N       21   6 C                                       1.3666413
    21   6 C       22   6 C                                       1.3980408
    22   6 C       23   6 C                                       1.3982364
    23   6 C       24   6 C                                       1.4293019
    24   6 C       25   6 C                                       1.3553661
    25   6 C       26   6 C                                       1.4296472
    23   6 C       27   7 N                                       1.3666141
    26   6 C       27   7 N                                       1.3692853
    26   6 C       28   6 C                                       1.3949278
    29   6 C       30   6 C                                       1.2135244
    31   6 C       32   6 C                                       1.3997217
    32   6 C       33   6 C                                       1.3835356
    33   6 C       34   7 N                                       1.3305869
    34   7 N       35   6 C                                       1.3305989
    31   6 C       36   6 C                                       1.3998523
    35   6 C       36   6 C                                       1.3835016
    28   6 C       37   6 C                                       1.3966442
    37   6 C       38   6 C                                       1.4318415
    38   6 C       39   6 C                                       1.3542771
     2   6 C       40   6 C                                       1.3789491
    39   6 C       40   6 C                                       1.4318418
    37   6 C       41   7 N                                       1.3639793
    40   6 C       41   7 N                                       1.3724234
     2   6 C       42   1 H                                       1.0842754
     4   6 C       43   1 H                                       1.0783934
     5   6 C       44   1 H                                       1.0782507
    12   6 C       45   1 H                                       1.0832990
    13   6 C       46   1 H                                       1.0861917
    15   6 C       47   1 H                                       1.0861925
    16   6 C       48   1 H                                       1.0832932
    18   6 C       49   1 H                                       1.0780904
    19   6 C       50   1 H                                       1.0780422
    24   6 C       51   1 H                                       1.0780523
    25   6 C       52   1 H                                       1.0781082
    32   6 C       53   1 H                                       1.0832877
    33   6 C       54   1 H                                       1.0861938
    35   6 C       55   1 H                                       1.0862047
    36   6 C       56   1 H                                       1.0833076
    38   6 C       57   1 H                                       1.0782516
    39   6 C       58   1 H                                       1.0783922
    60   6 C       61   6 C                                       1.3789744
    61   6 C       62   6 C                                       1.4318447 (max)
    62   6 C       63   6 C                                       1.3543195
    63   6 C       64   6 C                                       1.4318186
    61   6 C       65   7 N                                       1.3724129
    64   6 C       65   7 N                                       1.3637539
    64   6 C       66   6 C                                       1.3968142
    67   6 C       68   6 C                                       1.2135045
    69   6 C       70   6 C                                       1.3997629
    70   6 C       71   6 C                                       1.3835284
    71   6 C       72   7 N                                       1.3305964
    72   7 N       73   6 C                                       1.3305744
    69   6 C       74   6 C                                       1.3997922
    73   6 C       74   6 C                                       1.3835071
    66   6 C       75   6 C                                       1.3947481
    75   6 C       76   6 C                                       1.4296440
    76   6 C       77   6 C                                       1.3553581
    75   6 C       78   7 N                                       1.3693025
    77   6 C       79   6 C                                       1.4293554
    78   7 N       79   6 C                                       1.3663361
    79   6 C       80   6 C                                       1.3988210
    80   6 C       81   6 C                                       1.3983770
    81   6 C       82   6 C                                       1.4292887
    82   6 C       83   6 C                                       1.3553460
    83   6 C       84   6 C                                       1.4297070
    81   6 C       85   7 N                                       1.3663057
    84   6 C       85   7 N                                       1.3692923
    84   6 C       86   6 C                                       1.3947350
    87   6 C       88   6 C                                       1.2135252
    89   6 C       90   6 C                                       1.3997481
    90   6 C       91   6 C                                       1.3835200
    91   6 C       92   7 N                                       1.3305857
    92   7 N       93   6 C                                       1.3305833
    89   6 C       94   6 C                                       1.3997698
    93   6 C       94   6 C                                       1.3834974
    86   6 C       95   6 C                                       1.3967985
    95   6 C       96   6 C                                       1.4318003
    96   6 C       97   6 C                                       1.3543360
    60   6 C       98   6 C                                       1.3790441
    97   6 C       98   6 C                                       1.4318277
    95   6 C       99   7 N                                       1.3637454
    98   6 C       99   7 N                                       1.3723540
    60   6 C      100   1 H                                       1.0842924
    62   6 C      101   1 H                                       1.0783948
    63   6 C      102   1 H                                       1.0782468
    70   6 C      103   1 H                                       1.0832895
    71   6 C      104   1 H                                       1.0861874
    73   6 C      105   1 H                                       1.0861975
    74   6 C      106   1 H                                       1.0832957
    76   6 C      107   1 H                                       1.0780998
    77   6 C      108   1 H                                       1.0780256 (min)
    82   6 C      109   1 H                                       1.0780616
    83   6 C      110   1 H                                       1.0780934
    90   6 C      111   1 H                                       1.0832874
    91   6 C      112   1 H                                       1.0861871
    93   6 C      113   1 H                                       1.0861879
    94   6 C      114   1 H                                       1.0832979
    96   6 C      115   1 H                                       1.0782465
    97   6 C      116   1 H                                       1.0783905
   117   6 C      118   6 C                                       1.2248180
   119   6 C      120   6 C                                       1.2310677
   121   6 C      122   6 C                                       1.2311915
   123   6 C      124   6 C                                       1.2251405
   125   6 C      126   6 C                                       1.2254887
   127   6 C      128   6 C                                       1.2315472
   129   6 C      130   6 C                                       1.2316550
   131   6 C      132   6 C                                       1.2252104
   134   6 C      135   6 C                                       1.3999940
   135   6 C      136   6 C                                       1.4290233
   136   6 C      137   6 C                                       1.3562916
   137   6 C      138   6 C                                       1.4294044
   135   6 C      139   7 N                                       1.3650984
   138   6 C      139   7 N                                       1.3680732
   138   6 C      140   6 C                                       1.3969260
   141   6 C      142   6 C                                       1.2136058
   143   6 C      144   6 C                                       1.3996529
   144   6 C      145   6 C                                       1.3835838
   145   6 C      146   7 N                                       1.3304784
   146   7 N      147   6 C                                       1.3304497
   143   6 C      148   6 C                                       1.3997282
   147   6 C      148   6 C                                       1.3835751
   140   6 C      149   6 C                                       1.3968889
   149   6 C      150   6 C                                       1.4293314
   150   6 C      151   6 C                                       1.3562662
   149   6 C      152   7 N                                       1.3679528
   151   6 C      153   6 C                                       1.4292116
   152   7 N      153   6 C                                       1.3653706
   153   6 C      154   6 C                                       1.4000594
   154   6 C      155   6 C                                       1.4003257
   155   6 C      156   6 C                                       1.4290168
   156   6 C      157   6 C                                       1.3562813
   157   6 C      158   6 C                                       1.4294545
   155   6 C      159   7 N                                       1.3648066
   158   6 C      159   7 N                                       1.3683446
   158   6 C      160   6 C                                       1.3966029
   161   6 C      162   6 C                                       1.2136144
   163   6 C      164   6 C                                       1.3997477
   164   6 C      165   6 C                                       1.3835773
   165   6 C      166   7 N                                       1.3305204
   166   7 N      167   6 C                                       1.3305101
   163   6 C      168   6 C                                       1.3997544
   167   6 C      168   6 C                                       1.3835834
   160   6 C      169   6 C                                       1.3972242
   169   6 C      170   6 C                                       1.4293192
   170   6 C      171   6 C                                       1.3562625
   134   6 C      172   6 C                                       1.3996393
   171   6 C      172   6 C                                       1.4291540
   169   6 C      173   7 N                                       1.3676640
   172   6 C      173   7 N                                       1.3657253
   136   6 C      174   1 H                                       1.0780302
   137   6 C      175   1 H                                       1.0780954
   144   6 C      176   1 H                                       1.0832447
   145   6 C      177   1 H                                       1.0860956
   147   6 C      178   1 H                                       1.0861280
   148   6 C      179   1 H                                       1.0832232
   150   6 C      180   1 H                                       1.0781086
   151   6 C      181   1 H                                       1.0780290
   156   6 C      182   1 H                                       1.0780331
   157   6 C      183   1 H                                       1.0780950
   164   6 C      184   1 H                                       1.0832721
   165   6 C      185   1 H                                       1.0861423
   167   6 C      186   1 H                                       1.0861509
   168   6 C      187   1 H                                       1.0832734
   170   6 C      188   1 H                                       1.0780974
   171   6 C      189   1 H                                       1.0780309

 * 3 distinct bonds (by element types)

   Z      Z             #   av. dist./Å        max./Å        min./Å
   1 H    6 C          50     1.0815532     1.0862047     1.0780256
   6 C    6 C          98     1.3730440     1.4318447     1.2135012
   6 C    7 N          36     1.3552130     1.3724234     1.3304497


optimized geometry written to: xtbopt.xyz


           -------------------------------------------------
          | TOTAL ENERGY             -342.021202637247 Eh   |
          | GRADIENT NORM               0.000582890442 Eh/α |
          | HOMO-LUMO GAP               0.084394552170 eV   |
           -------------------------------------------------

------------------------------------------------------------------------
 * finished run on 2022/07/29 at 18:36:14.065     
------------------------------------------------------------------------
 total:
 * wall-time:     0 d,  0 h, 11 min, 55.472 sec
 *  cpu-time:     0 d,  0 h, 11 min, 50.164 sec
 * ratio c/w:     0.993 speedup
 SCF:
 * wall-time:     0 d,  0 h,  0 min, 24.336 sec
 *  cpu-time:     0 d,  0 h,  0 min, 24.184 sec
 * ratio c/w:     0.994 speedup
 ANC optimizer:
 * wall-time:     0 d,  0 h, 11 min, 30.813 sec
 *  cpu-time:     0 d,  0 h, 11 min, 25.665 sec
 * ratio c/w:     0.993 speedup

