189
 energy: -341.064423810556 gnorm: 1.317281338826 xtb: 6.5.1 (b24c23e)
Fe          26.72820200000000       -0.21796500000000       -0.15078400000000
C           23.34249600000000       -0.07564200000000       -0.10290800000000
C           24.00799200000000        0.71416100000000        0.74461300000000
C           23.36038600000000        1.59969000000000        1.70534700000000
C           24.30489800000000        2.24766400000000        2.36203500000000
C           25.60942100000000        1.80910100000000        1.84664800000000
N           25.42777500000000        0.83158400000000        0.82198900000000
C           26.80279200000000        2.28253000000000        2.25291600000000
C           26.84420500000000        3.29640700000000        3.28312400000000
C           26.88123400000000        4.14162500000000        4.14186500000000
C           26.92614300000000        5.14993800000000        5.16664600000000
C           28.13173600000000        5.79509800000000        5.46592400000000
C           28.15358700000000        6.77167600000000        6.46527100000000
N           27.01254200000000        7.08689100000000        7.13612400000000
C           25.83003100000000        6.47236900000000        6.86165900000000
C           25.76460400000000        5.49035900000000        5.86959800000000
C           28.09769300000000        1.82760200000000        1.68714300000000
C           29.38900800000000        2.44731300000000        2.00806500000000
C           30.32535800000000        1.78525000000000        1.36011200000000
N           28.23810800000000        0.82369700000000        0.87567000000000
C           29.63992200000000        0.73217100000000        0.61974700000000
C           30.23595400000000       -0.20591900000000       -0.13574200000000
C           29.47896600000000       -1.25316100000000       -0.86189400000000
C           30.03184800000000       -2.33403700000000       -1.39862800000000
C           28.98540100000000       -3.05625100000000       -2.09376500000000
C           27.85882500000000       -2.37037800000000       -1.93645900000000
N           28.08057300000000       -1.19775900000000       -1.14944700000000
C           26.56135900000000       -2.74146100000000       -2.55561300000000
C           26.55466200000000       -3.75167800000000       -3.59184200000000
C           26.54952500000000       -4.59341400000000       -4.45486800000000
C           26.54322700000000       -5.59775600000000       -5.48456900000000
C           27.73630400000000       -6.22199100000000       -5.86520500000000
C           27.70843700000000       -7.19460800000000       -6.86830600000000
N           26.53151700000000       -7.52652300000000       -7.46411400000000
C           25.36016800000000       -6.93279400000000       -7.10964900000000
C           25.34403200000000       -5.95518800000000       -6.11105700000000
C           25.39829600000000       -2.17888900000000       -2.18446300000000
C           24.07860300000000       -2.49538500000000       -2.72859600000000
C           23.21645600000000       -1.76764600000000       -2.04547100000000
C           23.97591400000000       -0.98439300000000       -1.07186900000000
N           25.24888300000000       -1.21698100000000       -1.14277400000000
H           22.25905200000000       -0.05206000000000       -0.08383700000000
H           22.29603699999999        1.71854400000000        1.86277400000000
H           24.12250200000000        2.97939700000000        3.13866000000000
H           29.04246800000000        5.54625100000000        4.93344000000000
H           29.07813600000000        7.27908700000000        6.70764000000000
H           24.94036100000000        6.74612900000000        7.41355200000000
H           24.82107300000000        5.00298400000000        5.65327300000000
H           29.56368000000000        3.29543800000000        2.65723600000000
H           31.38456600000000        2.00225300000000        1.39614700000000
H           31.07366300000000       -2.62114600000000       -1.35285900000000
H           29.11108600000000       -3.97250800000000       -2.65608600000000
H           28.67542900000000       -5.96009700000000       -5.39257300000000
H           28.62298100000000       -7.68574400000000       -7.17311900000000
H           24.44099200000000       -7.21950300000000       -7.60296400000000
H           24.40917600000000       -5.48431800000000       -5.83122900000000
H           23.83128400000000       -3.18910200000000       -3.52189500000000
H           22.14375500000000       -1.76422600000000       -2.18767400000000
Fe          64.83584200000000       -0.18682700000000       -0.13312600000000
C           68.22154800000000       -0.30097600000000       -0.23068700000000
C           67.55605300000001       -1.43375000000000       -0.47338800000000
C           68.20365800000000       -2.71282200000000       -0.74012000000000
C           67.25914600000000       -3.60901800000000       -0.95907500000000
C           65.95462400000000       -2.94158600000000       -0.84729200000000
N           66.13627000000000       -1.56043200000000       -0.53443600000000
C           64.76125200000000       -3.53327500000000       -1.04501300000000
C           64.71984000000000       -4.93785600000000       -1.38622400000000
C           64.68281100000000       -6.10870700000000       -1.67072200000000
C           64.63790100000000       -7.50577500000000       -2.00994400000000
C           63.43230799999999       -8.09380700000000       -2.40996400000000
C           63.41045700000000       -9.45275800000000       -2.73501000000000
N           64.55150300000000      -10.19028400000000       -2.66112700000000
C           65.73401400000000       -9.63927400000000       -2.27466200000000
C           65.79944100000000       -8.28378800000000       -1.94121500000000
C           63.46635100000000       -2.81420100000000       -0.94505300000000
C           62.17503600000000       -3.40774300000000       -1.31212300000000
C           61.23868700000000       -2.51181000000000       -1.07659400000000
N           63.32593600000000       -1.60245000000000       -0.50010900000000
C           61.92412300000000       -1.33583900000000       -0.55294600000000
C           61.32809000000000       -0.20591900000000       -0.13574200000000
C           62.08507800000000        0.95485800000000        0.39019200000000
C           61.53219600000000        1.97034900000000        1.04223100000000
C           62.57864300000000        2.93765400000000        1.30515900000000
C           63.70521999999999        2.45055700000000        0.79731600000000
N           63.48347100000000        1.17318700000000        0.19502900000000
C           65.00268600000000        3.17239800000000        0.79791900000000
C           65.00938200000000        4.58026800000000        1.13289900000000
C           65.01451900000001        5.75300800000000        1.41220800000000
C           65.02081800000001        7.15225900000000        1.74549700000000
C           63.82774100000000        7.79937000000000        2.08579400000000
C           63.85560700000000        9.15950700000000        2.40551200000000
N           65.03252800000000        9.84120500000000        2.38448700000000
C           66.20387700000001        9.23221600000000        2.05693400000000
C           66.22001200000000        7.87338600000000        1.73061900000000
C           66.16574900000001        2.56508400000000        0.50567000000000
C           67.48544200000001        3.19452100000000        0.49794100000000
C           68.34758900000000        2.23468800000000        0.22410600000000
C           67.58813100000000        0.99707800000000        0.05175100000000
N           66.31516200000000        1.17732900000000        0.21495100000000
H           69.30499300000000       -0.32944800000000       -0.24113400000000
H           69.26800700000000       -2.90893700000000       -0.76130000000000
H           67.44154200000000       -4.65114000000000       -1.18833800000000
H           62.52157700000000       -7.50909600000000       -2.46976800000000
H           62.48590799999999       -9.92123700000000       -3.04603300000000
H           66.62368300000000      -10.25343100000000       -2.22627400000000
H           66.74297199999999       -7.84794400000000       -1.63401700000000
H           62.00036400000000       -4.40024000000000       -1.70670000000000
H           60.17947899999999       -2.65413500000000       -1.24432000000000
H           60.49038100000000        2.07846200000000        1.31211600000000
H           62.45295800000000        3.89059300000000        1.80279000000000
H           62.88861599999999        7.25932300000000        2.10367500000000
H           62.94106300000000        9.67322000000000        2.67051100000000
H           67.12305200000000        9.80275000000000        2.04973100000000
H           67.15486799999999        7.39151900000000        1.47018500000000
H           67.73276100000000        4.23143600000000        0.68601900000000
H           69.42028999999999        2.35496700000000        0.14816900000000
C           32.41638900000000       -0.19122900000000       -0.12546600000000
C           33.87461499999999       -0.21306600000000       -0.14334000000000
C           35.00854300000000       -0.23381900000000       -0.14483000000000
C           36.36992500000000       -0.24640900000000       -0.14702200000000
C           37.64414400000000       -0.23610300000000       -0.15178700000000
C           38.83260600000000       -0.21730400000000       -0.15794300000000
C           40.18496700000000       -0.19252000000000       -0.14207500000000
C           41.28523400000000       -0.19122900000000       -0.12546600000000
C           50.15477299999999       -0.19122900000000       -0.12546600000000
C           51.61300000000000       -0.21306600000000       -0.14334000000000
C           52.74692799999999       -0.23381900000000       -0.14483000000000
C           54.10831000000000       -0.24640900000000       -0.14702200000000
C           55.38252800000000       -0.23610300000000       -0.15178700000000
C           56.57099099999999       -0.21730400000000       -0.15794300000000
C           57.92335199999999       -0.19252000000000       -0.14207500000000
C           59.02361900000000       -0.19122900000000       -0.12546600000000
Fe          45.84390799999999        0.34566700000000        0.31033200000000
C           42.36229500000000        0.47274200000000        0.31146600000000
C           43.01744100000000        1.02292600000000       -0.72450100000000
C           42.36434400000000        1.58327100000000       -1.90474500000000
C           43.29204100000000        1.85361100000000       -2.79696200000000
C           44.59929700000000        1.53840800000000       -2.21610000000000
N           44.43416500000000        0.99778200000000       -0.90820800000000
C           45.77900600000000        1.72502000000000       -2.83706400000000
C           45.78589500000000        2.12239700000000       -4.22626400000000
C           45.78070800000000        2.40842900000000       -5.39940200000000
C           45.76219699999999        2.71131300000000       -6.80331400000000
C           46.70673200000000        2.13520500000000       -7.65778900000000
C           46.65869100000000        2.42550300000000       -9.02410100000000
N           45.69628700000000        3.25436300000000       -9.51115000000000
C           44.76035399999999        3.81471100000000       -8.69813600000000
C           44.77734000000000        3.55733000000000       -7.32546100000000
C           47.09087100000000        1.51884700000000       -2.17796300000000
C           48.36245899999999        2.00363700000000       -2.72241200000000
C           49.31369700000000        1.67944100000000       -1.86991100000000
N           47.25702900000000        0.91885600000000       -1.04482800000000
C           48.65666599999999        0.97643800000000       -0.77797700000000
C           49.26209099999999        0.47274200000000        0.31146600000000
C           48.53550900000000       -0.29607800000000        1.34834400000000
C           49.12575800000000       -0.93438700000000        2.35555500000000
C           48.10007200000000       -1.66793600000000        3.07245800000000
C           46.94739700000000       -1.42799100000000        2.45924600000000
N           47.13115800000000       -0.54808000000000        1.34720500000000
C           45.64865400000000       -2.02182300000000        2.86532100000000
C           45.66946200000000       -3.21971600000000        3.67339300000000
C           45.70313199999999       -4.25750300000000        4.28620500000000
C           45.76704800000000       -5.53418900000000        4.94099400000000
C           44.59743900000000       -6.16786900000000        5.36791500000000
C           44.66370300000000       -7.49150300000000        5.80536400000000
N           45.85613800000000       -8.14333900000000        5.83144500000000
C           47.01010600000000       -7.53586900000000        5.45899500000000
C           46.98751899999999       -6.21810300000000        5.00936400000000
C           44.46837900000000       -1.53240300000000        2.45001300000000
C           43.15391700000000       -2.01693500000000        2.86096200000000
C           42.27295200000000       -1.29518200000000        2.19736900000000
C           43.01330100000000       -0.36179800000000        1.34255500000000
N           44.29806499999999       -0.49461000000000        1.48524000000000
H           41.31070900000000        1.74711800000000       -2.04993900000000
H           43.10489199999999        2.28723700000000       -3.76192000000000
H           47.46873300000000        1.46862000000000       -7.27613000000000
H           47.39086600000000        1.99773000000000       -9.69286700000000
H           44.00492500000000        4.46224300000000       -9.11836200000000
H           44.02436700000000        3.99835600000000       -6.68626700000000
H           48.51164300000000        2.54296700000000       -3.64637300000000
H           50.36259100000000        1.90054300000000       -1.99209700000000
H           50.18267600000000       -0.95510600000000        2.58611000000000
H           48.25666199999999       -2.30825200000000        3.93762200000000
H           43.63793700000000       -5.66139900000000        5.30137500000000
H           43.76089900000000       -8.01170500000000        6.09255200000000
H           47.93907500000000       -8.08429400000000        5.47742700000000
H           47.90161400000000       -5.75406700000000        4.66344500000000
H           42.91931099999999       -2.80422400000000        3.56634900000000
H           41.19751500000000       -1.40163700000000        2.27539900000000
189
 energy: -341.450551672405 gnorm: 0.524793048605 xtb: 6.5.1 (b24c23e)
Fe          26.73169951618661       -0.21414829847339       -0.14887351747398
C           23.34395024675882       -0.08537533233232       -0.11371885812907
C           24.01508945289281        0.71435000967795        0.74485160477126
C           23.36022134410466        1.59503192113025        1.70047852020967
C           24.31374346085831        2.24841828266475        2.36261776755637
C           25.60670142926942        1.80304716077934        1.84131613387728
N           25.41915391780585        0.83654107420163        0.82949986769036
C           26.81713231735595        2.28491077135428        2.25378848873186
C           26.84804991885659        3.29199206981142        3.27727932706157
C           26.88160762591093        4.14304669249471        4.14362940699440
C           26.92581204372420        5.14679725710230        5.16341975562559
C           28.12915206515553        5.79592616684666        5.46768198316445
C           28.14043168100013        6.76702310361408        6.46447719082006
N           27.01251244126497        7.08600133229939        7.13521247706181
C           25.84290920759770        6.47111061168297        6.85643586951289
C           25.76717141942224        5.49203926217084        5.87037140368959
C           28.09270587281973        1.83573524585341        1.69537217449901
C           29.37847688423853        2.45208007130569        2.01448086045647
C           30.32578313598395        1.78106712903379        1.35645714889892
N           28.24537800121563        0.82079575693579        0.86735701591800
C           29.65128073289424        0.72920330756897        0.61706380322326
C           30.25170102331450       -0.21644033920925       -0.14081365821069
C           29.48114966452181       -1.23704510242209       -0.85750797227898
C           30.03446726179170       -2.34857486013819       -1.40892059416260
C           29.00259833927179       -3.05831973706329       -2.09306727699085
C           27.84999440238674       -2.35739839639124       -1.93362969173127
N           28.08196041072674       -1.20033416001720       -1.14222785871402
C           26.57372012185581       -2.74029459155905       -2.55391415658841
C           26.55968023024826       -3.74628771520574       -3.58416690181779
C           26.55039574554374       -4.59402308858147       -4.45565074605346
C           26.54305952280676       -5.59441575526683       -5.48119747297943
C           27.73368481051991       -6.22283319187482       -5.86665433817285
C           27.69538543070187       -7.19020978735175       -6.86660036855638
N           26.53151909415378       -7.52554334343219       -7.46309928976506
C           25.37323456322327       -6.93130102667500       -7.10528001478284
C           25.34652553617986       -5.95666113771590       -6.11198817226177
C           25.39642620996904       -2.17614955539968       -2.18236428658247
C           24.08548290540177       -2.49529236699866       -2.72759301231999
C           23.20938510753527       -1.76072613061504       -2.03782965099093
C           23.96227757257583       -0.97825152874572       -1.06538242104343
N           25.25399175367393       -1.21832852581188       -1.14824613772941
H           22.25985818482504       -0.05446543603288       -0.08691901620047
H           22.29650800883085        1.71434525816089        1.85842426961045
H           24.12999217383659        2.97945592794503        3.13860514089296
H           29.04108749776601        5.54656005937483        4.93418166144788
H           29.07064529903873        7.27888050590887        6.70968888659042
H           24.94791762962479        6.74785600747591        7.41305386287354
H           24.82241763953775        5.00362765266839        5.65354279664729
H           29.55760536247722        3.29720991220658        2.65959304358171
H           31.38424754065928        1.99684066841274        1.39187497989069
H           31.07454870868207       -2.62452091001512       -1.35465398149908
H           29.11432937507745       -3.97306703658103       -2.65498835434626
H           28.67417329216481       -5.96039499639659       -5.39316376465312
H           28.61547449845302       -7.68567133981277       -7.17467758423583
H           24.44846795057025       -7.22111041571577       -7.60299295059584
H           24.41038582664914       -5.48488594220091       -5.83156624433800
H           23.83827266374555       -3.18878811735952       -3.52087128272319
H           22.14136566695297       -1.76054026969796       -2.18400195601070
Fe          64.83222392825526       -0.19041270473738       -0.13537822638953
C           68.22011340122043       -0.28672298096454       -0.22789275940429
C           67.54897634330727       -1.43400873683501       -0.47343685399665
C           68.20379583474727       -2.70621540617009       -0.73861266393966
C           67.25027431081757       -3.60989765509201       -0.95941227434868
C           65.95728390519248       -2.93403802805576       -0.84490419084501
N           66.14471047790239       -1.56918547072465       -0.53476620503473
C           64.74716272977243       -3.53537464046383       -1.04664843000335
C           64.71605310414273       -4.93058958311717       -1.38541399665223
C           64.68243481327269       -6.11097362781728       -1.67104352100364
C           64.63822872008539       -7.50138989418520       -2.00890500519496
C           63.43488809587613       -8.09574434729663       -2.40977358779650
C           63.42361100385098       -9.44968606540316       -2.73142372527196
N           64.55153233088733      -10.18904878508914       -2.66083283734927
C           65.72113699907311       -9.63414408484247       -2.27626221271935
C           65.79687448213322       -8.28531713910559       -1.94226077844543
C           63.47129525686952       -2.82548096497719       -0.94783522198873
C           62.18548750557701       -3.41561292164355       -1.31289817429935
C           61.23831987722856       -2.50625876523055       -1.07475323751399
N           63.31952856268587       -1.59452735926359       -0.50200779436422
C           61.91376244790469       -1.33156862166587       -0.55157671670846
C           61.31871393929114       -0.19558783818376       -0.12873975864200
C           62.08444734708917        0.94281338019447        0.37877205332995
C           61.52985809511652        1.98629054266342        1.04924417880001
C           62.56168540635169        2.93820046273577        1.30730443985751
C           63.71424192135270        2.44178181637372        0.78771007029295
N           63.48306993278490        1.16865445729286        0.20103098478459
C           64.99044218614118        3.17046136834642        0.79781792568058
C           65.00439793928778        4.57095419714446        1.13221140462738
C           65.01365299346995        5.75401428190299        1.41233336231681
C           65.02098450247891        7.14765282579458        1.74436239814818
C           63.83035976507612        7.80104979582702        2.08577345408946
C           63.86865921101892        9.15578422514909        2.40261307781212
N           65.03252514610351        9.83983771135879        2.38416777937203
C           66.19081055695737        9.22769931832846        2.05789524527778
C           66.21751784948279        7.87494469485963        1.73140591364659
C           66.16764211014497        2.56194003816607        0.50441943804030
C           67.47857287414611        3.19362370190151        0.49837568732042
C           68.35466595046114        2.22458439018295        0.22208543772406
C           67.60177414457031        0.98838420616639        0.04980704076878
N           66.31013034576576        1.18273711171438        0.21335492702787
H           69.30419364798296       -0.32557509710144       -0.24065004225498
H           69.26752328307414       -2.90303993591394       -0.75992566080174
H           67.43405470966650       -4.65111721168957       -1.18841284295903
H           62.52295674685143       -7.50989114466222       -2.46965281399943
H           62.49339808228356       -9.92288989411627       -3.04480426427263
H           66.61612723007305      -10.25389065061408       -2.22801168133458
H           66.74162755981966       -7.84850638865760       -1.63443106656027
H           62.00642719224508       -4.40315270584207       -1.70701069262392
H           60.17996072724827       -2.64783071233103       -1.24194231040705
H           60.48968013862301        2.08163128365930        1.31404075557082
H           62.44973601658972        3.88997601986872        1.80385227024948
H           62.88987157032154        7.25998308543920        2.10362772929945
H           62.94856880344079        9.67452104505299        2.66964884223000
H           67.11557651815252        9.80360077064331        2.05109551939233
H           67.15365714567633        7.39210063056768        1.47049948436375
H           67.72577798648656        4.23040192420347        0.68627502362593
H           69.42268300517686        2.34992346269606        0.14688974405661
C           32.41528394820185       -0.19361519218567       -0.12687467450139
C           33.77100487776256       -0.21266016145741       -0.14347863926902
C           35.04325143889811       -0.23386317776745       -0.14463258990014
C           36.33056664038088       -0.24531437417921       -0.14643974900048
C           37.61133577289304       -0.23760915872964       -0.15232442562820
C           38.82794538666813       -0.22473110829028       -0.16264645670669
C           40.11581900833587       -0.19767946771454       -0.14743981560740
C           41.32163309378934       -0.19120449807094       -0.12054423117764
C           50.22852946599383       -0.21282280603857       -0.12968860432722
C           51.55802811389535       -0.21431524053295       -0.14502161285117
C           52.79738028820581       -0.23750080060384       -0.14908512757157
C           54.08662377661929       -0.24735657469084       -0.14722581222238
C           55.36310587521009       -0.23593837599582       -0.15066818822003
C           56.58598020725965       -0.21670374465321       -0.15800142934276
C           57.91388191219996       -0.19255947327464       -0.14304207453323
C           59.13699394102126       -0.19020035563858       -0.12470781171682
Fe          45.83526414102766        0.33862055884720        0.30331358146018
C           42.40582653065105        0.45614674189253        0.32041371625415
C           43.04642664240537        1.03533649751345       -0.73228793548480
C           42.36589243878381        1.57956383439719       -1.89626065345668
C           43.30291792343840        1.85618412415357       -2.79921264093575
C           44.59738843369356        1.53508032265254       -2.21295557293592
N           44.43356298538327        1.01337298368331       -0.91561176207590
C           45.79367684722495        1.72451000176019       -2.84282384295218
C           45.78843174253732        2.12231490066450       -4.22056832698598
C           45.78108491505302        2.40881143188782       -5.40071359478220
C           45.76141255214229        2.70978748722102       -6.79929939010740
C           46.70498394430035        2.13760691134627       -7.65926128071467
C           46.64841712999777        2.43303065635886       -9.01806823082773
N           45.69630337755140        3.25388901269135       -9.50986657112711
C           44.77132255729005        3.80643559899653       -8.69617220877775
C           44.77903116334419        3.55539456567040       -7.32797915594866
C           47.08392700659370        1.52644682479066       -2.19693820586627
C           48.34791568789526        2.00615128710147       -2.73368796446667
C           49.31044506115862        1.67602925774050       -1.86374817930770
N           47.25771052884409        0.92638788405648       -1.03784281950007
C           48.63386521963357        0.99826450265863       -0.78855714360049
C           49.22421464574197        0.46386090476380        0.32907289050048
C           48.51070219142339       -0.29249973494234        1.35519331260345
C           49.12553297634242       -0.94517070491557        2.37078945119833
C           48.11594966364974       -1.66943425354832        3.07476694140604
C           46.93591783662025       -1.42547903894519        2.45009856878163
N           47.12601515006487       -0.54750609925076        1.35507105507639
C           45.66038280365692       -2.02343368009677        2.86215833579428
C           45.67475218956687       -3.21127320330067        3.67035478486148
C           45.70467893094985       -4.25739208021802        4.28818427061565
C           45.76650047806816       -5.53142977879315        4.93569921047918
C           44.59894012973906       -6.16972123204597        5.36625470043019
C           44.67591268206167       -7.48809740718253        5.80265941533586
N           45.85519937520378       -8.14296088741519        5.83209601873378
C           46.99706395225703       -7.53198016658131        5.45981630610788
C           46.98503896647166       -6.21884276052538        5.00860711653823
C           44.46703881172779       -1.53335748489939        2.44821034358469
C           43.16088156683958       -2.01704614142088        2.86120218399376
C           42.26733498713398       -1.28647358597933        2.19136181045141
C           43.01715332197399       -0.35884690194934        1.34742941096752
N           44.30948809617158       -0.49954828567688        1.49398483333459
H           41.30960029932346        1.74372462161506       -2.04255158362494
H           43.11142362178580        2.28775734040453       -3.76549251620023
H           47.46813768227092        1.46941863127654       -7.27631734943565
H           47.38483754204528        2.00194796245013       -9.69347030566670
H           44.01054388171423        4.45848691387641       -9.12076239655354
H           44.02544354085462        3.99822676817321       -6.68661093479374
H           48.50581185273724        2.54432892864215       -3.65083151022117
H           50.36177930318046        1.89684346342888       -1.98455600174133
H           50.18259296630672       -0.95484595179804        2.58845692908793
H           48.25987370747793       -2.30679663767485        3.93688885442622
H           43.63974143202295       -5.66241725788521        5.30218318930067
H           43.76788600532976       -8.01301350634649        6.09291546303923
H           47.93263554543807       -8.08571938660607        5.47976288676527
H           47.90114834914963       -5.75361603980638        4.66403963311942
H           42.92605624333375       -2.80337719787898        3.56606879385121
H           41.19619424286349       -1.39649917523779        2.27132576262861
189
 energy: -341.613052321822 gnorm: 0.225558293937 xtb: 6.5.1 (b24c23e)
Fe          26.73947804900653       -0.20836851411522       -0.14627038590690
C           23.34815031058553       -0.09708999052233       -0.12664061140236
C           24.02382222913914        0.71314517883627        0.74477101112643