136
 energy: -200.707128153401 gnorm: 32.657666708748 xtb: 6.5.1 (b24c23e)
Zn          18.28851000000000        1.95946200000000        1.63106400000000
C           14.53741900000000        0.06597800000000       -0.02857600000000
C           15.18705100000000        0.91918000000000        0.76853200000000
C           14.52234400000000        1.83781900000000        1.68487300000000
C           15.45255000000000        2.55097700000000        2.29213800000000
C           16.76478100000000        2.12998800000000        1.78202300000000
N           16.60298300000000        1.08581200000000        0.82113100000000
C           17.95019400000000        2.66027700000000        2.14860200000000
C           17.98405600000000        3.77376000000000        3.12449400000000
C           17.49625500000000        5.04086600000000        2.77382300000000
C           17.54445400000000        6.09271900000000        3.69253200000000
C           18.08551000000000        5.89826800000000        4.97331300000000
N           18.12196600000000        7.00159000000000        5.89730700000000
C           18.66337800000000        6.90404500000000        7.24882900000000
C           18.58093100000000        4.62598900000000        5.31880100000000
C           18.53133000000000        3.57422000000000        4.39941700000000
C           19.24933200000000        2.18175800000000        1.60699000000000
C           20.52613500000000        2.87584000000000        1.81480600000000
C           21.47058800000000        2.16610400000000        1.23153500000000
N           19.40549100000000        1.09211900000000        0.91948300000000
C           20.80359800000000        1.01158600000000        0.64228700000000
C           21.41038000000000        0.00021300000000        0.00006000000000
C           20.65976000000000       -1.13326300000000       -0.58443200000000
C           21.20149300000000       -2.30068900000000       -0.90782100000000
C           20.16942700000000       -3.09198200000000       -1.54924000000000
C           19.06646700000000       -2.35290800000000       -1.57953500000000
N           19.28613400000000       -1.07990300000000       -0.96985500000000
C           17.79591300000000       -2.76858400000000       -2.22715700000000
C           17.83446600000000       -3.86961100000000       -3.22036800000000
C           18.58018200000000       -3.72623500000000       -4.39903100000000
C           18.63721400000000       -4.76703500000000       -5.33038000000000
C           17.95132600000000       -5.97379700000000       -5.09316100000000
N           17.99006700000000       -7.06414600000000       -6.03234500000000
C           18.72679200000000       -7.01849900000000       -7.29106300000000
C           17.21375700000000       -6.11490200000000       -3.90719000000000
C           17.15805200000000       -5.07417600000000       -2.97634300000000
C           16.62714900000000       -2.16631300000000       -1.93477900000000
C           15.32677300000000       -2.46308400000000       -2.53333000000000
C           14.45447500000000       -1.68682900000000       -1.91976500000000
C           15.18922800000000       -0.88612500000000       -0.94184900000000
N           16.45610900000000       -1.15714300000000       -0.94174100000000
H           13.45382000000000        0.06895700000000       -0.01010600000000
H           13.45690400000000        1.92726400000000        1.85395600000000
H           15.25318500000000        3.30998300000000        3.03722000000000
H           17.08052600000000        5.21291400000000        1.78850700000000
H           17.16067100000000        7.06328000000000        3.40424300000000
H           17.74238600000000        7.92733300000000        5.59409400000000
H           19.73569200000000        6.61924400000000        7.20705400000000
H           18.09337600000000        6.14987400000000        7.83108800000000
H           18.57740600000000        7.88568000000000        7.76090100000000
H           19.00744300000000        4.43809300000000        6.29456000000000
H           18.91842800000000        2.60244600000000        4.68092400000000
H           20.68599100000000        3.80474300000000        2.34630600000000
H           22.52276300000000        2.41705400000000        1.21222900000000
H           22.22822100000000       -2.60344500000000       -0.75158700000000
H           20.28874600000000       -4.08954700000000       -1.95175100000000
H           19.11524400000000       -2.80550700000000       -4.59763000000000
H           19.21856800000000       -4.62201300000000       -6.23056100000000
H           17.46505000000000       -7.94067000000000       -5.81084700000000
H           18.33842100000000       -6.19539500000000       -7.92696900000000
H           18.60025700000000       -7.97740600000000       -7.83669200000000
H           19.80806000000000       -6.86500200000000       -7.09106000000000
H           16.68249600000000       -7.03575400000000       -3.70176000000000
H           16.59097400000000       -5.20759500000000       -2.06316000000000
H           15.09645800000000       -3.16871100000000       -3.32060600000000
H           13.39124700000000       -1.65509500000000       -2.11845400000000
Zn          30.35399900000000       -2.01899800000000       -1.55609500000000
C           34.10509000000000        0.01380900000000       -0.07036900000000
C           33.45545700000000       -0.95026000000000       -0.72908300000000
C           34.12016400000000       -2.04496700000000       -1.42564200000000
C           33.18995900000000       -2.79321000000000       -1.98911100000000
C           31.87772800000000       -2.20352700000000       -1.68957300000000
N           32.03952600000000       -1.03795100000000       -0.88022300000000
C           30.69231500000000       -2.67698200000000       -2.12709600000000
C           30.65845200000000       -3.87232000000000       -3.00081100000000
C           31.14625400000000       -3.80658100000000       -4.31390000000000
C           31.09805500000000       -4.93266700000000       -5.13994700000000
C           30.55699800000000       -6.14015700000000       -4.67071600000000
N           30.52054300000000       -7.28263100000000       -5.54583700000000
C           29.97913100000000       -8.58030300000000       -5.15574100000000
C           30.06157700000000       -6.19971000000000       -3.35370800000000
C           30.11117900000000       -5.07298400000000       -2.52789100000000
C           29.39317600000000       -2.04400800000000       -1.77828700000000
C           28.11637400000000       -2.39826500000000       -2.41030000000000
C           27.17192000000000       -1.67418500000000       -1.84493500000000
N           29.23701800000000       -1.13530800000000       -0.86491800000000
C           27.83891000000000       -0.84721900000000       -0.84680900000000
C           27.23212900000000        0.00021300000000        0.00006000000000
C           27.98274800000000        0.81794600000000        0.97868800000000
C           27.44101500000000        1.38827400000000        2.04742100000000
C           28.47308100000000        2.18689700000000        2.67969000000000
C           29.57604200000000        2.05519700000000        1.95181400000000
N           29.35637400000000        1.18243800000000        0.84251500000000
C           30.84659500000000        2.77791300000000        2.21616400000000
C           30.80804300000000        3.98743600000000        3.07394300000000
C           30.06232600000000        5.10641400000000        2.67683700000000
C           30.00529400000000        6.24242300000000        3.48933900000000
C           30.69118200000000        6.27423500000000        4.71878400000000
N           30.65244100000000        7.42870200000000        5.57793100000000
C           29.91571600000000        8.64713000000000        5.25873200000000
C           31.42875200000000        5.14762900000000        5.11526700000000
C           31.48445600000000        4.01212700000000        4.30272900000000
C           32.01535900000000        2.36116600000000        1.69220200000000
C           33.31573600000000        3.01004900000000        1.85121800000000
C           34.18803400000000        2.24189000000000        1.22754700000000
C           33.45328100000000        1.11282500000000        0.65951700000000
N           32.18640000000000        1.17185500000000        0.92402800000000
H           35.18868900000000       -0.00486500000000       -0.06924500000000
H           35.18560500000000       -2.22949300000000       -1.47603700000000
H           33.38932300000000       -3.68595400000000       -2.56725200000000
H           31.56198300000000       -2.88254700000000       -4.69679800000000
H           31.48183800000000       -4.86310000000000       -6.15002500000000
H           30.90012200000000       -7.18872000000000       -6.51543400000000
H           28.90681700000000       -8.47739100000000       -4.88691800000000
H           30.54913200000000       -8.98397300000000       -4.29269400000000
H           30.06510300000000       -9.29422800000000       -6.00198900000000
H           29.63506500000000       -7.11095900000000       -2.95742900000000
H           29.72408100000000       -5.13566700000000       -1.51810800000000
H           27.95651700000000       -3.11964400000000       -3.20084700000000
H           26.11974600000000       -1.71010100000000       -2.09405000000000
H           26.41428800000000        1.30186500000000        2.37697300000000
H           28.35376300000000        2.79737700000000        3.56539100000000
H           29.52726500000000        5.09932500000000        1.73496100000000
H           29.42394100000000        7.08927000000000        3.15139300000000
H           31.17745800000000        7.40379800000000        6.48166500000000
H           30.30408800000000        9.08811200000000        4.31670700000000
H           30.04225200000000        9.38884400000000        6.07547800000000
H           28.83444799999999        8.41845300000000        5.15257500000000
H           31.96001300000000        5.14808000000000        6.05875500000000
H           32.05153500000000        3.15005900000000        4.63218900000000
H           33.54605100000000        3.93232300000000        2.36805900000000
H           35.25126100000000        2.42886700000000        1.15322400000000
C           23.58735700000000        0.01214500000000        0.00235900000000
C           22.33508700000000       -0.00703600000000       -0.00198900000000
C           24.90102500000000        0.01137900000000        0.00429200000000
C           26.40415900000000       -0.00703600000000       -0.00198900000000
136
 energy: -214.778291297544 gnorm: 5.906527479168 xtb: 6.5.1 (b24c23e)
Zn          18.21687844895958        1.77263728275249        1.52232872633987
C           14.53747766153513        0.06535064948029       -0.02918105488826
C           15.18763764156473        0.91945583946819        0.76875821923968
C           14.52210703808451        1.83751853334295        1.68461123582975
C           15.45262538996035        2.55116915194227        2.29236970173846
C           16.75524558979847        2.12997718818732        1.78239785832006
N           16.60220689662541        1.08626311801337        0.82155177424137
C           17.87698891708409        2.81362776734242        2.26201493900867
C           17.98327234076912        3.77510226540951        3.12546237705763
C           17.49629079100895        5.04107925177033        2.77413430936623
C           17.54447279737261        6.09259352880908        3.69248584628743
C           18.08554448122274        5.89870242307844        4.97373400914834
N           18.12181433823420        7.00146124753477        5.89681208024658
C           18.66338328377941        6.90402875347218        7.24882840681492
C           18.58090094237456        4.62596705453534        5.31867540358657
C           18.53129763275098        3.57454423240475        4.39951293741293
C           19.39970670892687        2.21765732761024        1.60412370653364
C           20.52677691077749        2.87620693642535        1.81495164439010
C           21.47108108663717        2.16518484434641        1.23088536042747
N           19.40956923659776        1.08866027399618        0.91647154709767
C           20.80182838759877        1.01330195431090        0.64339433183796
C           21.38488692200138       -0.00058403758440       -0.00040271481911
C           20.65770787866452       -1.13287382881625       -0.58475952982345
C           21.20166102624368       -2.30188974518952       -0.90826208142001
C           20.17068559885335       -3.09233080794553       -1.54905604041330
C           19.06544252418013       -2.35202795925692       -1.57960892684459
N           19.28674084756827       -1.08033773050085       -0.96981565902172
C           17.79659890562360       -2.76844836293082       -2.22692899519534
C           17.83454883119011       -3.86961538410570       -3.22030833125511
C           18.58012120648200       -3.72648206619647       -4.39905513295502
C           18.63713635371754       -4.76702478539553       -5.33025317731809
C           17.95136991305995       -5.97415644764296       -5.09352762425246
N           17.98986413294382       -7.06406182667997       -6.03191842019030
C           18.72678751876269       -7.01848590472638       -7.29104507906475
C           17.21379491048992       -6.11477472657496       -3.90715722895573
C           17.15811824427390       -5.07421712518167       -2.97657480858161
C           16.62682535250503       -2.16601697672055       -1.93454583926881
C           15.32714152607956       -2.46331851245793       -2.53348847389882
C           14.45400908753427       -1.68649938321101       -1.91952269307486
C           15.18862431076445       -0.88577622841874       -0.94153975878911
N           16.45635667862236       -1.15755634644398       -0.94213176585235
H           13.45381023354233        0.06893821849838       -0.01013465655652
H           13.45691728714088        1.92719973794313        1.85389300233226
H           15.25330852867492        3.31000912081198        3.03722925587865
H           17.08051768073284        5.21289672681246        1.78849748833320
H           17.16067311425600        7.06329829764327        3.40425392311210
H           17.74256373071262        7.92685542122411        5.59420250451907
H           19.73552821175948        6.61927098351392        7.20709343786290
H           18.09349112488897        6.14998058947308        7.83102149561010
H           18.57740276359684        7.88549867359148        7.76075612727178
H           19.00744279531817        4.43811205091874        6.29457794227985
H           18.91842572900494        2.60241019366330        4.68092006207686
H           20.68583309205303        3.80478713729743        2.34636190327591
H           22.52274666157892        2.41695682773779        1.21216843694393
H           22.22821512419944       -2.60347783599156       -0.75158032126123
H           20.28878698234085       -4.08953826024702       -1.95172023209233
H           19.11523751608413       -2.80550747141546       -4.59761829727400
H           19.21856941567054       -4.62203197792652       -6.23058526166214
H           17.46529743935560       -7.94021519572540       -5.81091904204112
H           18.33851337801847       -6.19551224101026       -7.92689377454912
H           18.60025587902166       -7.97723022838072       -7.83654931077650
H           19.80790638164991       -6.86500738276774       -7.09112530167740
H           16.68249606951584       -7.03577884395488       -3.70177187763387
H           16.59098086955642       -5.20758344498071       -2.06315822936796
H           15.09656709799395       -3.16871533731241       -3.32059102322460
H           13.39123368692417       -1.65503334809931       -2.11839699992607
Zn          30.42564385686144       -1.87212679195887       -1.39750274957705
C           34.10503106130747        0.01451481796440       -0.06990283808521
C           33.45488901118362       -0.95052796852349       -0.72929368379779
C           34.12040032926265       -2.04464734129978       -1.42540712489408
C           33.18988953694998       -2.79347893654633       -1.98924783922236
C           31.88726404640961       -2.20387910679778       -1.68947561313985
N           32.04028207111613       -1.03846725614763       -0.88057678558757
C           30.76553890217627       -2.82112844524754       -2.25200822300289
C           30.65923317426953       -3.87355865127818       -3.00190993370430
C           31.14621792175074       -3.80693189023855       -4.31404100217150
C           31.09803661810234       -4.93259486632141       -5.13983465231132
C           30.55696366577364       -6.14066213416100       -4.67104770508404
N           30.52069451821346       -7.28212044378566       -5.54581982557235
C           29.97912583427195       -8.58029878958551       -5.15572531774116
C           30.06160670406702       -6.19958308487300       -3.35371415093880
C           30.11121129005581       -5.07314956388051       -2.52818735419705
C           29.24275214751443       -2.04904619199472       -1.81395986306594
C           28.11579295561177       -2.39849891692580       -2.41062877092876
C           27.17140761307636       -1.67328790044661       -1.84410944378839
N           29.23293017515339       -1.13162399889439       -0.86218684486037
C           27.84115881878036       -0.84898784831630       -0.84857443281805
C           27.27576546859809        0.00129043028607        0.00096777866986
C           27.98523553361484        0.81844181018398        0.97855792476241
C           27.44080874720381        1.38893951180799        2.04846794058376
C           28.47181655801468        2.18678131352715        2.68005406566066
C           29.57703202136186        2.05503686989106        1.95091064451792
N           29.35575700466668        1.18250773083218        0.84292994406955
C           30.84594065084322        2.77765951224108        2.21607553036640
C           30.80795808958852        3.98737827756996        3.07395855363539
C           30.06238684078561        5.10649153551789        2.67707313186272
C           30.00537166784900        6.24229714996090        3.48935672315286
C           30.69113815754874        6.27467086815034        4.71905459128849
N           30.65264384940480        7.42826758954415        5.57794215067886
C           29.91572051913803        8.64710957042558        5.25872316270110
C           31.42871402872663        5.14756942887572        5.11514977759929
C           31.48438952836782        4.01236173282635        4.30271825563206
C           32.01566971289500        2.36089128573541        1.69198039300098
C           33.31536484354373        3.01025492015621        1.85141327563915
C           34.18849825437219        2.24157943730594        1.22727549574177
C           33.45386976237628        1.11245954889577        0.65925324217026
N           32.18616546658696        1.17231460914077        0.92433645600749
H           35.18869887571972       -0.00483340754251       -0.06923234468493
H           35.18559179921605       -2.22941777660290       -1.47598818410286
H           33.38919951694489       -3.68596906480396       -2.56727567642673
H           31.56199146259086       -2.88253381186449       -4.69678322724620
H           31.48183596366615       -4.86311476968680       -6.15004054534530
H           30.89994430156235       -7.18872170825854       -6.51494421358846
H           28.90698071831846       -8.47743540617894       -4.88693570119046
H           30.54901687359031       -8.98393138964783       -4.29281251424271
H           30.06510623026411       -9.29404707086246       -6.00184365469157
H           29.63506518444931       -7.11098084932361       -2.95744371937796
H           29.72408311987395       -5.13565555598500       -1.51807349562961
H           27.95667334442456       -3.11970428421938       -3.20087517354248
H           26.11975919598307       -1.71001373055087       -2.09396125546166
H           26.41429089192315        1.30186334426584        2.37700170639602
H           28.35371861739983        2.79734111439322        3.56538745696902
H           29.52727139779464        5.09931377207493        1.73496397861526
H           29.42393955229851        7.08929789635748        3.15140623167005
H           31.17721054871631        7.40376907287107        6.48120541521227
H           30.30399561612799        9.08806419860824        4.31683780800636
H           30.04225311265361        9.38866642313526        6.07533760577268
H           28.83460159097125        8.41851791794643        5.15256599507289
H           31.96001296588308        5.14809702584515        6.05877664346329
H           32.05152812112341        3.15005473318284        4.63217801883513
H           33.54594199701989        3.93230944820242        2.36806658570900
H           35.25127448366592        2.42879777067395        1.15317647139321
C           23.59115603705194        0.01211956056380        0.00232469040703
C           22.36074236026014       -0.00755279027063       -0.00233995430596
C           24.90063704635239        0.01140146702399        0.00430752784752
C           26.35610703194505       -0.00692480253222       -0.00175468928135
136
 energy: -216.361947579593 gnorm: 3.586067032289 xtb: 6.5.1 (b24c23e)
Zn          18.14913972491121        1.73003866878317        1.50828166511434
C           14.53839417561455        0.06056821421189       -0.03381296801282
C           15.19076987698324        0.92100533602319        0.77010703484290
C           14.51929607517735        1.83528921517593        1.68271227656350
C           15.44739479299636        2.55409475320528        2.29541732888825
C           16.70309660674098        2.13573557859758        1.78695616159955
N           16.59215263033142        1.09224474098510        0.82680923382215
C           17.89075279111018        2.79560528009163        2.24626163920152
C           17.98356764238228        3.79017301484298        3.13853408090982
C           17.49579984008570        5.04634954328146        2.77811413260641
C           17.54463815345666        6.09276450249197        3.69282792844828
C           18.08580658280832        5.90215463513523        4.97692088079511
N           18.12075566125876        7.00037703711238        5.89318557716182
C           18.66323139559070        6.90384224359318        7.24814625267702
C           18.58097250259549        4.62664834659187        5.31838792734872
C           18.53242873426638        3.57882949991289        4.40329135701404
C           19.45475018420444        2.25554132244891        1.62126905954431
C           20.53470588770668        2.88926494241773        1.82175246739233
C           21.47755416586354        2.15732998702687        1.22485497673312
N           19.44773684921830        1.07723268710444        0.90381279461567
C           20.78715291656794        1.02784352844771        0.65143425677389
C           21.29081667166566       -0.00726174373775       -0.00416812281294
C           20.63736328325835       -1.13215837784154       -0.58814515237603
C           21.20216530717034       -2.31144557545806       -0.91201068335555
C           20.18057776274456       -3.09497257828184       -1.54792172268776
C           19.05834272813517       -2.34494889702988       -1.58012178385725
N           19.28851459494755       -1.08485447253843       -0.97027480464231
C           17.80197707362311       -2.76671878159930       -2.22487764960563
C           17.83563523916965       -3.86958162655619       -3.21950924399384
C           18.57959619423447       -3.72865679733857       -4.39910326178245
C           18.63632507285342       -4.76741958769127       -5.32941452851458
C           17.95161026827631       -5.97708246514556       -5.09637571788142
N           17.98835778925938       -7.06307307543061       -6.02853732697388
C           18.72640841937325       -7.01825607827589       -7.29027974892519
C           17.21423425702895       -6.11388634517225       -3.90734045956316
C           17.15864754351150       -5.07434858268147       -2.97857975554901
C           16.62479894366836       -2.16388619504958       -1.93277853846402
C           15.32951624960383       -2.46461392612065       -2.53422440921586
C           14.45025306229619       -1.68393033244922       -1.91764353475753
C           15.18397691982562       -0.88342437487671       -0.93926388691583
N           16.45749069654411       -1.16079491452227       -0.94548681854346
H           13.45389604976295        0.06862941036677       -0.01058575959234
H           13.45662520663836        1.92622941507073        1.85297727486882
H           15.25448748242958        3.31074151940310        3.03778603548549
H           17.08069444053136        5.21263179720445        1.78884638060950
H           17.16075335454842        7.06362275781255        3.40444008495538
H           17.74428779935720        7.92212514787356        5.59506494677074
H           19.73388685831272        6.61954349408069        7.20754198343297
H           18.09475669791194        6.15109183583395        7.83037476411995
H           18.57739379749606        7.88365312042445        7.75920199552324
H           19.00743614393024        4.43837012446454        6.29480053504135
H           18.91823694484796        2.60250565757003        4.68070556655561
H           20.68587795148564        3.80696688610095        2.34775686715783
H           22.52365943579609        2.41498790430712        1.21075444727905
H           22.22837546245879       -2.60402721019896       -0.75147842815966
H           20.28959750648877       -4.08983543656766       -1.95143713497400
H           19.11501942323415       -2.80575750456263       -4.59746344797609
H           19.21845356610538       -4.62220645727190       -6.23067390935852
H           17.46757494174489       -7.93567733835860       -5.81138544833582
H           18.33944781358925       -6.19670149232457       -7.92609550465392
H           18.60014417156021       -7.97538155357454       -7.83497051762617
H           19.80625746081935       -6.86502896537530       -7.09180668245491
H           16.68252197373841       -7.03586621576775       -3.70185962256831
H           16.59116387610185       -5.20742871455492       -2.06335150609660
H           15.09790886644345       -3.16886122908961       -3.32050794658130
H           13.39062059662484       -1.65421921937739       -2.11774484288266
Zn          30.49339069715070       -1.84921686306599       -1.35906310914235
C           34.10412434096872        0.02000887172789       -0.06629211794368
C           33.45181529588336       -0.95214246188564       -0.73048572745606
C           34.12320865629857       -2.04231194301201       -1.42364882510111
C           33.19514217486218       -2.79709398438072       -1.99143593093759
C           31.93941943487175       -2.20958768896671       -1.69410852163660
N           32.05024872772201       -1.04489928786433       -0.88526237382338
C           30.75189112869247       -2.80184267698470       -2.23788850673837
C           30.65892712294816       -3.88961573067574       -3.01377890141130
C           31.14669979938261       -3.81197083221088       -4.31832775346500
C           31.09787964002206       -4.93296857696060       -5.13992789228825
C           30.55670282476430       -6.14452304991575       -4.67372034380744
N           30.52175203107928       -7.27834655383971       -5.54555464802891
C           29.97927829219680       -8.57959223604765       -5.15569236217148
C           30.06153056697060       -6.19945505400591       -3.35443971897701
C           30.11007879296428       -5.07778697805746       -2.53155029851127
C           29.18773771065121       -2.07417587835063       -1.84735069158582
C           28.10819669346931       -2.40802155788346       -2.42185672560079
C           27.16501317090276       -1.66549565394030       -1.83750550893032
N           29.19475928515982       -1.11693482144660       -0.85381206328424
C           27.85703381780523       -0.86151943443721       -0.86271385290980
C           27.37644983649376        0.00775798069927        0.00712646951735
C           28.00727173588704        0.82289139955978        0.97877336848305
C           27.44025689208410        1.39459839619013        2.05691647468743
C           28.46212140880449        2.18627173989689        2.68283227002859
C           29.58394599557474        2.05401664441858        1.94400859947006
N           29.35405778915545        1.18401273513079        0.84710190212087
C           30.84067811647679        2.77526847042267        2.21483006774107
C           30.80686595503350        3.98658455243925        3.07409064645995
C           30.06291196279733        5.10701238360307        2.67918558711850
C           30.00618365193628        6.24156507914763        3.48992482144731
C           30.69089797673832        6.27808448359011        4.72128598786699
N           30.65415011039046        7.42475536266788        5.57771731870147
C           29.91610003400341        8.64631191890978        5.25866642691718
C           31.42827412983785        5.14755503407772        5.11424157343990
C           31.48385754569191        4.01434451450310        4.30240625171559
C           32.01766721543370        2.35876920362693        1.69034973053644
C           33.31296927609767        3.01126061710327        1.85251914165040
C           34.19224284588333        2.23917034739810        1.22516649700219
C           33.45847636820875        1.10977401332931        0.65748423859364
N           32.18506986162528        1.17625252372948        0.92673525097043
H           35.18861509717845       -0.00433215819639       -0.06902730754958
H           35.18588333474216       -2.22831435777509       -1.47524243287356