118
 energy: -200.745555980311 gnorm: 0.408083283270 xtb: 6.5.1 (b24c23e)
Cu          15.12301800000000        0.03097400000000       -0.00155300000000
C           11.78847500000000       -0.09519100000000       -0.04321200000000
C           12.44936600000000       -1.25659100000000       -0.04244400000000
C           11.79748200000000       -2.55927200000000        0.00795200000000
C           12.73617600000000       -3.48616100000000       -0.04690300000000
C           14.04106100000000       -2.81815400000000       -0.14615600000000
N           13.86546200000000       -1.40076700000000       -0.13177800000000
C           15.23149800000000       -3.44435900000000       -0.26101900000000
C           15.28274100000000       -4.92500800000000       -0.31029900000000
C           14.81203900000000       -5.58566200000000       -1.37911200000000
C           14.80117900000000       -7.09130200000000       -1.45330400000000
N           15.60484000000000       -7.70876500000000       -0.39517800000000
C           16.05159300000000       -6.98048200000000        0.75315000000000
C           15.90241100000000       -5.65913200000000        0.80978100000000
C           16.52188900000000       -2.70981500000000       -0.33820600000000
C           17.80216900000000       -3.33934900000000       -0.68568100000000
C           18.73667400000000       -2.41188000000000       -0.62540300000000
N           16.66765900000000       -1.44670900000000       -0.07895800000000
C           18.06067500000000       -1.17967800000000       -0.23959200000000
C           18.65668600000000        0.00000000000000        0.00000000000000
C           17.89266300000000        1.20928100000000        0.37533900000000
C           18.41679600000000        2.27088700000000        0.97526900000000
C           17.37468700000000        3.27673800000000        1.05859600000000
C           16.28475600000000        2.76299900000000        0.49884300000000
N           16.52290300000000        1.43115600000000        0.04128000000000
C           15.01363100000000        3.50375800000000        0.29822900000000
C           15.05285100000000        4.98765300000000        0.30356000000000
C           14.37618500000000        5.68609100000000        1.23057400000000
C           14.35175600000000        7.19314700000000        1.24185200000000
N           15.35854400000000        7.77627200000000        0.35126200000000
C           16.03482700000000        7.00788100000000       -0.64979500000000
C           15.89626700000000        5.68455300000000       -0.68768700000000
C           13.85228700000000        2.85536200000000        0.08467700000000
C           12.55084900000000        3.46835500000000       -0.17678700000000
C           11.68754200000000        2.47410300000000       -0.26117900000000
C           12.42944100000000        1.22916900000000       -0.06908000000000
N           13.69145300000000        1.43924500000000        0.13319100000000
H           10.70524800000000       -0.12018200000000       -0.02839800000000
H           10.73458500000000       -2.75030100000000        0.08107800000000
H           12.54684400000000       -4.55090500000000       -0.02410100000000
H           14.36501100000000       -5.03558800000000       -2.19935200000000
H           15.19848100000000       -7.40739100000000       -2.44156000000000
H           13.75266100000000       -7.44533900000000       -1.36470500000000
H           15.75565500000000       -8.74165800000000       -0.42193400000000
H           16.53333600000000       -7.50529100000000        1.56867700000000
H           16.26160700000000       -5.11711000000000        1.67682600000000
H           17.96957100000000       -4.37596800000000       -0.94782500000000
H           19.78782200000000       -2.56694000000000       -0.82673500000000
H           19.43822600000000        2.38440800000000        1.31357300000000
H           17.47867600000000        4.27196500000000        1.47174000000000
H           13.77657400000000        5.16400400000000        1.96722000000000
H           14.53670600000000        7.54653400000000        2.27794500000000
H           13.34409600000000        7.53669700000000        0.92634400000000
H           15.50122200000000        8.81007600000000        0.36742200000000
H           16.67564500000000        7.50501900000000       -1.36731800000000
H           16.42469700000000        5.11390600000000       -1.44196400000000
H           12.31269900000000        4.51821500000000       -0.28445600000000
H           10.62511700000000        2.57650500000000       -0.44270400000000
Cu          26.16736200000000       -0.02991900000000       -0.00816600000000
C           29.50190500000000        0.10224800000000       -0.02177300000000
C           28.84101300000000        1.23641400000000        0.22825900000000
C           29.49289800000000        2.49791700000000        0.55708900000000
C           28.55420400000000        3.41497800000000        0.70246000000000
C           27.24931900000000        2.78384300000000        0.46213900000000
N           27.42491800000000        1.39640500000000        0.17195400000000
C           26.05888100000000        3.42010800000000        0.48436200000000
C           26.00763800000000        4.87682500000000        0.75403700000000
C           26.47834100000000        5.75149100000000       -0.14806300000000
C           26.48920100000000        7.23796400000000        0.10264500000000
N           25.68553900000000        7.61391900000000        1.26864200000000
C           25.23878600000000        6.65613300000000        2.23388700000000
C           25.38796900000000        5.35342400000000        2.00558400000000
C           24.76849000000000        2.71925100000000        0.25131100000000
C           23.48821000000000        3.40869400000000        0.04705800000000
C           22.55370500000000        2.48990400000000       -0.09314100000000
N           24.62272000000000        1.42993900000000        0.23340500000000
C           23.22970400000000        1.20361000000000        0.01919800000000
C           22.63369300000000        0.00000000000000        0.00000000000000
C           23.39771600000000       -1.26165900000000        0.10703100000000
C           22.87358400000000       -2.42729200000000        0.46511500000000
C           23.91569200000000       -3.42758400000000        0.33060400000000
C           25.00562300000000       -2.80567400000000       -0.10583400000000
N           24.76747700000000       -1.40666100000000       -0.26686500000000
C           26.27674800000000       -3.48610900000000       -0.46076900000000
C           26.23752800000000       -4.93656300000000       -0.77406500000000
C           26.91419500000000       -5.81769700000000       -0.01856900000000
C           26.93862400000000       -7.29204900000000       -0.33102900000000
N           25.93183500000000       -7.67042700000000       -1.32602400000000
C           25.25555200000000       -6.70507800000000       -2.13882200000000
C           25.39411200000000       -5.40445900000000       -1.89179200000000
C           27.43809200000000       -2.80698800000000       -0.53017200000000
C           28.73953100000000       -3.34957300000000       -0.91711500000000
C           29.60283800000000       -2.36038000000000       -0.78613300000000
C           28.86093800000000       -1.18569400000000       -0.33129900000000
N           27.59892600000000       -1.43428900000000       -0.17883300000000
H           30.58513100000000        0.12347600000000       -0.00194000000000
H           30.55579400000000        2.66879800000000        0.66951300000000
H           28.74353500000000        4.45001100000000        0.95326700000000
H           26.92536800000000        5.39029300000000       -1.06725300000000
H           26.09189800000000        7.75880500000000       -0.79473300000000
H           27.53771800000000        7.56473200000000        0.26517000000000
H           25.53472400000000        8.62848200000000        1.46421000000000
H           24.75704300000000        6.99366600000000        3.14305200000000
H           25.02877200000000        4.63793300000000        2.73608100000000
H           23.32080800000000        4.47742000000000        0.01352300000000
H           21.50255700000000        2.68456300000000       -0.25649900000000
H           21.85215300000000       -2.61078100000000        0.77116900000000
H           23.81170400000000       -4.48829400000000        0.52050300000000
H           27.51380500000000       -5.46589200000000        0.81296900000000
H           26.75367400000000       -7.85958700000000        0.60506500000000
H           27.94628400000000       -7.55987100000000       -0.71292300000000
H           25.78915700000000       -8.68360500000000       -1.53213600000000
H           24.61473500000000       -7.03662000000000       -2.94632800000000
H           24.86568200000000       -4.68521400000000       -2.50600600000000
H           28.97768100000000       -4.35185500000000       -1.24761600000000
H           30.66526199999999       -2.42143300000000       -0.98540700000000
C           20.03423099999999        0.00000000000000        0.00000000000000
C           21.25614900000000        0.00000000000000        0.00000000000000
118
 energy: -200.835676336283 gnorm: 0.232553188509 xtb: 6.5.1 (b24c23e)
Cu          15.13055433398814        0.02226665741174       -0.00347900826632
C           11.78651936114079       -0.07395932981911       -0.04384337887197
C           12.45203511694150       -1.25660769318281       -0.04216924123662
C           11.79829276258987       -2.55136158870254        0.00749039253688
C           12.75021871981195       -3.48881416359401       -0.04799516252134
C           14.04111824831876       -2.81409770573142       -0.14436695496300
N           13.83836748805339       -1.42607411972110       -0.13044541585265
C           15.25018427270778       -3.44134681726673       -0.25830277184071
C           15.29427029033171       -4.92226089881871       -0.31028779710457
C           14.81243976425532       -5.58803100201856       -1.36853460256707
C           14.80442460602291       -7.09389581342031       -1.44570535973868
N           15.61591985243192       -7.70139738157769       -0.38525533885081
C           16.04376546328700       -6.98435170786689        0.73527528597424
C           15.90291627723607       -5.65246329330390        0.80193997044387
C           16.51190071360228       -2.73601322606489       -0.33761511831949
C           17.78134484619032       -3.35995035537363       -0.68333013874722
C           18.72459954447912       -2.40646909067714       -0.62169860719268
N           16.67470497377043       -1.45031796486529       -0.09442529039413
C           18.04597665415596       -1.18366698353110       -0.24397131508620
C           18.63885771088591        0.02078279253137        0.00724233124807
C           17.88162560230498        1.21358675274180        0.36150272397577
C           18.42242782430228        2.30522738336369        0.98005158648109
C           17.40435957850638        3.28629377163688        1.05910795196241
C           16.28182035749926        2.75507706955429        0.48289078609562
N           16.52796150144025        1.43637496726190        0.05542613260098
C           15.03617326282538        3.48876310254413        0.29037070526375
C           15.06981825708255        4.97524559885890        0.30710037567736
C           14.38052096563511        5.68198541177380        1.21798719102147
C           14.35763836031666        7.19140397469345        1.23482129128659
N           15.37099691397198        7.76661244328483        0.34402528964974
C           16.02170271317988        7.00977131725119       -0.63420298903651
C           15.89497042232062        5.67499090063535       -0.67981151482985
C           13.85374551048249        2.85224433090465        0.08052818033997
C           12.55976335829752        3.46272604330236       -0.17358619385400
C           11.67145231776645        2.45895865820813       -0.26015237762728
C           12.40186788354453        1.22126262569460       -0.06681468102285
N           13.68543684871750        1.45148181996058        0.12570753820596
H           10.70386163218174       -0.10558580124959       -0.03161540894706
H           10.73512504760266       -2.73292485729983        0.08097189565795
H           12.57097608019162       -4.55388833494536       -0.02527297742950
H           14.36894018684229       -5.04714710823535       -2.19882606113766
H           15.19532033448871       -7.41213534087351       -2.42967611256146
H           13.75841252823965       -7.45091568421593       -1.36960498503455
H           15.75115815136106       -8.71246277297112       -0.41369555341124
H           16.52481760862960       -7.52446038897471        1.54474337043247
H           16.25813533298496       -5.11246611741887        1.67101062278811
H           17.94982736686886       -4.39113906378163       -0.94621962471178
H           19.77896059995700       -2.54570042241136       -0.82138649658876
H           19.44016666322363        2.40033177508401        1.32269085336903
H           17.49330722581866        4.27513193568380        1.47862573230492
H           13.78060443552934        5.17328237910235        1.96611489307103
H           14.53586736518252        7.54959009816552        2.26539542785271
H           13.35007360879693        7.53983453692825        0.93161228595563
H           15.49792078291353        8.77919679032240        0.36003584695297
H           16.66151128837455        7.52322576436091       -1.34563106874079
H           16.42111732061363        5.10825242610280       -1.43728542952340
H           12.33510269836395        4.51464069333277       -0.28171772039178
H           10.61400961685356        2.56069860898118       -0.44332769466087
Cu          26.15982538912512       -0.02100121173674       -0.00817789936675
C           29.50386021715647        0.08164647996736       -0.02694682900419
C           28.83834382538496        1.23637146535137        0.22853129870130
C           29.49208680590374        2.49029000053976        0.55494005074415
C           28.54016094766655        3.41780322784528        0.70196263728828
C           27.24926134968877        2.77949718900411        0.46301564183998
N           27.45201203967483        1.42083611442219        0.17868709694326
C           26.04019499312163        3.41658262573144        0.48636829291303
C           25.99610901693100        4.87413929506213        0.75345833460466
C           26.47793997845815        5.75153431458519       -0.13722343203853
C           26.48595501190096        7.23886626762969        0.11062326100784
N           25.67445921774500        7.60459352205592        1.27675190789917
C           25.24661362379102        6.66374928346023        2.21725963828153
C           25.38746343183040        5.34859391567956        1.99649428395924
C           24.77847852979134        2.74471163470082        0.25751154407059
C           23.50903434893049        3.42831085454705        0.05377581088879
C           22.56577957073092        2.48382384391686       -0.09068442515151
N           24.61567426371597        1.43678346931736        0.21907233007171
C           23.24440256835773        1.20844584545567        0.01577714739380
C           22.65152156656924       -0.02185281218804        0.00261277995902
C           23.40875359500846       -1.26289460689842        0.09259314835472
C           22.86795181123257       -2.46185840536397        0.46241541746895
C           23.88601958980516       -3.43702746797534        0.32905296303641
C           25.00855895817527       -2.79451265384399       -0.11971393419568
N           24.76241833360045       -1.41479444559835       -0.25416888456889
C           26.25420599349128       -3.46977668765201       -0.46522546986799
C           26.22056087890163       -4.92520474353153       -0.76794401698596
C           26.90985866309390       -5.81098537998692       -0.02998154182452
C           26.93274144942585       -7.28883750467030       -0.33752166009204
N           25.91938230763673       -7.65943925285638       -1.33101865283566
C           25.26867653140687       -6.71027086123937       -2.12399919221932
C           25.39540872694277       -5.39681031505682       -1.88204757712951
C           27.43663365735028       -2.80305235716310       -0.53355486631865
C           28.73061633200049       -3.34476235491993       -0.91278038540484
C           29.61892724971191       -2.34580895140508       -0.78187980464359
C           28.88851114396699       -1.17845783212088       -0.32738938006259
N           27.60494218955869       -1.44463415584181       -0.18876870893606
H           30.58651759760463        0.10991055318252       -0.00821536141535
H           30.55525420345068        2.65184961405760        0.66567973474792
H           28.71940301556985        4.45317657141383        0.95276279553311
H           26.92143895648363        5.40146981756665       -1.06425851781297
H           26.09505882752866        7.76088802622522       -0.78210751143591
H           27.53196660747960        7.57123076133703        0.26158118518437
H           25.53922095248828        8.59819880701323        1.46598981391312
H           24.76556139626907        7.01752566901431        3.12379061522523
H           25.03224369991910        4.63464539677138        2.72940453754521
H           23.34055175221920        4.49189270494906        0.01834734018299
H           21.51141846602487        2.66267044102817       -0.25583397650991
H           21.85021269584113       -2.62829038839972        0.77665622513536
H           23.79707277582604       -4.49286482871256        0.52654841777557
H           27.50977459425159       -5.47471677998851        0.80989799633813
H           26.75451261986796       -7.85987821488871        0.59215194003726
H           27.94030617445726       -7.56406625984807       -0.70845111623742
H           25.79245829358397       -8.65186008678662       -1.53272206171147
H           24.62886852253403       -7.05905732537054       -2.92905441060690
H           24.86926185130802       -4.68069655955950       -2.50022276681276
H           28.95527706352291       -4.34895134364404       -1.24417427148349
H           30.67636963027227       -2.40586108623468       -0.98262345330676
C           20.03601906168485        0.00680767657105        0.00608077081347
C           21.25436058061534       -0.00795411668486        0.00447788003519
118
 energy: -200.882921928453 gnorm: 0.060488598121 xtb: 6.5.1 (b24c23e)
Cu          15.14980282744144        0.01406096667091       -0.01005821906610
C           11.79139274747824       -0.05275041772843       -0.04492651083899
C           12.45843141389290       -1.26295816482117       -0.04070549072853
C           11.79948853957473       -2.54445279976749        0.00732365124933
C           12.76304878393006       -3.49006545839409       -0.04758851414791
C           14.03420413116949       -2.80618234353129       -0.14178004305386
N           13.80839239603967       -1.45418685682449       -0.13045773509531
C           15.27011907889344       -3.43266439814177       -0.25741959726551
C           15.30159955366708       -4.91742686215900       -0.30902752525034
C           14.80966303124984       -5.58784289322656       -1.36004963958687
C           14.80650450295231       -7.09370712544781       -1.43977041788649
N           15.62521205936391       -7.68915329203387       -0.37462007069882
C           16.03515028936818       -6.98424895973778        0.71338219779029
C           15.90396504116982       -5.64342480818352        0.79500878209200
C           16.49959174203526       -2.76359255794031       -0.33839614246856
C           17.76081838405492       -3.37630620645906       -0.67369904988380
C           18.70688959671151       -2.40192171514096       -0.61820961790535
N           16.68495437020269       -1.44667218990816       -0.11192859886176
C           18.02542012302187       -1.19416930305476       -0.25063821668629
C           18.61813801526737        0.03519233611702        0.02318354027910
C           17.87295489011921        1.20983693896888        0.34930145233902
C           18.42674804609034        2.34402354596826        0.97649739892124
C           17.44305944506264        3.29304909489485        1.04867677501492
C           16.28014565446605        2.74535489539052        0.46490056568565
N           16.54466043670164        1.44606991684649        0.07756553128482
C           15.06685395625768        3.46624479070686        0.28625927132593
C           15.08980994796799        4.95862660772913        0.31312109192324
C           14.38448981278964        5.67321727141883        1.20768646456123
C           14.36258188305596        7.18475019980947        1.22806593109852
N           15.38289995663327        7.75084062192029        0.33577449878759
C           16.00854673839973        7.00676678955772       -0.61423822157856
C           15.89825913771406        5.66192775451976       -0.67023602653815
C           13.85286234503186        2.84050515538150        0.07410715111816
C           12.57164462622663        3.45183313007308       -0.17116295871798
C           11.66170509650134        2.44602220474465       -0.25296288729788
C           12.37469834988742        1.21136586590310       -0.06583808906932
N           13.68604060698421        1.46556362631992        0.11458307801923
H           10.70725747155131       -0.09642412370422       -0.03977805575099
H           10.73581912326159       -2.71396305730590        0.08068654157409
H           12.59718868003630       -4.55587012585420       -0.02603383254066
H           14.37040211728133       -5.05972278167074       -2.20103464362168
H           15.19667958903877       -7.41733655301836       -2.41730556316965
H           13.76521040998874       -7.46038648585114       -1.36921386485355
H           15.74358933415549       -8.68564515784494       -0.40505401878293
H           16.51455726138426       -7.54269412187438        1.51585211305442
H           16.25582088110579       -5.10800326083732        1.66636664202819
H           17.93016723467976       -4.40400691918055       -0.94043022750726
H           19.76398854634345       -2.52335481549475       -0.81602439792952
H           19.44236462183608        2.41282102638874        1.32785381364440
H           17.50625862535169        4.27754209191524        1.48053837156796
H           13.78329053903713        5.18240730078617        1.96743228836380
H           14.54009798426715        7.54985963841585        2.25246148674011
H           13.35834561592789        7.54387255928764        0.93139802125182
H           15.49201218217905        8.74936802541770        0.35149413283832
H           16.64413707725452        7.53973351828600       -1.32048834191992
H           16.42076969222487        5.10261180051086       -1.43379568080291
H           12.36161696135683        4.50670700673569       -0.27936956904258
H           10.60686885446438        2.54811341421181       -0.44003167595436
Cu          26.14057713783972       -0.01157573632449       -0.01284217911636
C           29.49898692799296        0.06116408611206       -0.03255718149023
C           28.83194872475870        1.24226040472927        0.23132419946233
C           29.49089144597312        2.48357855496349        0.55329419858909
C           28.52733124564010        3.41893844410305        0.70262827842597
C           27.25617575386637        2.77121219144207        0.46384326042403
N           27.48198783011845        1.44829705816904        0.18471086445070
C           26.02026036105876        3.40791313425874        0.48536718994245
C           25.98877985450423        4.86914752240902        0.75365164667341
C           26.48071640211543        5.74952950461326       -0.12897647964413
C           26.48387479449147        7.23740812369569        0.11637941281848
N           25.66516709227837        7.59035235281869        1.28451112989527
C           25.25522883583570        6.66834827983740        2.19585495746442
C           25.38641439164341        5.34125412865949        1.98778467691260
C           24.79078678853433        2.77181680019827        0.26266872895087
C           23.52956017173936        3.44221930226539        0.06669282983032
C           22.58348890971639        2.47863413752750       -0.08825272870096
N           24.60542354367226        1.43698077938892        0.20119466849938
C           23.26495824912870        1.22013513340317        0.01152012059161
C           22.67224095793676       -0.03934746141252        0.01508950450619
C           23.41742337375951       -1.25661386398289        0.08148062823520
C           22.86363049699393       -2.49898772636457        0.45061716070680
C           23.84731937773383       -3.44138742077226        0.31741510202876
C           25.01023298335364       -2.78115644437190       -0.13519856552781
N           24.74571725966834       -1.42901650718138       -0.23462818470217
C           26.22352548836446       -3.44690081660653       -0.46440775629739
C           26.20056925699086       -4.91026561581906       -0.75849656346992
C           26.90588948719284       -5.80021074579203       -0.03816035745017
C           26.92779774824141       -7.28088892387560       -0.34269140441670
N           25.90747945334143       -7.64226414259056       -1.33569186448402
C           25.28183261918765       -6.71162162554979       -2.10385494399818
C           25.39212010745455       -5.38610708326102       -1.86989142268523
C           27.43751778727348       -2.79020977329595       -0.53730653076748
C           28.71873560645163       -3.33464445277927       -0.90807550106698
C           29.62867505794298       -2.33471796169241       -0.77208176750491
C           28.91568215471328       -1.16900207429616       -0.32431124182210
N           27.60434035725307       -1.45600182844349       -0.20265613842977
H           30.58312223709136        0.10271450176966       -0.01815432890160
H           30.55456087498176        2.63339133021562        0.66133110616199
H           28.69319104008816        4.45527619223511        0.95244514599647
H           26.91997714994219        5.41422669941124       -1.06371655496403
H           26.09369973372727        7.76331283373929       -0.76890871426492
H           27.52516893192419        7.58039710224239        0.26399586782246
H           25.54678980526581        8.57015140486198        1.46867366663451
H           24.77582169727568        7.04153567343647        3.09948642978597
H           25.03455821002057        4.63128322974303        2.72391097160654
H           23.36021141271128        4.50321858990884        0.02676367724929
H           21.52639005159930        2.63969536176078       -0.25539318256778
H           21.84801437904419       -2.64159688008426        0.77901845527651
H           23.78412094434959       -4.49562966750460        0.52789963336168
H           27.50708852853601       -5.48391179581981        0.80922600156332
H           26.75028197979214       -7.85736529956810        0.57946160756950
H           27.93203406228990       -7.56796419191553       -0.70952718535981
H           25.79836692977250       -8.62089318655959       -1.53466226718977
H           24.64624255668450       -7.08057707826777       -2.90804089749836
H           24.86960961127789       -4.67593655506614       -2.49560350855834
H           28.92876320083172       -4.34170697646506       -1.24017827804596
H           30.68351130881973       -2.39427715286778       -0.97670331240115
C           20.03499492623252        0.02244691571789        0.01532738898493
C           21.25538403287940       -0.02521312486665        0.01015218285425
118
 energy: -200.892016952464 gnorm: 0.033618469020 xtb: 6.5.1 (b24c23e)
Cu          15.16591938588459        0.01029902910760       -0.01933942525792
C           11.78833275702989       -0.05240513943439       -0.05094258642297
C           12.45342553236702       -1.27075921475578       -0.04219295112797
C           11.79533520690608       -2.54745764200914        0.00886902509867
C           12.76396676010302       -3.49456236604529       -0.04367294834235
C           14.02509005082786       -2.80706391747974       -0.13969992253595
N           13.79931631048086       -1.46110468445961       -0.13220069750868
C           15.26792164692334       -3.43121826608959       -0.26032393718736
C           15.29904638032523       -4.91588157455872       -0.31282582529961
C           14.80312312063148       -5.58927600734750       -1.36112339776607
C           14.80404415556780       -7.09409256213380       -1.44138954683546
N           15.62606258405318       -7.68049900706228       -0.37840401686027
C           16.03591686193459       -6.97636848172237        0.70415895646806
C           15.90737595773225       -5.63542172044595        0.79066335094998
C           16.49117893107223       -2.76692978738983       -0.34208440441916
C           17.75061309221364       -3.38007487682967       -0.65921716694372
C           18.69265339932128       -2.39867334665515       -0.61131858016175
N           16.68132195444228       -1.43713275755446       -0.12448958125821
C           18.01355452235091       -1.18952855509935       -0.25194394778809
C           18.61718798301016        0.04454006264460        0.03667767315052
C           17.89030120960560        1.22005088011077        0.35143784582100
C           18.45616419902231        2.37670911917682        0.96088566157738
C           17.47851601654625        3.32031654167098        1.02290262361902
C           16.29903895993506        2.75059983629412        0.45657914971730
N           16.56362077319282        1.44807111163936        0.10110534240861
C           15.08695021202063        3.44854104959233        0.28346162139369