432
 energy: -752.610931783550 gnorm: 2.993570105913 xtb: 6.5.1 (b24c23e)
C           97.69743999999999        0.08833300000000        0.28220700000000
C           98.43088500000000        1.26100100000000       -0.43849000000000
C           97.83391899999999        2.38871600000000       -0.95393200000000
C           98.85816100000000        3.15799800000000       -1.56519000000000
C          100.04585899999999        2.46894300000000       -1.40841000000000
N           99.77950400000000        1.33824400000000       -0.67740700000000
C          101.45935200000000        2.88097400000000       -1.98274600000000
C          101.48854400000000        3.93933800000000       -2.94943400000000
C          101.49870000000000        4.82620400000000       -3.76029200000000
C          101.50885699999999        5.87769300000000       -4.72664900000000
C          100.71038000000000        5.78960500000000       -5.86157200000000
C          100.75479300000001        6.83411000000000       -6.76844600000000
N          101.52663099999999        7.93456300000000       -6.61770200000000
C          102.29027900000000        7.98466200000000       -5.50235400000000
C          102.31688200000001        6.99316700000000       -4.53696300000000
C          102.58744500000000        2.22745600000000       -1.59989100000000
C          103.88319199999999        2.56304600000000       -2.15499400000000
C          104.79022999999998        1.75342300000000       -1.62095800000000
N          102.79407100000000        1.20059900000000       -0.71618100000000
C          104.12354700000000        0.86686400000000       -0.68733700000000
C          104.79776000000000       -0.07800800000000        0.02078100000000
C          104.02879799999999       -1.00938100000000        1.04957800000000
C          104.57906900000000       -1.64952500000000        2.14268800000000
C          103.55164999999998       -2.41146400000000        2.75320500000000
C          102.40091399999999       -2.20781400000000        2.02146800000000
N          102.68969099999998       -1.31348900000000        1.01783900000000
C          100.98847299999998       -2.85971700000000        2.29817900000000
C          100.95747900000001       -4.10021100000000        3.01250700000000
C          100.94211100000000       -5.14436400000000        3.60677300000000
C          100.91864400000000       -6.38923000000000        4.30648900000000
C          101.95886500000000       -6.72925300000000        5.16411700000000
C          101.88866699999998       -7.94738600000000        5.81775900000000
N          100.87069099999998       -8.82614600000000        5.67343600000000
C           99.87777500000000       -8.46184900000000        4.83024200000000
C           99.85502000000000       -7.26762800000000        4.13102000000000
C           99.86094400000000       -2.25269800000000        1.85090400000000
C           98.53434100000000       -2.79042500000000        2.09743400000000
C           97.64313100000000       -1.96974500000000        1.54877200000000
C           98.36544499999999       -0.88777900000000        0.92528600000000
N           99.69234500000000       -1.10257700000000        1.13121200000000
H           96.61516499999999        0.06126600000000        0.23781900000000
H           96.78146800000000        2.62365000000000       -0.90873700000000
H           98.73774299999999        4.09858400000000       -2.08117800000000
H          100.47149000000000        0.66151900000000       -0.36403700000000
H          100.07289200000000        4.92901100000000       -6.03262100000000
H          100.15019999999998        6.81161400000000       -7.66961000000000
H          102.90327999999998        8.87465300000000       -5.39995600000000
H          102.94932500000000        7.08449000000000       -3.66051400000000
H          104.08502200000000        3.32831500000000       -2.88291700000000
H          105.83947900000000        1.77362200000000       -1.85272300000000
H          105.60797800000000       -1.58504400000000        2.46268400000000
H          103.64102800000001       -3.03831800000000        3.62730200000000
H          102.00394700000000       -0.89712200000000        0.39332400000000
H          102.80048600000001       -6.06248100000000        5.31671400000000
H          102.67646999999999       -8.25818600000000        6.49703500000000
H           99.07060099999998       -9.18040400000000        4.72581900000000
H           99.03277799999998       -7.02584600000000        3.46606200000000
H           98.30776299999999       -3.69144200000000        2.63787700000000
H           96.57457400000000       -2.08662100000000        1.56078000000000
C          187.08537999999996        0.16376000000000        0.21458700000000
C          186.35193500000000       -0.68028700000000        1.30184900000000
C          186.94890199999998       -1.31540600000000        2.36676500000000
C          185.92465899999999       -2.00675900000000        3.06494900000000
C          184.73696200000001       -1.77591500000000        2.39705100000000
N          185.00331700000001       -0.92619100000000        1.35263000000000
C          183.32346799999996       -2.39168400000000        2.74412400000000
C          183.29427699999999       -3.46782100000000        3.69098800000000
C          183.28412000000000       -4.37038600000000        4.48433300000000
C          183.27396300000001       -5.44544600000000        5.42439900000000
C          184.07244000000000       -6.56403900000000        5.21331000000000
C          184.02802800000001       -7.57920800000000        6.15290800000000
N          183.25618899999998       -7.54913100000000        7.26323100000000
C          182.49254199999999       -6.44586100000000        7.43442500000000
C          182.46593899999999       -5.37829300000000        6.55389200000000
C          182.19537599999998       -1.93997500000000        2.13615800000000
C          180.89962800000001       -2.52830700000000        2.40933800000000
C          179.99259100000000       -1.90932400000000        1.66264800000000
N          181.98874900000001       -0.94975400000000        1.21158300000000
C          180.65927400000001       -0.88475800000000        0.88296900000000
C          179.98506000000000       -0.07800800000000        0.02078100000000
C          180.75402199999999        1.04604700000000       -0.79308600000000
C          180.20375100000001        2.20233500000000       -1.31045500000000
C          181.23116999999996        2.89215300000000       -2.00142000000000
C          182.38190700000001        2.14259800000000       -1.87862100000000
N          182.09312899999998        1.04759400000000       -1.09884200000000
C          183.79434699999999        2.48861800000000       -2.49653500000000
C          183.82534199999998        3.33371600000000       -3.65191300000000
C          183.84070900000000        4.03809600000000       -4.62518300000000
C          183.86417700000001        4.86914400000000       -5.78649800000000
C          182.82395600000001        5.75868500000000       -6.03115800000000
C          182.89415399999999        6.54102400000000       -7.17091300000000
N          183.91212999999996        6.49320100000000       -8.06016100000000
C          184.90504500000000        5.61536700000000       -7.78980000000000
C          184.92779999999996        4.79032100000000       -6.67877600000000
C          184.92187699999999        1.97793300000000       -1.94180200000000
C          186.24847899999997        2.28152400000000       -2.44950300000000
C          187.13969000000000        1.64679900000000       -1.69341400000000
C          186.41737599999999        0.90925800000000       -0.68573400000000
N          185.09047500000000        1.13733800000000       -0.87684300000000
H          188.16765599999997        0.12258200000000        0.18285000000000
H          188.00135199999997       -1.29604900000000        2.60522200000000
H          186.04507699999999       -2.62205400000000        3.94378700000000
H          184.31133100000000       -0.54103000000000        0.71403200000000
H          184.70992799999999       -6.64040700000000        4.33921200000000
H          184.63261999999997       -8.47257000000000        6.03246400000000
H          181.87953999999996       -6.44093700000000        8.33027300000000
H          181.83349599999997       -4.51699000000000        6.74006300000000
H          180.69779899999997       -3.33519600000000        3.09083400000000
H          178.94334199999997       -2.14191100000000        1.65750200000000
H          179.17484199999998        2.51341200000000       -1.21152900000000
H          181.14179200000001        3.82928400000000       -2.52941500000000
H          182.77887299999998        0.38147300000000       -0.75291900000000
H          181.98233400000001        5.83780500000000       -5.35173900000000
H          182.10635099999999        7.25009200000000       -7.40593600000000
H          185.71221900000000        5.58977100000000       -8.51545200000000
H          185.75004200000001        4.10299800000000       -6.51080300000000
H          186.47505699999999        2.91682100000000       -3.28634600000000
H          188.20824600000000        1.67145700000000       -1.80828900000000
C          108.13725599999999       -0.06557200000000        0.02322300000000
C          106.88498500000000       -0.08475300000000        0.01887400000000
C          109.45092400000000       -0.06633800000000        0.02515500000000
C          110.95405799999999       -0.08475300000000        0.01887400000000
C          121.54401199999998       -0.06557200000000        0.02322300000000
C          120.29174199999999       -0.08475300000000        0.01887400000000
C          122.85768099999999       -0.06633800000000        0.02515500000000
C          124.36081400000000       -0.08475300000000        0.01887400000000
C          134.95076900000001       -0.06557200000000        0.02322300000000
C          133.69849900000000       -0.08475300000000        0.01887400000000
C          136.26443699999996       -0.06633800000000        0.02515500000000
C          137.76757100000000       -0.08475300000000        0.01887400000000
C          148.35752600000001       -0.06557200000000        0.02322300000000
C          147.10525500000000       -0.08475300000000        0.01887400000000
C          149.67119400000001       -0.06633800000000        0.02515500000000
C          151.17432799999997       -0.08475300000000        0.01887400000000
C          161.76428299999998       -0.06557200000000        0.02322300000000
C          160.51201199999997       -0.08475300000000        0.01887400000000
C          163.07795100000001       -0.06633800000000        0.02515500000000
C          164.58108400000000       -0.08475300000000        0.01887400000000
C          175.17103900000001       -0.06557200000000        0.02322300000000
C          173.91876900000000       -0.08475300000000        0.01887400000000
C          176.48470699999999       -0.06633800000000        0.02515500000000
C          177.98784099999997       -0.08475300000000        0.01887400000000
C          112.00876199999999        0.03875500000000       -0.01001800000000
C          112.80637700000000        0.10585500000000       -1.37699100000000
C          112.31684000000000        0.51306400000000       -2.60062800000000
C          113.35921800000000        0.34833200000000       -3.54896500000000
C          114.45309699999999       -0.15004800000000       -2.87339100000000
N          114.12815300000000       -0.22563300000000       -1.54259900000000
C          115.83775000000000       -0.56309000000000       -3.50376700000000
C          115.82586199999999       -1.04362800000000       -4.85311900000000
C          115.79944799999998       -1.45505500000000       -5.98179900000000
C          115.77047699999999       -1.96021200000000       -7.31714200000000
C          116.52823199999999       -3.07603900000000       -7.65542000000000
C          116.46548699999998       -3.53127600000000       -8.96060800000000
N          115.71270699999999       -2.95697500000000       -9.92639100000000
C          114.98842399999999       -1.87533100000000       -9.56028600000000
C          114.98282200000000       -1.34331900000000       -8.28260900000000
C          116.97448599999998       -0.49828600000000       -2.76551000000000
C          118.26304800000000       -0.88278000000000       -3.30407000000000
C          119.17809400000000       -0.72023800000000       -2.35441500000000
N          117.18972699999999       -0.11076000000000       -1.47159100000000
C          118.51904000000000       -0.22376500000000       -1.16269100000000
C          119.18948000000000        0.03875500000000       -0.01001800000000
C          118.39531799999999        0.56948400000000        1.25622600000000
C          118.90437200000000        1.32480900000000        2.29279200000000
C          117.86361800000000        1.49915900000000        3.24075400000000
C          116.74847900000000        0.85212900000000        2.74999000000000
N          117.06259899999999        0.35409700000000        1.50992300000000
C          115.35553000000000        0.70271700000000        3.47660600000000
C          115.34906500000000        0.77444100000000        4.90730400000000
C          115.34073500000000        0.85753800000000        6.10630000000000
C          115.31376299999999        0.97412500000000        7.52958500000000
C          114.22229199999998        1.56449600000000        8.15794800000000
C          114.24268700000000        1.66196000000000        9.53851900000000
N          115.25900299999999        1.21834000000000       10.31299600000000
C          116.30235999999999        0.64858700000000        9.66694900000000
C          116.37722800000000        0.50404300000000        8.29212200000000
C          114.22149400000001        0.49720400000000        2.76023500000000
C          112.93067599999999        0.33177200000000        3.39763800000000
C          112.01724500000000        0.14588000000000        2.45087400000000
C          112.67876000000000        0.18922200000000        1.16240700000000
N          114.00956900000000        0.39487900000000        1.41333100000000
H          111.31769999999999        0.87204600000000       -2.79426200000000
H          113.31318899999999        0.55513500000000       -4.60716300000000
H          114.77753499999999       -0.43828300000000       -0.79107900000000
H          117.14874699999999       -3.57616500000000       -6.91940500000000
H          117.03823500000000       -4.39898300000000       -9.27273300000000
H          114.38954400000000       -1.43041300000000      -10.34877800000000
H          114.38137999999999       -0.47327200000000       -8.04360100000000
H          118.45356800000000       -1.23851900000000       -4.30078300000000
H          120.22677199999998       -0.92952800000000       -2.46906700000000
H          119.91646899999999        1.69302300000000        2.37077400000000
H          117.92583200000000        2.02407900000000        4.18213800000000
H          116.40470500000001       -0.07770400000000        0.86619900000000
H          113.38090699999998        1.93975600000000        7.58491500000000
H          113.41412500000000        2.11538600000000       10.07435800000000
H          117.10739999999998        0.29803100000000       10.30593700000000
H          117.23952199999999        0.03926000000000        7.82623200000000
H          112.73722100000001        0.34960600000000        4.45500000000000
H          110.96831999999999       -0.00665900000000        2.62921500000000
C          125.41551900000000        0.03875500000000       -0.01001800000000
C          126.21313300000000        0.10585500000000       -1.37699100000000
C          125.72359700000000        0.51306400000000       -2.60062800000000
C          126.76597500000000        0.34833200000000       -3.54896500000000
C          127.85985400000000       -0.15004800000000       -2.87339100000000
N          127.53491000000000       -0.22563300000000       -1.54259900000000
C          129.24450700000000       -0.56309000000000       -3.50376700000000
C          129.23261900000000       -1.04362800000000       -4.85311900000000
C          129.20620500000001       -1.45505500000000       -5.98179900000000
C          129.17723400000000       -1.96021200000000       -7.31714200000000
C          129.93498800000000       -3.07603900000000       -7.65542000000000
C          129.87224399999999       -3.53127600000000       -8.96060800000000
N          129.11946300000000       -2.95697500000000       -9.92639100000000
C          128.39518100000001       -1.87533100000000       -9.56028600000000
C          128.38957800000000       -1.34331900000000       -8.28260900000000
C          130.38124300000001       -0.49828600000000       -2.76551000000000
C          131.66980500000000       -0.88278000000000       -3.30407000000000
C          132.58485099999999       -0.72023800000000       -2.35441500000000
N          130.59648300000001       -0.11076000000000       -1.47159100000000
C          131.92579599999999       -0.22376500000000       -1.16269100000000
C          132.59623700000000        0.03875500000000       -0.01001800000000
C          131.80207500000000        0.56948400000000        1.25622600000000
C          132.31112800000000        1.32480900000000        2.29279200000000
C          131.27037500000000        1.49915900000000        3.24075400000000
C          130.15523600000000        0.85212900000000        2.74999000000000
N          130.46935500000001        0.35409700000000        1.50992300000000
C          128.76228599999999        0.70271700000000        3.47660600000000
C          128.75582199999999        0.77444100000000        4.90730400000000
C          128.74749199999999        0.85753800000000        6.10630000000000
C          128.72051999999999        0.97412500000000        7.52958500000000
C          127.62904899999999        1.56449600000000        8.15794800000000
C          127.64944399999999        1.66196000000000        9.53851900000000
N          128.66576000000001        1.21834000000000       10.31299600000000
C          129.70911599999999        0.64858700000000        9.66694900000000
C          129.78398500000000        0.50404300000000        8.29212200000000
C          127.62824999999998        0.49720400000000        2.76023500000000
C          126.33743300000000        0.33177200000000        3.39763800000000
C          125.42400200000000        0.14588000000000        2.45087400000000
C          126.08551600000000        0.18922200000000        1.16240700000000
N          127.41632600000000        0.39487900000000        1.41333100000000
H          124.72445600000000        0.87204600000000       -2.79426200000000
H          126.71994599999998        0.55513500000000       -4.60716300000000
H          128.18429100000000       -0.43828300000000       -0.79107900000000
H          130.55550299999999       -3.57616500000000       -6.91940500000000
H          130.44499099999999       -4.39898300000000       -9.27273300000000
H          127.79630100000000       -1.43041300000000      -10.34877800000000
H          127.78813700000001       -0.47327200000000       -8.04360100000000
H          131.86032499999999       -1.23851900000000       -4.30078300000000
H          133.63352900000001       -0.92952800000000       -2.46906700000000
H          133.32322600000001        1.69302300000000        2.37077400000000
H          131.33258900000001        2.02407900000000        4.18213800000000
H          129.81146100000001       -0.07770400000000        0.86619900000000
H          126.78766400000001        1.93975600000000        7.58491500000000
H          126.82088200000000        2.11538600000000       10.07435800000000
H          130.51415600000001        0.29803100000000       10.30593700000000
H          130.64627800000000        0.03926000000000        7.82623200000000
H          126.14397800000000        0.34960600000000        4.45500000000000
H          124.37507700000000       -0.00665900000000        2.62921500000000
C          138.82227599999999        0.03875500000000       -0.01001800000000
C          139.61989000000000        0.10585500000000       -1.37699100000000
C          139.13035400000001        0.51306400000000       -2.60062800000000
C          140.17273200000000        0.34833200000000       -3.54896500000000
C          141.26660999999999       -0.15004800000000       -2.87339100000000
N          140.94166700000000       -0.22563300000000       -1.54259900000000
C          142.65126400000000       -0.56309000000000       -3.50376700000000
C          142.63937500000000       -1.04362800000000       -4.85311900000000
C          142.61296200000001       -1.45505500000000       -5.98179900000000
C          142.58399100000000       -1.96021200000000       -7.31714200000000
C          143.34174500000000       -3.07603900000000       -7.65542000000000
C          143.27900099999999       -3.53127600000000       -8.96060800000000
N          142.52622000000000       -2.95697500000000       -9.92639100000000
C          141.80193700000001       -1.87533100000000       -9.56028600000000
C          141.79633499999997       -1.34331900000000       -8.28260900000000
C          143.78800000000001       -0.49828600000000       -2.76551000000000
C          145.07656199999997       -0.88278000000000       -3.30407000000000
C          145.99160800000001       -0.72023800000000       -2.35441500000000
N          144.00324000000001       -0.11076000000000       -1.47159100000000
C          145.33255299999999       -0.22376500000000       -1.16269100000000
C          146.00299299999998        0.03875500000000       -0.01001800000000
C          145.20883100000000        0.56948400000000        1.25622600000000
C          145.71788500000000        1.32480900000000        2.29279200000000
C          144.67713200000000        1.49915900000000        3.24075400000000
C          143.56199199999998        0.85212900000000        2.74999000000000
N          143.87611200000001        0.35409700000000        1.50992300000000
C          142.16904299999999        0.70271700000000        3.47660600000000
C          142.16257899999999        0.77444100000000        4.90730400000000
C          142.15424899999996        0.85753800000000        6.10630000000000
C          142.12727699999996        0.97412500000000        7.52958500000000
C          141.03580600000001        1.56449600000000        8.15794800000000
C          141.05619999999999        1.66196000000000        9.53851900000000
N          142.07251600000001        1.21834000000000       10.31299600000000
C          143.11587299999999        0.64858700000000        9.66694900000000
C          143.19074200000000        0.50404300000000        8.29212200000000
C          141.03500700000001        0.49720400000000        2.76023500000000
C          139.74419000000000        0.33177200000000        3.39763800000000
C          138.83075800000000        0.14588000000000        2.45087400000000
C          139.49227300000001        0.18922200000000        1.16240700000000
N          140.82308300000000        0.39487900000000        1.41333100000000
H          138.13121300000000        0.87204600000000       -2.79426200000000
H          140.12670199999999        0.55513500000000       -4.60716300000000
H          141.59104800000000       -0.43828300000000       -0.79107900000000
H          143.96225999999999       -3.57616500000000       -6.91940500000000
H          143.85174799999999       -4.39898300000000       -9.27273300000000
H          141.20305700000000       -1.43041300000000      -10.34877800000000
H          141.19489400000001       -0.47327200000000       -8.04360100000000
H          145.26708199999999       -1.23851900000000       -4.30078300000000
H          147.04028500000001       -0.92952800000000       -2.46906700000000
H          146.72998200000001        1.69302300000000        2.37077400000000
H          144.73934600000001        2.02407900000000        4.18213800000000
H          143.21821800000001       -0.07770400000000        0.86619900000000
H          140.19442000000001        1.93975600000000        7.58491500000000
H          140.22763800000001        2.11538600000000       10.07435800000000
H          143.92091300000001        0.29803100000000       10.30593700000000
H          144.05303499999999        0.03926000000000        7.82623200000000
H          139.55073500000000        0.34960600000000        4.45500000000000
H          137.78183400000000       -0.00665900000000        2.62921500000000
C          152.22903199999996        0.03875500000000       -0.01001800000000
C          153.02664699999997        0.10585500000000       -1.37699100000000
C          152.53711000000001        0.51306400000000       -2.60062800000000
C          153.57948900000000        0.34833200000000       -3.54896500000000
C          154.67336699999998       -0.15004800000000       -2.87339100000000
N          154.34842300000000       -0.22563300000000       -1.54259900000000
C          156.05802100000000       -0.56309000000000       -3.50376700000000
C          156.04613200000000       -1.04362800000000       -4.85311900000000
C          156.01971800000001       -1.45505500000000       -5.98179900000000
C          155.99074700000000       -1.96021200000000       -7.31714200000000
C          156.74850200000000       -3.07603900000000       -7.65542000000000
C          156.68575700000000       -3.53127600000000       -8.96060800000000
N          155.93297699999999       -2.95697500000000       -9.92639100000000
C          155.20869399999998       -1.87533100000000       -9.56028600000000
C          155.20309200000000       -1.34331900000000       -8.28260900000000
C          157.19475600000001       -0.49828600000000       -2.76551000000000
C          158.48331899999999       -0.88278000000000       -3.30407000000000
C          159.39836399999999       -0.72023800000000       -2.35441500000000
N          157.40999700000000       -0.11076000000000       -1.47159100000000
C          158.73930999999999       -0.22376500000000       -1.16269100000000
C          159.40975000000000        0.03875500000000       -0.01001800000000
C          158.61558800000000        0.56948400000000        1.25622600000000
C          159.12464199999999        1.32480900000000        2.29279200000000
C          158.08388899999997        1.49915900000000        3.24075400000000
C          156.96874900000000        0.85212900000000        2.74999000000000
N          157.28286899999998        0.35409700000000        1.50992300000000
C          155.57579999999999        0.70271700000000        3.47660600000000
C          155.56933500000000        0.77444100000000        4.90730400000000
C          155.56100599999999        0.85753800000000        6.10630000000000
C          155.53403299999999        0.97412500000000        7.52958500000000
C          154.44256200000001        1.56449600000000        8.15794800000000
C          154.46295699999999        1.66196000000000        9.53851900000000
N          155.47927299999998        1.21834000000000       10.31299600000000
C          156.52262999999999        0.64858700000000        9.66694900000000
C          156.59749899999997        0.50404300000000        8.29212200000000
C          154.44176400000001        0.49720400000000        2.76023500000000
C          153.15094700000000        0.33177200000000        3.39763800000000
C          152.23751500000000        0.14588000000000        2.45087400000000
C          152.89903000000001        0.18922200000000        1.16240700000000
N          154.22983900000000        0.39487900000000        1.41333100000000
H          151.53797000000000        0.87204600000000       -2.79426200000000
H          153.53345899999999        0.55513500000000       -4.60716300000000
H          154.99780499999997       -0.43828300000000       -0.79107900000000
H          157.36901699999999       -3.57616500000000       -6.91940500000000
H          157.25850500000001       -4.39898300000000       -9.27273300000000
H          154.60981400000000       -1.43041300000000      -10.34877800000000
H          154.60165100000000       -0.47327200000000       -8.04360100000000
H          158.67383799999999       -1.23851900000000       -4.30078300000000
H          160.44704200000001       -0.92952800000000       -2.46906700000000
H          160.13673900000001        1.69302300000000        2.37077400000000
H          158.14610300000001        2.02407900000000        4.18213800000000
H          156.62497500000001       -0.07770400000000        0.86619900000000
H          153.60117699999998        1.93975600000000        7.58491500000000
H          153.63439499999998        2.11538600000000       10.07435800000000
H          157.32767000000001        0.29803100000000       10.30593700000000
H          157.45979199999999        0.03926000000000        7.82623200000000
H          152.95749100000000        0.34960600000000        4.45500000000000
H          151.18859099999997       -0.00665900000000        2.62921500000000
C          165.63578899999999        0.03875500000000       -0.01001800000000
C          166.43340400000000        0.10585500000000       -1.37699100000000
C          165.94386700000001        0.51306400000000       -2.60062800000000
C          166.98624500000000        0.34833200000000       -3.54896500000000
C          168.08012400000001       -0.15004800000000       -2.87339100000000
N          167.75518000000000       -0.22563300000000       -1.54259900000000
C          169.46477700000000       -0.56309000000000       -3.50376700000000
C          169.45288900000000       -1.04362800000000       -4.85311900000000
C          169.42647500000001       -1.45505500000000       -5.98179900000000