432
 energy: -755.094283149709 gnorm: 0.000725600031 xtb: 6.5.1 (b24c23e)
C           98.45128574600496       -0.04620768387160       -0.13847017207445
C           99.05648721736509        0.95206172394880       -0.89319468923757
C           98.40939619199160        1.94961137928405       -1.67345772331600
C           99.37739665385502        2.72387975209269       -2.25203488843934
C          100.64147495811038        2.22080249238905       -1.84194802228435
N          100.40228370807833        1.15691507198586       -1.02596325197027
C          101.90916023330216        2.71156414981808       -2.20184509443749
C          101.93193087837439        3.83100846591545       -3.06296408476128
C          101.94613971884397        4.79519769699213       -3.79971799489865
C          101.97098075470338        5.91877585646790       -4.65703847312861
C          100.78741143873039        6.50285949652629       -5.12382901483436
C          100.86694506518887        7.60186342097973       -5.96037365942190
N          102.02098546584310        8.13860790156200       -6.34872892731783
C          103.15056932274965        7.58933905685656       -5.90916303638243
C          103.18060189529599        6.48974662967092       -5.07018281748075
C          103.13809153624227        2.18153542744045       -1.77500419156843
C          104.42122635918012        2.72063872745521       -2.18144737020976
C          105.36025490520954        1.96380512201614       -1.57577516814583
N          103.30906627690020        1.12478138069096       -0.94488910605120
C          104.64508435758790        0.96751422996752       -0.80155400105285
C          105.29196783408617       -0.00120174477135       -0.01379670508887
C          104.66188408526011       -0.99207475988753        0.76229501416211
C          105.30243475293098       -1.97934927783752        1.55578768328732
C          104.33035182080458       -2.75454507712070        2.12828502656580
C          103.07105508966566       -2.25991562157033        1.69962940414315
N          103.31775709316318       -1.19601171799837        0.87994286477658
C          101.80490418994259       -2.76458515324279        2.04412858511621
C          101.78176950757673       -3.88803710282149        2.89856455433804
C          101.76646492280639       -4.85785224462479        3.62822432305024
C          101.74364591649244       -5.98964297520453        4.47428079071328
C          102.92840909733523       -6.57566200651415        4.93580061152369
C          102.85108443219583       -7.68402147132278        5.76005294671340
N          101.69818466793876       -8.22801532471588        6.14163793480595
C          100.56753744140038       -7.67649768643322        5.70771677479665
C          100.53523876285499       -6.56792671997604        4.88082348369179
C          100.57546663512117       -2.24209250324979        1.60405578028380
C           99.28632154074157       -2.79044413536649        1.98803295655580
C           98.35376340780876       -2.02974972783323        1.37938589007158
C           99.07653807197688       -1.02048366481297        0.62494769464464
N          100.41686091663428       -1.18259752195866        0.78621272860947
H           97.36618979072274       -0.05647723129774       -0.15530018205537
H           97.34043978447647        2.05148908927918       -1.77162409986663
H           99.23889870754368        3.56966501802104       -2.90632085601973
H          101.12137698426987        0.59666046909255       -0.58077688083847
H           99.82579415080514        6.09780142688024       -4.83228424381134
H           99.96458762873525        8.07478956199298       -6.33735903560225
H          104.07395363023586        8.05233079673210       -6.24524171176170
H          104.12357368437998        6.07415751836692       -4.73599379023172
H          104.55549657127720        3.56315052050614       -2.84093219093438
H          106.43375455496090        2.04975853831870       -1.62895476977021
H          106.37022768931743       -2.07740299658310        1.66707658622589
H          104.46540117431132       -3.59569117825928        2.78900458894673
H          102.60168236553935       -0.64201676433053        0.42181742160022
H          103.88914879914644       -6.16509141084622        4.64927961953005
H          103.75433848574740       -8.15905572403754        6.13207043785089
H           99.64513306977908       -8.14548953059347        6.03805690606523
H           99.59147646590026       -6.15102384278091        4.55059364740239
H           99.14718106670695       -3.64090667862716        2.63647203198290
H           97.27925874440052       -2.11700573924990        1.41651606029487
C          186.32063828651661       -0.17732151626040        0.03066918710940
C          185.71213446700966       -1.00717637863493        0.96535559563930
C          186.35561178596853       -1.86723200981555        1.89743766472601
C          185.38497039207132       -2.49823904260153        2.62623590032136
C          184.12301399501530       -2.04044803903841        2.16065056788358
N          184.36583190352977       -1.14679258933462        1.16202725140262
C          182.85383382266087       -2.42051508094169        2.63210205387830
C          182.82568025587290       -3.36901755054598        3.67841156923270
C          182.80290584050329       -4.18903452061972        4.57267714649279
C          182.76697049057512       -5.14620465426584        5.61216791711234
C          183.94360297222380       -5.68668241229012        6.14428903677786
C          183.85211037991465       -6.62223639949111        7.15939445465785
N          182.69282797441346       -7.03970942047566        7.66178290633631
C          181.56974373387803       -6.53063373033897        7.16137896246881
C          181.55172146001624       -5.59072425062563        6.14645395092503
C          181.62745464112535       -1.93743557881133        2.14681219518569
C          180.34326189866707       -2.35313018150325        2.67595695895809
C          179.40694297533756       -1.69132355082667        1.96408977039896
N          181.45968099632759       -1.04489076896861        1.14126633569673
C          180.12485537268745       -0.87674959093443        1.00256312650938
C          179.47953628080793       -0.05573392249372        0.05992674885746
C          180.11213900386508        0.75387713673782       -0.90244783902950
C          179.47444671816396        1.58931587668249       -1.85620062575413
C          180.44929846143941        2.21639603694014       -2.58446171573621
C          181.70736355620181        1.77930697487829       -2.09425409772449
N          181.45710043357133        0.89684753095184       -1.08259699894719
C          182.97578023960327        2.17740006379592       -2.55173164929928
C          183.00357172442182        3.11713550791949       -3.60475154780962
C          183.02510878477287        3.92814997440679       -4.50752925993694
C          183.05577240814884        4.87454047883807       -5.55667474641664
C          181.87517859525914        5.37555001564021       -6.11809442336278
C          181.96044972103542        6.30214051573990       -7.14182388611200
N          183.11726729158514        6.74706913153382       -7.62606789372874
C          184.24403291556590        6.27554848474100       -7.09795887287116
C          184.26838708657854        5.34758118688412       -6.07229052356963
C          184.20372176761120        1.71648133846588       -2.04371056583624
C          185.49503401462198        2.15268712629188       -2.54599267210440
C          186.42504480575101        1.49415870203191       -1.82475616735798
C          185.69865911285856        0.65873743689450       -0.88424627352659
N          184.35866095691807        0.82249361058653       -1.04704446614731
H          187.40577350002383       -0.19320962196312        0.02304924015536
H          187.42404012883358       -1.98031189327888        1.98887756233838
H          185.52037906693133       -3.21727870793395        3.41824235552652
H          183.64873440528842       -0.65528607470906        0.63915635784238
H          184.90915564555240       -5.37499651245954        5.76443706799936
H          184.74888001826363       -7.05806969267053        7.59057411826521
H          180.64175694108292       -6.89333945556175        7.59407492511957
H          180.61374496173855       -5.20270186418449        5.76793175790266
H          180.20630576233145       -3.05595993620649        3.48220147223768
H          178.33362155472264       -1.73308341480814        2.05806305911263
H          178.40665625126749        1.69229326668826       -1.96308629273128
H          180.31688491403378        2.92034521059624       -3.39021746339025
H          182.17167352595337        0.42024776146760       -0.54241184045128
H          180.91145351964428        5.04060218731652       -5.75379868545243
H          181.06055906246297        6.70749323445374       -7.59548328241631
H          185.16982178838643        6.65977298810266       -7.51652479874263
H          185.20921171337045        4.99036174051702       -5.67130980645702
H          185.63728456038274        2.86575039074292       -3.34250306605314
H          187.50001830175739        1.54639135702492       -1.89720896185500
C          107.92181981845960        0.00061785659262        0.03090796900052
C          106.70086833682591        0.00531652611324        0.00947010883760
C          109.27353702419440       -0.00704491704049        0.04528784153968
C          110.49460766770116       -0.01944532216255        0.06049454121600
C          121.43834982315127       -0.10417494927233        0.04712186141549
C          120.21577420249112       -0.10336367012889        0.04760023531279
C          122.78698760396122       -0.10706040195317        0.04269811652239
C          124.00955752445520       -0.10528202020348        0.04167569001962
C          134.95341140280752       -0.05149181059320        0.01627609044095
C          133.73075785145636       -0.05720451827069        0.01455129748955
C          136.30195317240910       -0.05085260134898        0.01504554822394
C          137.52461604338100       -0.05134134587617        0.01903511341062
C          148.46999603901497       -0.06427584755529        0.01977567675920
C          147.24732399231905       -0.06760135628078        0.01715586878956
C          149.81854999069924       -0.06360741768415        0.01879045672319
C          151.04122020106826       -0.06373920420184        0.02261998110728
C          161.98541113801136       -0.07119140756233        0.03887382319399
C          160.76282746976136       -0.07551752782406        0.03228913481400
C          163.33401235226361       -0.06749850718117        0.04211681209333
C          164.55654519036716       -0.06582514745709        0.05101240857967
C          175.49906801786400       -0.01891790980990        0.07362984672090
C          174.27756313914443       -0.01903818595687        0.07348323901013
C          176.85013416211754       -0.02283015413248        0.06726322990212
C          178.07150452369754       -0.03591900982676        0.06536963057455
C          111.90281225232926       -0.03944218313586        0.06263542749200
C          112.52665485965629       -0.25271208120139       -1.18162252036620
C          111.88340097694645       -0.45977584629954       -2.42844866550729
C          112.85466015453612       -0.65339733673116       -3.37441648036761
C          114.11422635048524       -0.56671740556249       -2.72820012732177
N          113.87068472240870       -0.32141230265124       -1.40788164969869
C          115.37926893375796       -0.70841627868238       -3.32843943176501
C          115.38628860591989       -0.98682072640630       -4.71357266541166
C          115.38621879443598       -1.23805688505415       -5.90081946909934
C          115.39281540558017       -1.53686985808747       -7.28239780734829
C          116.59274826272581       -1.72532903417019       -7.97842577459394
C          116.54445677503129       -2.02128513402377       -9.32899741447448
N          115.40598375426215       -2.13715336974518      -10.00814955354889
C          114.26109265271643       -1.95878815043386       -9.35388420241717
C          114.19980176141149       -1.66001813682179       -8.00443361884519
C          116.61642704019066       -0.60079374432565       -2.67509062971359
C          117.88906557095528       -0.74051418341890       -3.35529174646968
C          118.84286724040248       -0.56661506259737       -2.41625149231988
N          116.80833247863599       -0.35201234221161       -1.35633324828630
C          118.14644953238133       -0.32584799999647       -1.16775379951569
C          118.81126477457404       -0.10305271042810        0.05302285724763
C          118.18641522197153        0.11955529719131        1.29647155975185
C          118.82948343553029        0.33646069154244        2.54140740899995
C          117.85755968263088        0.49827379528471        3.49284719172071
C          116.59778944603134        0.38547133349214        2.85100055565862
N          116.84255203758377        0.15812301815412        1.52713936888071
C          115.33244927844360        0.48611776687781        3.45787947369742
C          115.32455089157236        0.71793689010915        4.85139971866234
C          115.32742119069347        0.91400247702900        6.04911798158442
C          115.32342505117353        1.14411879485833        7.44374209887005
C          114.12485431670017        1.24282022225617        8.16018283195604
C          114.17632126005327        1.46695842540437        9.52439746004905
N          115.31660611018992        1.59526304677497       10.19813688904941
C          116.46028083896756        1.50311974267030        9.52428412506020
C          116.51843943227448        1.28041159142891        8.16011784231879
C          114.09475018381364        0.37952951773117        2.80334319362186
C          112.82165579666945        0.49767433067794        3.48740345064087
C          111.86812260361184        0.35214605910753        2.54343449272845
C          112.56455071169974        0.14482541196909        1.28895074288364
N          113.90419968446186        0.16514910151734        1.47978978638074
H          110.81532994962592       -0.46163735487697       -2.57435067049404
H          112.71731113441507       -0.83979611261522       -4.42732981563378
H          114.58510946781581       -0.21233409522993       -0.69580939479500
H          117.54230959874411       -1.64070116804695       -7.46384791338710
H          117.45988498429098       -2.17323142832423       -9.89366284386980
H          113.35116608850380       -2.06067958282893       -9.93837848707981
H          113.24519723830774       -1.52339158095469       -7.51067496923794
H          118.00722344649336       -0.94156102703407       -4.40805981408106
H          119.91479044615269       -0.59505175913099       -2.52935681552361
H          119.89782351380397        0.36263248910064        2.68313073530288
H          117.99464166925706        0.67997667908711        4.54662249170395
H          116.12825412032754        0.03437812260273        0.81735505230095
H          113.17384283659344        1.14432250621989        7.65088999851523
H          113.26199513400330        1.54750701146111       10.10523278799419
H          117.37175729100274        1.61278844860150       10.10485534812582
H          117.47211978026165        1.21202376495330        7.65069763166777
H          112.70332133532023        0.66954975061408        4.54531271126328
H          110.79614673912089        0.37823775263517        2.65648204433711
C          125.41394347597580       -0.10402964543797        0.03767815628480
C          126.04055164886471       -0.34969225654978       -1.20082733251131
C          125.39945624681880       -0.60353126191169       -2.43945650798394
C          126.37311991812615       -0.79284321821168       -3.38444870826209
C          127.63143932633220       -0.65810401108555       -2.74481231011457
N          127.38480546593073       -0.39110847474665       -1.42888307894784
C          128.89831033189284       -0.77511317274446       -3.34680854390819
C          128.90910605249340       -1.06492021023470       -4.72956181718207
C          128.91449448978449       -1.31905223990827       -5.91620478663504
C          128.92991753530367       -1.61774715413738       -7.29774412666175
C          130.13512645484585       -1.78670343735006       -7.98977052809200
C          130.09629407253220       -2.08012958310675       -9.34119044827274
N          128.96218967361088       -2.21138365899184      -10.02477377932288
C          127.81229205565565       -2.05177711603943       -9.37434342157205
C          127.74149715873259       -1.75733092078787       -8.02434942605854
C          130.13463866263430       -0.63139965669127       -2.69868174865232
C          131.40807301340192       -0.75617067579920       -3.38023399863954
C          132.36077591431018       -0.55657394253876       -2.44512513003272
N          130.32507292884443       -0.36306205575533       -1.38348088595180
C          131.66305418102985       -0.31274030973354       -1.19810111811030
C          132.32648360059994       -0.06627181349197        0.01893837758395
C          131.69975065426263        0.17015075819485        1.25923100154139
C          132.34086548891744        0.41389044873630        2.49990624943470
C          131.36728973961516        0.58708986521523        3.44802213309405
C          130.10896274389216        0.45397850896477        2.80802023358412
N          130.35558008285639        0.20340124529770        1.48878798408947
C          128.84229642615367        0.55967802692974        3.41229044646539
C          128.83199567877540        0.81982375480643        4.80091347425658
C          128.82741895548176        1.03959166146731        5.99440811594040
C          128.81581266235989        1.29420024274543        7.38475903479208
C          127.61288712944405        1.40715662352206        8.09175763188608
C          127.65607607670627        1.65552590253700        9.45205774121862
N          128.79232262564537        1.79415886552888       10.13054192548382
C          129.94005830098700        1.68827997930848        9.46571984503069
C          130.00649502164475        1.44135304643174        8.10607024348837
C          127.60581882976743        0.42980260610161        2.76140410469601
C          126.33240723258200        0.55684004622666        3.44250188808991
C          125.37962076758537        0.37447252419305        2.50395746428100
C          126.07733589033350        0.13584878124137        1.25594579486300
N          127.41547192934151        0.17576058627953        1.44346513462255
H          124.33135940010999       -0.63631204018337       -2.58162746745108
H          126.23766664767680       -1.00654696610435       -4.43240638446582
H          128.09796026436860       -0.24561347062400       -0.72205315918761
H          131.08136769460540       -1.68907410630276       -7.47150897319331
H          131.01588836739546       -2.21731374503899       -9.90271436816208
H          126.90614459090554       -2.16589298056298       -9.96245695805761
H          126.78306389978519       -1.63609182352224       -7.53377631822436
H          131.52762641877240       -0.96705531130863       -4.43092032417433
H          133.43278787058503       -0.56834680748267       -2.56027601714263
H          133.40892782756995        0.44997540036323        2.64151157563991
H          131.50275946219858        0.78950847706303        4.49822021121329
H          129.64244440401080        0.06085593257527        0.78133382551216
H          126.66496388493029        1.30089962820833        7.57823262176408
H          126.73822998950115        1.74775358818655       10.02555568800603
H          130.84800983468048        1.80678348349286       10.05005827123722
H          130.96323186851816        1.36239873500385        7.60400621762301
H          126.21289499719005        0.75893587690168        4.49491511489120
H          124.30755908556547        0.39350716487577        2.61769684647351
C          138.92889694349424       -0.05729574499145        0.01907297962791
C          139.55743387839644       -0.30694398054550       -1.21771187576632
C          138.91828443577396       -0.55479572344652       -2.45853585267039
C          139.89341495999838       -0.75387370278556       -3.39997962123144
C          141.15072567778427       -0.63092455647903       -2.75597157320233
N          140.90201064451782       -0.36047921649816       -1.44112294733725
C          142.41831792732370       -0.76232566583674       -3.35341813210949
C          142.42997417899974       -1.05684622388005       -4.73516080677013
C          142.43418860427002       -1.31607319787116       -5.92069165403607
C          142.44741586680317       -1.62166673719081       -7.30072606280991
C          143.65069646688366       -1.82288121151774       -7.98741496627467
C          143.60966930324983       -2.12264181033866       -9.33737266774813
N          142.47516876260798       -2.23038281069741      -10.02439843918412
C          141.32715181174896       -2.04005766720006       -9.37902527120793
C          141.25860043357233       -1.73698702676952       -8.03084155896240
C          143.65404544239382       -0.62889974812449       -2.70197401857118
C          144.92820151518828       -0.76652012209157       -3.37962550006275
C          145.88000872504560       -0.57073555543816       -2.44277934020371
N          143.84309791265412       -0.35805178135396       -1.38711700994848
C          145.18097500025968       -0.31725204095813       -1.19844185384440
C          145.84302827589272       -0.07166035756607        0.01953260121892
C          145.21451296290093        0.16872376795951        1.25819330921673
C          145.85363281865310        0.40774882726664        2.50076898196295
C          144.87846231670150        0.58528985061909        3.44648323454785
C          143.62112652062089        0.46021143283405        2.80293505427951
N          143.86990107909367        0.20949321796055        1.48416960066487
C          142.35345407062061        0.57361524490959        3.40391082533814
C          142.34106205451806        0.83001272243042        4.79324111779641
C          142.33433792179400        1.04545206719297        5.98750871948659
C          142.31883062009052        1.29453992058411        7.37882909977829
C          141.11351243689435        1.40948037549011        8.08148148088880
C          141.15216463812391        1.65166696856547        9.44299115299966
N          142.28623430178689        1.78264849535580       10.12662651202398
C          143.43618640474492        1.67501846836280        9.46596292821686
C          143.50716027388935        1.43372500689703        8.10550812923526
C          141.11775832029025        0.45508082459382        2.74945541220758
C          139.84356614100378        0.59154521626777        3.42731965109341
C          138.89181819996074        0.41919167439446        2.48582679156961
C          139.59089588312972        0.17669960072570        1.23933197265895
N          140.92875612886337        0.20534637225272        1.43041051563734
H          137.85044074873940       -0.57735622337942       -2.60451904696338
H          139.75961736052719       -0.96668788856219       -4.44832830643115
H          141.61389268097972       -0.22169804856432       -0.73166073484244
H          144.59713699450754       -1.74491447837106       -7.46612781149283
H          144.52778696371269       -2.28452733541209       -9.89487741097832
H          140.42062827083126       -2.13556187518425       -9.96990902159700
H          140.30157779161451       -1.59035256097688       -7.54445475914126
H          145.04882278832793       -0.98224614772553       -4.42919885092381
H          146.95219447974387       -0.59149461407408       -2.55505533062294
H          146.92149714052769        0.43757493620209        2.64528833841112
H          145.01222985944580        0.78573918417219        4.49727304668424
H          143.15798313370567        0.07177042015740        0.77453739416869
H          140.16729876985460        1.30935535662834        7.56361103833195
H          140.23239839738841        1.74511264785071       10.01320641138548
H          144.34224928238788        1.78724530458621       10.05444629733883
H          144.46563256478026        1.35311471877879        7.60703130106961
H          139.72285863605811        0.79258656244082        4.47980584209348
H          137.81964064313689        0.44724132931946        2.59660626672742
C          152.44552400203833       -0.06772163060936        0.02349866423729
C          153.07546539026862       -0.31799062193795       -1.21243028611587
C          152.43761155903999       -0.56795355290758       -2.45353345677501
C          153.41371858980909       -0.76436358103470       -3.39450578620061
C          154.67040749758510       -0.63777996973748       -2.74994872517204
N          154.42028258818272       -0.36816425520930       -1.43514228150490
C          155.93868045983157       -0.76407667650903       -3.34698016276747
C          155.95170595585205       -1.05550636491957       -4.72936533855638
C          155.95671125781419       -1.31211377179511       -5.91547699834654
C          155.96788503653815       -1.61423338200747       -7.29630449450099
C          157.17017539191116       -1.79360773358613       -7.99067987932456
C          157.12595482499657       -2.09082113297827       -9.34113578718984
N          155.98930206664511       -2.21603716000263      -10.02162300554860
C          154.84216164814018       -2.04658908085411       -9.36889889448241
C          154.77676852198076       -1.74762076779583       -8.01968049514729
C          157.17357372467328       -0.62860337502556       -2.69422044178393
C          158.44872273612839       -0.76141790145902       -3.37096533919800
C          159.39913818441914       -0.56770205832705       -2.43226302792043
N          157.36061983342549       -0.36187166265198       -1.37831051272397
C          158.69828222892761       -0.32004507230603       -1.18779136476635
C          159.35844936728387       -0.07900435520764        0.03198418260691
C          158.72850965258434        0.15868632620624        1.27042753459528
C          159.36641410316162        0.39470343419141        2.51421859549392
C          158.39034141366940        0.57377369657221        3.45871401019745
C          157.13367794011842        0.45237804732454        2.81321007205399
N          157.38367912475630        0.20206871601819        1.49462506510489
C          155.86529076061538        0.56912655438607        3.41205522250996
C          155.85081467178213        0.82826041924397        4.80084062841299
C          155.84230561063930        1.04737088172129        5.99444473813031
C          155.82236685791810        1.29941648530347        7.38517137319859
C          154.61470365415852        1.41520162773640        8.08364567499954
C          154.64880080696685        1.66102505676831        9.44463492223210
N          155.78055045004118        1.79489442947914       10.13153794923576
C          156.93270837249537        1.68677103415670        9.47477746836416
C          157.00822876514019        1.44193685329965        8.11521432626549
C          154.63060471485895        0.45145793743171        2.75566140733648
C          153.35545950442446        0.59042679105502        3.43121470003166
C          152.40507783662196        0.41568197420898        2.48881410921809
C          153.10594886184438        0.16975318430997        1.24396789015516
N          154.44348814318437        0.19879491811587        1.43688377191058
H          151.36990025678747       -0.59343593133408       -2.60000622138187
H          153.28096224275473       -0.97768487552121       -4.44289227390639
H          155.13157205340437       -0.22753391709241       -0.72545028519888
H          158.11840332486557       -1.70083898410544       -7.47505351474123
H          158.04327568838872       -2.23572378113184       -9.90460910370971
H          153.93381653778442       -2.15591662595595       -9.95453219390732
H          153.82046285298503       -1.61810385814395       -7.52718394222717
H          158.57084903050080       -0.97293236237046       -4.42122294514826
H          160.47149460932991       -0.58620365560175       -2.54333746454868
H          160.43413387280688        0.42170084024406        2.66034261367815
H          158.52310815710834        0.77279206736824        4.50990328481682
H          156.67235094723509        0.06684471002681        0.78392416424682
H          153.67020234916399        1.31290908811119        7.56304422405017
H          153.72711846658117        1.75499906153383       10.01166100970414
H          157.83676825486253        1.80152552077449       10.06585131267457
H          157.96832933616838        1.36113115742713        7.61992872108181
H          153.23329090383336        0.79442189982698        4.48295596917737
H          151.33275632015909        0.44442491507777        2.59794220297168
C          165.96101330096349       -0.06338132572863        0.05444810062783
C          166.59385486868848       -0.29328872206219       -1.18368371214657
C          165.95898106392613       -0.53654862450428       -2.42790998017700
C          166.93715795508521       -0.70910866536712       -3.37110767853321
C          168.19248210169187       -0.57306928094280       -2.72527688417578
N          167.93910230333157       -0.32378802212603       -1.40701789833190
C          169.46178390771567       -0.66847160768409       -3.32465716285110
C          169.48069870786256       -0.94494122684026       -4.70989663154862
C          169.49244756788121       -1.19548681795595       -5.89728290590236