110
 energy: -195.135124935063 gnorm: 2.195513453211 xtb: 6.5.1 (b24c23e)
Ni          13.97360900000000        0.00883900000000        0.00081900000000
C           10.60757400000000       -0.10531300000000       -0.03111800000000
C           11.27051300000000       -1.26373900000000        0.02643600000000
C           10.61887700000000       -2.56666900000000        0.08524700000000
C           11.55873500000000       -3.48704100000000        0.19217300000000
C           12.86489800000000       -2.81426700000000        0.20612600000000
N           12.68873800000000       -1.40135300000000        0.09619000000000
C           14.05379300000000       -3.43219800000000        0.35966700000000
C           14.08956800000000       -4.90339100000000        0.51001100000000
C           14.29484100000000       -5.47985100000000        1.77055000000000
C           14.32351100000000       -6.87115300000000        1.89154800000000
N           14.15084900000000       -7.65498100000000        0.79382300000000
C           13.94890800000000       -7.12003000000000       -0.43993300000000
C           13.91556900000000       -5.73336000000000       -0.60570000000000
C           15.34803400000000       -2.70144800000000        0.39955700000000
C           16.63805100000000       -3.33914100000000        0.68902100000000
C           17.57267900000000       -2.41489900000000        0.60524200000000
N           15.48989100000000       -1.43728700000000        0.14040800000000
C           16.88905400000000       -1.17716900000000        0.25226600000000
C           17.48544000000000        0.00000000000000        0.00000000000000
C           16.72757600000000        1.21586600000000       -0.37330000000000
C           17.27087000000000        2.28931900000000       -0.93316200000000
C           16.22819800000000        3.28889100000000       -1.05125800000000
C           15.11654300000000        2.76212000000000       -0.55222900000000
N           15.34129400000000        1.42506400000000       -0.10176300000000
C           13.83143700000000        3.49537400000000       -0.41532000000000
C           13.85428400000000        4.97801500000000       -0.46251500000000
C           13.19257200000000        5.67194700000000       -1.48606100000000
C           13.23678200000000        7.06785500000000       -1.50885000000000
N           13.92341600000000        7.74504000000000       -0.55009800000000
C           14.58261800000000        7.09715700000000        0.44643700000000
C           14.56371700000000        5.70182200000000        0.50689300000000
C           12.66454600000000        2.84659500000000       -0.23799900000000
C           11.35233900000000        3.46289100000000       -0.04813600000000
C           10.49009800000000        2.46936000000000        0.04567100000000
C           11.24249000000000        1.22141300000000       -0.06970600000000
N           12.51085300000000        1.42858200000000       -0.23519100000000
H            9.52442500000000       -0.13329500000000       -0.03131300000000
H            9.55449200000000       -2.76120600000000        0.06009800000000
H           11.37019900000000       -4.55002300000000        0.26976800000000
H           14.43124300000000       -4.85844000000000        2.64699300000000
H           14.48232500000000       -7.32829800000000        2.85900800000000
H           13.81373600000000       -7.77159200000000       -1.29286000000000
H           13.75413400000000       -5.31036900000000       -1.58943200000000
H           16.81614500000000       -4.37986300000000        0.92375900000000
H           18.63043700000000       -2.57802400000000        0.75928000000000
H           18.30404900000000        2.41442300000000       -1.22682000000000
H           16.34618300000000        4.28800400000000       -1.44903300000000
H           12.65192800000000        5.13727400000000       -2.25633200000000
H           12.72612200000000        7.61331900000000       -2.29117300000000
H           15.12087500000000        7.66540800000000        1.19357600000000
H           15.08921100000000        5.19072200000000        1.30412800000000
H           11.10781500000000        4.51523100000000        0.01269100000000
H            9.42297900000000        2.57387000000000        0.19191600000000
Ni          24.21668600000000       -0.00821900000000        0.00335300000000
C           27.58271999999999        0.09171700000000       -0.06039200000000
C           26.91978200000000        1.21683600000000       -0.34212000000000
C           27.57141700000000        2.48058200000000       -0.66465700000000
C           26.63155900000000        3.39228500000000       -0.82993400000000
C           25.32539700000000        2.75262800000000       -0.62098500000000
N           25.50155600000000        1.36878500000000       -0.31538800000000
C           24.13650200000000        3.38850700000000       -0.65373000000000
C           24.10072600000000        4.83986000000000       -0.93760800000000
C           23.89545300000000        5.75790200000000        0.10088300000000
C           23.86678400000000        7.12428300000000       -0.18784600000000
N           24.03944600000000        7.55510500000000       -1.46604000000000
C           24.24138600000000        6.68456600000000       -2.49097300000000
C           24.27472500000000        5.30960100000000       -2.24642600000000
C           22.84226000000000        2.70092000000000       -0.40310900000000
C           21.55224400000000        3.39522400000000       -0.31154800000000
C           20.61761500000000        2.48655000000000       -0.12299800000000
N           22.70040300000000        1.41602300000000       -0.28352700000000
C           21.30124100000000        1.19966200000000       -0.10087500000000
C           20.70485400000000        0.00000000000000        0.00000000000000
C           21.46271800000000       -1.27187600000000       -0.00367900000000
C           20.91942400000000       -2.46173100000000       -0.22726800000000
C           21.96209600000000       -3.45246100000000       -0.04965100000000
C           23.07375100000000       -2.80335800000000        0.27467100000000
N           22.84900100000000       -1.39309300000000        0.31694900000000
C           24.35885800000000       -3.46513400000000        0.61884900000000
C           24.33601000000000       -4.89745200000000        1.00474800000000
C           24.99772300000000       -5.85899000000000        0.22716700000000
C           24.95351300000000       -7.20122400000000        0.61120200000000
N           24.26687800000000       -7.57041400000000        1.72542100000000
C           23.60767600000000       -6.66079000000000        2.49054500000000
C           23.62657700000000       -5.30815200000000        2.14271700000000
C           25.52574900000000       -2.79282700000000        0.59988700000000
C           26.83795600000000       -3.32730100000000        0.96072800000000
C           27.70019600000000       -2.34941400000000        0.76162800000000
C           26.94780500000000       -1.18891900000000        0.28841300000000
N           25.67944100000000       -1.43525000000000        0.19030700000000
H           28.66587000000000        0.11843300000000       -0.06871400000000
H           28.63580300000000        2.65940400000000       -0.74527800000000
H           26.82009499999999        4.43190900000000       -1.06473700000000
H           23.75905200000000        5.41814600000000        1.12013300000000
H           23.70797000000000        7.84295600000000        0.60491500000000
H           24.37655900000000        7.06000700000000       -3.49648800000000
H           24.43616000000000        4.61887600000000       -3.06468500000000
H           21.37414900000000        4.45923700000000       -0.38952500000000
H           19.55985800000000        2.68741200000000       -0.02304100000000
H           19.88624500000000       -2.66680800000000       -0.47186800000000
H           21.84411200000000       -4.52406300000000       -0.13976600000000
H           25.53836700000000       -5.57135700000000       -0.66528000000000
H           25.46417200000000       -7.95057600000000        0.02125800000000
H           23.06941900000000       -6.98727500000000        3.37062200000000
H           23.10108300000000       -4.58734500000000        2.75692000000000
H           27.08248000000000       -4.31649900000000        1.32487900000000
H           28.76731600000000       -2.40689100000000        0.93194100000000
C           18.48418800000000        0.00000000000000        0.00000000000000
C           19.70610600000000        0.00000000000000        0.00000000000000
110
 energy: -195.630019956003 gnorm: 0.508781781799 xtb: 6.5.1 (b24c23e)
Ni          13.97617339567891        0.00819925080517       -0.00162794427343
C           10.60820030275342       -0.09329897467329       -0.03135717995769
C           11.27682281850760       -1.26562863211531        0.02641702970885
C           10.61800573783961       -2.56186704210847        0.08474130368951
C           11.56535935419571       -3.48859583431260        0.19252820848218
C           12.86266343810981       -2.80789124292118        0.20474490314894
N           12.67984977436996       -1.40908140117634        0.09782120451350
C           14.06473090662592       -3.43000360946957        0.36034750729868
C           14.09102126183666       -4.90430219410640        0.51038281495581
C           14.29507236457463       -5.48179359662713        1.76820789905621
C           14.32189445588167       -6.86975928618453        1.88161830138984
N           14.15083685993194       -7.65390210415685        0.79370523102383
C           13.95037581456059       -7.11645186623554       -0.43046591902121
C           13.91561566031858       -5.73448037261461       -0.60278627581031
C           15.33916041366930       -2.71918609539463        0.40189150749192
C           16.62665319260095       -3.34772904973436        0.68871547106139
C           17.56798793524284       -2.40585719907156        0.60374397763634
N           15.48256993240445       -1.43698645606878        0.14355929024334
C           16.84037227598235       -1.19970278492010        0.25712446584950
C           17.32842702812123        0.01130899462849       -0.00196488560511
C           16.68716887249564        1.22121110385057       -0.37113761774119
C           17.26782960247331        2.30313280832923       -0.93776959509989
C           16.24205413138957        3.29125869013652       -1.05366814800542
C           15.10464908640412        2.75747420031045       -0.54557984335118
N           15.33266651254696        1.43011025216533       -0.10698856751579
C           13.84005414047564        3.49101464420574       -0.41548375038016
C           13.85712472200363        4.97666208097020       -0.46374342895150
C           13.19362197523643        5.67289886038161       -1.48324586839941
C           13.24229750861532        7.06519857104637       -1.50057222407937
N           13.92330901888343        7.74394282061397       -0.55019171006113
C           14.57674093072214        7.09421218508238        0.43851447743735
C           14.56268497422656        5.70280777378448        0.50446580977137
C           12.66346517128986        2.84460070748611       -0.23740945566243
C           11.35838430775301        3.46319723734713       -0.04893964575646
C           10.48476107598817        2.46115693806176        0.04558723521704
C           11.23041881930136        1.21400480462981       -0.06914591283516
N           12.51651412505598        1.43187990501068       -0.23176953679007
H            9.52469993682392       -0.13120901675867       -0.03112434526331
H            9.55462221227795       -2.75774515705021        0.05972471873878
H           11.37445447476583       -4.55019092569319        0.26982727100487
H           14.43109789221326       -4.85867200942109        2.64613970740396
H           14.48169144429333       -7.32972079199668        2.85516671974059
H           13.81446998589815       -7.77212246587633       -1.28879675865985
H           13.75441344272193       -5.31035559973634       -1.58852829447821
H           16.81294106179758       -4.38191827491863        0.92378511944178
H           18.62694925301519       -2.57211794020599        0.75985168581015
H           18.30138381344141        2.41422730987693       -1.22903178090008
H           16.34830589329877        4.28816167224740       -1.44975416207452
H           12.65241019871200        5.13725411466981       -2.25572569562516
H           12.72845952555692        7.61423322927373       -2.28786987690645
H           15.11855223783648        7.66618156436363        1.19015348248772
H           15.08875211227862        5.19070181135450        1.30338216412007
H           11.11180986552696        4.51478030416125        0.01212228875910
H            9.42185598830367        2.57079360907632        0.19194254688366
Ni          24.21412154665366       -0.00831839993537        0.00082571727917
C           27.58209394825133        0.08015224837127       -0.05712793607197
C           26.91347210185462        1.21863844590628       -0.34268751138925
C           27.57228841485769        2.47584054516062       -0.66374477101224
C           26.62493474046204        3.39387579571075       -0.83004619025537
C           25.32763132492327        2.74612640603334       -0.62045277387890
N           25.51044437568344        1.37665375760951       -0.31607417010571
C           24.12556411842820        3.38660526339305       -0.65244095585512
C           24.09927279219133        4.84083995686855       -0.93751722196413
C           23.89522168497103        5.75907973336392        0.09807730340488
C           23.86840049072275        7.12006261419397       -0.19694158811444
N           24.03945810765271        7.55403851343493       -1.46583889680769
C           24.23991824009731        6.68389482534181       -2.48087452385611
C           24.27467830977134        5.31152006157749       -2.24396371157769
C           22.85113367568614        2.71857072474493       -0.40603237878698
C           21.56364185097533        3.40335242807014       -0.31433723944618
C           20.62230625344998        2.47746288512984       -0.12180256986538
N           22.70772414148586        1.41665154459845       -0.28042448582806
C           21.34992251181280        1.22263499076516       -0.10277771354026
C           20.86186692246214       -0.01139171266673        0.00140798021709
C           21.50312520180525       -1.27636164899122       -0.00005611804781
C           20.92246453511314       -2.47628779139177       -0.22766028999183
C           21.94823998172336       -3.45542691149178       -0.05126867131832
C           23.08564492129402       -2.79697994019067        0.27968217794525
N           22.85762833128117       -1.39944041119637        0.31341633553901
C           24.35024071777557       -3.46101066183074        0.61742485019677
C           24.33316934163950       -4.89651459156665        1.00317935243141
C           24.99667303730302       -5.85908208840089        0.23013711852125
C           24.94799747032026       -7.19627588382964        0.61834983454510
N           24.26698506708239       -7.56939158542672        1.72501224808758
C           23.61355297973329       -6.66027577158677        2.48210881858215
C           23.62760897780548       -5.30980071138796        2.14068128321227
C           25.52682970279478       -2.79074745040901        0.59987128581323
C           26.83191057206916       -3.32782770662671        0.96004805456600
C           27.70553321798652       -2.34158959968456        0.75916298343294
C           26.95987606402494       -1.18166772659265        0.28679499533329
N           25.67378005138115       -1.43741083898191        0.19453953026109
H           28.66559492651043        0.11649198611018       -0.06792701813447
H           28.63567261607256        2.65598412704289       -0.74462896826946
H           26.81583954052230        4.43208697545812       -1.06472912270989
H           23.75919709247301        5.41811993456203        1.11924907487275
H           23.70860357785777        7.84320050309545        0.60082596098078
H           24.37582500137984        7.06169589929102       -3.49275458286717
H           24.43588056895112        4.61912586310879       -3.06381651255575
H           21.37735298457022        4.46121114286434       -0.39009754470846
H           19.56334556420806        2.68192728314565       -0.02077687028614
H           19.88891020477278       -2.66726379797424       -0.47404114502936
H           21.84198908370974       -4.52442347485267       -0.14041017386707
H           25.53788475531026       -5.57116174041311       -0.66470555874474
H           25.46183448112522       -7.95049035042190        0.02468429067263
H           23.07174179467435       -6.98901014177795        3.36757212309158
H           23.10154191775182       -4.58754257366038        2.75620044440001
H           27.07848512782915       -4.31623318777063        1.32420386259591
H           28.76843886475682       -2.40393975985821        0.93107195373981
C           18.55845392562955        0.00584462518464       -0.00092167440199
C           19.63184001153981       -0.00586014154123        0.00081739040415
110
 energy: -195.756427100938 gnorm: 0.312018601353 xtb: 6.5.1 (b24c23e)
Ni          13.97176112149382        0.00417911672760       -0.00846080832462
C           10.60957782075782       -0.07770501395238       -0.03157295852349
C           11.28232873463846       -1.26389355666358        0.02590740344584
C           10.62061973591310       -2.55357128193139        0.08374143187717
C           11.57559484020415       -3.48723132695797        0.19222019497849
C           12.86116252356794       -2.80186706894095        0.20260416783723
N           12.66571011532184       -1.42012123603710        0.10305185483904
C           14.07069091183704       -3.43259091799561        0.36138210564218
C           14.09279860054571       -4.90564945196314        0.51100952012455
C           14.29611645795468       -5.48450990122724        1.76327208891603
C           14.31938679864474       -6.86873373211133        1.86611855971132
N           14.15090756716057       -7.65524492883749        0.79383098983857
C           13.95234527609703       -7.11159545728913       -0.41524790272689
C           13.91543112200823       -5.73536142965143       -0.59670020718431
C           15.31495210813800       -2.75190445159375        0.40690281217121
C           16.60390980832647       -3.36252932404706        0.68689416786898
C           17.53879443587379       -2.39722664836813        0.60355254960356
N           15.44233034316350       -1.45324349659668        0.15650357586488
C           16.77106570586874       -1.21474904267461        0.26548250974867
C           17.21074889622098        0.02531937958146       -0.00614249742995
C           16.62470305263461        1.22865912705884       -0.37115163899591
C           17.25058492229361        2.32320082624154       -0.94039793600651
C           16.25561544421477        3.29826363418576       -1.05141621246244
C           15.08822396443722        2.76070750775569       -0.53848932711838
N           15.29538604421484        1.44314807490896       -0.12569281180774
C           13.85089478215147        3.48396654399794       -0.41467116778287
C           13.86577287070608        4.97030773072226       -0.46828344238019
C           13.19660097621014        5.67141563236184       -1.47699107729150
C           13.25080101189008        7.06012476588667       -1.48673395592440
N           13.92337002019456        7.74404094120173       -0.55047247064901
C           14.56694392820463        7.08911264384327        0.42587858035173
C           14.56175561147521        5.70171909896564        0.49819692875146
C           12.66389378819041        2.83769597727861       -0.23378302554498
C           11.36580113846761        3.45556826278421       -0.05019041956283
C           10.47819303861944        2.44845212451461        0.04365463355419
C           11.21556108050102        1.20484150906241       -0.06812029977881
N           12.52064930321323        1.43418340759809       -0.21993527872241
H            9.52598465895313       -0.12344796403948       -0.03012414969406
H            9.55662916454663       -2.74550443648466        0.05832461284132
H           11.38944220465514       -4.54938337078651        0.26976581017949
H           14.43058521050291       -4.86098185117460        2.64247438006871
H           14.47908061970066       -7.33355980380102        2.84035313981533
H           13.81709984878367       -7.77224176714409       -1.27339604399123
H           13.75542119153435       -5.31137759447044       -1.58403037346058
H           16.80212478339047       -4.39175009419204        0.92390047599357
H           18.60338779424416       -2.55007418193498        0.76179744936503
H           18.28633654889950        2.41206800286850       -1.23615329049273
H           16.35602701566162        4.29119950063053       -1.45252402526348
H           12.65486208856515        5.13799656587877       -2.25242083280783
H           12.73753241181937        7.61502131529405       -2.27473037183058
H           15.10936710573360        7.66681315505291        1.17704502098430
H           15.08714857313203        5.19155864428695        1.29998461295657
H           11.12573405030111        4.50964963606507        0.00996218453443
H            9.41719087826771        2.56051726951173        0.19151278011116
Ni          24.21853381503909       -0.00645843045528       -0.00688062511449
C           27.58071661995634        0.06516909423175       -0.05280073339236
C           26.90796607776119        1.21683002192396       -0.34267060916576
C           27.56967458290874        2.46761250816792       -0.66228961240265
C           26.61469939221837        3.39248047693125       -0.82994425611016
C           25.32913202748197        2.73974016175765       -0.62074950506360
N           25.52458420224847        1.38873749333745       -0.31427920987603
C           24.11960382749600        3.38938156971006       -0.65220337161099
C           24.09749552582533        4.84231119452008       -0.93730930692606
C           23.89417774898588        5.76024366529658        0.09256498273121
C           23.87090801043734        7.11457505122543       -0.21147363866549
N           24.03938732284141        7.55535997139599       -1.46610881358013
C           24.23794894038443        6.68367258759664       -2.46490184964547
C           24.27486284295031        5.31413241398953       -2.23839651017851
C           22.87534223560851        2.75133279175184       -0.41074980812344
C           21.58638506735775        3.41698404058054       -0.32038290689546
C           20.65149992440683        2.46914922907181       -0.11947661927338
N           22.74796392907687        1.43596961807246       -0.27276583970208
C           21.41922891839434        1.23946132290018       -0.09915519730385
C           20.97954517686770       -0.02601147896122        0.00148419823276
C           21.56559112980970       -1.28349223517378        0.00209573043878
C           20.93970937075293       -2.49625337183570       -0.22434034403728
C           21.93467878716349       -3.46147430395398       -0.04707747386499
C           23.10207016895600       -2.79801229864973        0.28740640104735
N           22.89490856932363       -1.41735282192442        0.29931065947448
C           24.33939988126431       -3.45403087504292        0.61615305802950
C           24.32452132539144       -4.89175455964842        0.99698813699438
C           24.99369394509456       -5.85584421243166        0.23569034143028
C           24.93949381767077       -7.18739819239210        0.63011504259772
N           24.26692417036816       -7.56956728374465        1.72477196558830
C           23.62335000250101       -6.65907019966837        2.46853649543077
C           23.62853831983058       -5.31058150849913        2.13436673959258
C           25.52640087821155       -2.78308661332256        0.60133365617552
C           26.82449362236691       -3.32089194671089        0.95663317760791
C           27.71210147060512       -2.32999545741308        0.75362020847915
C           26.97473365376151       -1.17260178439874        0.28511212702519
N           25.66964509760621       -1.43617438484798        0.20653240045300
H           28.66431003541788        0.10935702218791       -0.06471361606275
H           28.63366544710691        2.64386514922122       -0.74240981560146
H           26.80085186457753        4.43129650899609       -1.06455315420778
H           23.75970971142599        5.41926443883984        1.11507044958118
H           23.71121445347945        7.84256679575648        0.58553610754610
H           24.37319507196788        7.06628758164594       -3.47805392549611
H           24.43487281243828        4.62141134318307       -3.05981013039242
H           21.38816928098286        4.47065197425301       -0.39284562722166
H           19.58690679421439        2.66140145421088       -0.01250615709708
H           19.90395757475538       -2.66726830244065       -0.48148283729392
H           21.83426787136382       -4.52813518640156       -0.14217722641117
H           25.53543282200044       -5.57091132111135       -0.66132743600755
H           25.45276170516993       -7.94742420274263        0.03748540690261
H           23.08092688674786       -6.99342546098732        3.35521342762090
H           23.10314545209788       -4.58935021993976        2.75319864816271
H           27.06456089742522       -4.31195227961680        1.32064547127443
H           28.77310379488764       -2.39423225098349        0.92767300196383
C           18.48291605564892        0.01685905520844       -0.00311488432821
C           19.70737801931960       -0.01703641606529        0.00192119045434
110
 energy: -195.809535976840 gnorm: 0.180991988766 xtb: 6.5.1 (b24c23e)
Ni          13.95939024805143       -0.00055223034330       -0.01444094289697
C           10.60865780718771       -0.06451978607342       -0.02992482067099
C           11.28317813821014       -1.26239425663378        0.02613214593156
C           10.62169061663348       -2.54340247106039        0.08146487399212
C           11.58204524694626       -3.48315791215421        0.18960646212846
C           12.85176454422484       -2.79717543755323        0.20045095086688
N           12.64863262340537       -1.43042781055417        0.10804396996173
C           14.06310227203762       -3.44032061472413        0.36390471967303
C           14.08498627311966       -4.90997685560689        0.51303120685355
C           14.29562058986748       -5.49006303660379        1.75906780838458
C           14.31770557489256       -6.87200171693737        1.85209808870216
N           14.15093488904536       -7.66228782232997        0.79450923444066
C           13.95402990445504       -7.11097244411032       -0.40066128937600
C           13.91251506163957       -5.73904325278875       -0.59021256322209
C           15.28066405485237       -2.78401256736888        0.41647978292217
C           16.56670554878988       -3.37917785957749        0.68451256176809
C           17.48945806941381       -2.38980684910221        0.61060720484919
N           15.40097623438314       -1.46441836717924        0.18135044431802
C           16.72570072956903       -1.21742088646713        0.27647409011101
C           17.18017863563675        0.04064594146066       -0.01425218310865
C           16.57878035183415        1.23674202296009       -0.37337472610583
C           17.22562920794888        2.34675149680171       -0.94283688374067
C           16.26227560103337        3.31466382932682       -1.04200873604477
C           15.06640798246674        2.77153294291733       -0.53683132494646
N           15.25245843717339        1.45464312952976       -0.16817833663029
C           13.85600072976180        3.47659025760991       -0.41277507790934
C           13.87424346791288        4.96065240748030       -0.47438044177452
C           13.20062936290608        5.66718912623787       -1.47164655767111
C           13.25862653565634        7.05356599235406       -1.47327891408326
N           13.92337214607823        7.74463869591854       -0.55080723950413
C           14.55846552672106        7.08263860691230        0.41288430944942
C           14.56365716572762        5.69761795119744        0.48884105135346
C           12.66225404455784        2.82364446448202       -0.22259101463621
C           11.37224149096016        3.43956013745824       -0.05030594139470
C           10.47130264794851        2.43339926205778        0.03941248668924
C           11.20115279556609        1.19534889986751       -0.06305516839093
N           12.52331997861086        1.43282955693854       -0.20022150097616
H            9.52561144499594       -0.11216563116613       -0.02667666216669
H            9.55730795796123       -2.72336660541411        0.05490410870439
H           11.41286659781369       -4.54695684010655        0.26820296732996
H           14.42984011896682       -4.86698271724223        2.63765053655065
H           14.47577785171806       -7.34369742451013        2.82096741717009
H           13.82083649637799       -7.77690315846941       -1.25235266867626
H           13.75564015755100       -5.31520385465969       -1.57719300130656
H           16.77448143851488       -4.40838898573781        0.92027631382089
H           18.55342245119947       -2.51641316816270        0.77215605303550
H           18.25736180995884        2.41084863458947       -1.25250471237676
H           16.36306140594060        4.30378643065151       -1.45193502244633
H           12.65782423632461        5.13809964324992       -2.24801999835251
H           12.74932871003607        7.61605533740299       -2.25610015403212