      -----------------------------------------------------------      
     |                   =====================                   |     
     |                           x T B                           |     
     |                   =====================                   |     
     |                         S. Grimme                         |     
     |          Mulliken Center for Theoretical Chemistry        |     
     |                    University of Bonn                     |     
      -----------------------------------------------------------      

   * xtb version 6.5.1 (b24c23e) compiled by 'conda@728c89f4b128' on 2022-07-12

   xtb is free software: you can redistribute it and/or modify it under
   the terms of the GNU Lesser General Public License as published by
   the Free Software Foundation, either version 3 of the License, or
   (at your option) any later version.
   
   xtb is distributed in the hope that it will be useful,
   but WITHOUT ANY WARRANTY; without even the implied warranty of
   MERCHANTABILITY or FITNESS FOR A PARTICULAR PURPOSE.  See the
   GNU Lesser General Public License for more details.
   
   Cite this work as:
   * C. Bannwarth, E. Caldeweyher, S. Ehlert, A. Hansen, P. Pracht,
     J. Seibert, S. Spicher, S. Grimme, WIREs Comput. Mol. Sci., 2020, 11,
     e01493. DOI: 10.1002/wcms.1493
   
   for GFN2-xTB:
   * C. Bannwarth, S. Ehlert and S. Grimme., J. Chem. Theory Comput., 2019,
     15, 1652-1671. DOI: 10.1021/acs.jctc.8b01176
   for GFN1-xTB:
   * S. Grimme, C. Bannwarth, P. Shushkov, J. Chem. Theory Comput., 2017,
     13, 1989-2009. DOI: 10.1021/acs.jctc.7b00118
   for GFN0-xTB:
   * P. Pracht, E. Caldeweyher, S. Ehlert, S. Grimme, ChemRxiv, 2019, preprint.
     DOI: 10.26434/chemrxiv.8326202.v1
   for GFN-FF:
   * S. Spicher and S. Grimme, Angew. Chem. Int. Ed., 2020, 59, 15665-15673.
     DOI: 10.1002/anie.202004239
   
   for ALPB and GBSA implicit solvation:
   * S. Ehlert, M. Stahn, S. Spicher, S. Grimme, J. Chem. Theory Comput.,
     2021, 17, 4250-4261. DOI: 10.1021/acs.jctc.1c00471
   
   for DFT-D4:
   * E. Caldeweyher, C. Bannwarth and S. Grimme, J. Chem. Phys., 2017,
     147, 034112. DOI: 10.1063/1.4993215
   * E. Caldeweyher, S. Ehlert, A. Hansen, H. Neugebauer, S. Spicher,
     C. Bannwarth and S. Grimme, J. Chem. Phys., 2019, 150, 154122.
     DOI: 10.1063/1.5090222
   * E. Caldeweyher, J.-M. Mewes, S. Ehlert and S. Grimme, Phys. Chem. Chem. Phys.
     2020, 22, 8499-8512. DOI: 10.1039/D0CP00502A
   
   for sTDA-xTB:
   * S. Grimme and C. Bannwarth, J. Chem. Phys., 2016, 145, 054103.
     DOI: 10.1063/1.4959605
   
   in the mass-spec context:
   * V. Asgeirsson, C. Bauer and S. Grimme, Chem. Sci., 2017, 8, 4879.
     DOI: 10.1039/c7sc00601b
   * J. Koopman and S. Grimme, ACS Omega 2019, 4, 12, 15120-15133.
     DOI: 10.1021/acsomega.9b02011
   
   for metadynamics refer to:
   * S. Grimme, J. Chem. Theory Comput., 2019, 155, 2847-2862
     DOI: 10.1021/acs.jctc.9b00143
   
   for SPH calculations refer to:
   * S. Spicher and S. Grimme, J. Chem. Theory Comput., 2021, 17, 1701-1714
     DOI: 10.1021/acs.jctc.0c01306
   
   with help from (in alphabetical order)
   P. Atkinson, C. Bannwarth, F. Bohle, G. Brandenburg, E. Caldeweyher
   M. Checinski, S. Dohm, S. Ehlert, S. Ehrlich, I. Gerasimov, C. Hölzer
   A. Katbashev, J. Koopman, C. Lavigne, S. Lehtola, F. März, M. Müller,
   F. Musil, H. Neugebauer, J. Pisarek, C. Plett, P. Pracht, F. Pultar,
   J. Seibert, P. Shushkov, S. Spicher, M. Stahn, M. Steiner, T. Strunk,
   J. Stückrath, T. Rose, and J. Unsleber
   
 * started run on 2022/07/31 at 09:34:14.369     

           -------------------------------------------------
          |                Calculation Setup                |
           -------------------------------------------------

          program call               : xtb xtbopt.xyz --gfn 1 --vipea
          hostname                   : cx3-15-19.cx3.hpc.ic.ac.uk
          coordinate file            : xtbopt.xyz
          omp threads                :                     1

   ID    Z sym.   atoms
    1    6 C      1-5, 7-11, 13-18, 20-25, 27-31, 33-39, 68-72, 74-78, 80-85,
                  87-92, 94-98, 100-106, 135-163, 165-169, 171-176, 178-183,
                  185-189, 191-197, 225-229, 231-235, 237-242, 244-249,
                  251-255, 257-263
    2    7 N      6, 12, 19, 26, 32, 40, 73, 79, 86, 93, 99, 107, 164, 170,
                  177, 184, 190, 198, 230, 236, 243, 250, 256, 264
    3    1 H      41-67, 108-134, 199-224, 265-290

           -------------------------------------------------
          |                 I P E A - x T B                 |
           -------------------------------------------------

        Reference                      10.1039/c7sc00601b
      * Hamiltonian:
        H0-scaling (s, p, d)           2.150000    2.300000    2.000000
        zeta-weighting                 0.000000
      * Dispersion:
        s8                             2.400000
        a1                             0.630000
        a2                             5.000000
        s9                             0.000000
      * Repulsion:
        kExp                           1.500000
        rExp                           1.000000
      * Coulomb:
        alpha                          1.000000
        third order                    atomic
        anisotropic                    false
      * Halogen bond correction:
        rad-scale                      1.300000
        damping                        0.440000


          ...................................................
          :                      SETUP                      :
          :.................................................:
          :  # basis functions                1132          :
          :  # atomic orbitals                1132          :
          :  # shells                          764          :
          :  # electrons                       866          :
          :  # halogen bonds                     0          :
          :  max. iterations                   250          :
          :  Hamiltonian                  GFN1-xTB          :
          :  restarted?                      false          :
          :  GBSA solvation                  false          :
          :  PC potential                    false          :
          :  electronic temp.          300.0000000     K    :
          :  accuracy                    1.0000000          :
          :  -> integral cutoff          0.2500000E+02      :
          :  -> integral neglect         0.1000000E-07      :
          :  -> SCF convergence          0.1000000E-05 Eh   :
          :  -> wf. convergence          0.2000000E-04 e    :
          :  Broyden damping             0.4000000          :
          ...................................................

 iter      E             dE          RMSdq      gap      omega  full diag
   1   -545.0021077 -0.545002E+03  0.997E+00    0.64       0.0  T
   2   -545.8385215 -0.836414E+00  0.622E+00    1.17       1.0  T
   3   -537.0037372  0.883478E+01  0.458E+00    0.32       1.0  T
   4   -547.0430096 -0.100393E+02  0.105E+00    1.10       1.0  T
   5   -547.7606472 -0.717638E+00  0.302E-01    0.97       1.0  T
   6   -547.8157188 -0.550716E-01  0.110E-01    0.99       1.0  T
   7   -547.8209875 -0.526870E-02  0.554E-02    0.99       1.0  T
   8   -547.8221918 -0.120435E-02  0.312E-02    0.98       1.0  T
   9   -547.8223759 -0.184035E-03  0.238E-02    0.98       1.0  T
  10   -547.8225777 -0.201778E-03  0.936E-03    0.98       1.0  T
  11   -547.8226112 -0.335727E-04  0.393E-03    0.98       1.5  T
  12   -547.8226198 -0.853427E-05  0.974E-04    0.98       6.0  T
  13   -547.8226202 -0.399630E-06  0.535E-04    0.98      11.0  T
  14   -547.8226203 -0.118072E-06  0.249E-04    0.98      23.6  T
  15   -547.8226203 -0.287189E-07  0.105E-04    0.98      55.9  T
  16   -547.8226203 -0.625084E-08  0.339E-05    0.98     173.3  T

   *** convergence criteria satisfied after 16 iterations ***

         #    Occupation            Energy/Eh            Energy/eV
      -------------------------------------------------------------
         1        2.0000           -1.0362968             -28.1991
       ...           ...                  ...                  ...
       427        2.0000           -0.3818444             -10.3905
       428        2.0000           -0.3814526             -10.3799
       429        2.0000           -0.3810936             -10.3701
       430        2.0000           -0.3671329              -9.9902
       431        2.0000           -0.3633949              -9.8885
       432        2.0000           -0.3579089              -9.7392
       433        2.0000           -0.3531816              -9.6106 (HOMO)
       434                         -0.3170683              -8.6279 (LUMO)
       435                         -0.3099845              -8.4351
       436                         -0.3020720              -8.2198
       437                         -0.2989083              -8.1337
       438                         -0.2966181              -8.0714
       ...                                ...                  ...
      1132                        532.8235780           14498.8675
      -------------------------------------------------------------
                  HL-Gap            0.0361133 Eh            0.9827 eV
             Fermi-level           -0.3351219 Eh           -9.1191 eV

 SCC (total)                   0 d,  0 h,  0 min,  8.936 sec
 SCC setup                      ...        0 min,  0.009 sec (  0.097%)
 Dispersion                     ...        0 min,  0.012 sec (  0.134%)
 classical contributions        ...        0 min,  0.003 sec (  0.037%)
 integral evaluation            ...        0 min,  0.723 sec (  8.090%)
 iterations                     ...        0 min,  6.729 sec ( 75.303%)
 molecular gradient             ...        0 min,  1.358 sec ( 15.193%)
 printout                       ...        0 min,  0.102 sec (  1.145%)

         :::::::::::::::::::::::::::::::::::::::::::::::::::::
         ::                     SUMMARY                     ::
         :::::::::::::::::::::::::::::::::::::::::::::::::::::
         :: total energy            -536.408904384749 Eh    ::
         :: gradient norm              0.086493566940 Eh/a0 ::
         :: HOMO-LUMO gap              0.982692039561 eV    ::
         ::.................................................::
         :: SCC energy              -547.822620314133 Eh    ::
         :: -> electrostatic           0.362931079882 Eh    ::
         :: repulsion energy          11.647634081823 Eh    ::
         :: dispersion energy         -0.233918152439 Eh    ::
         :: halogen bond corr.         0.000000000000 Eh    ::
         :: add. restraining           0.000000000000 Eh    ::
         :: total charge               0.000000000071 e     ::
         :::::::::::::::::::::::::::::::::::::::::::::::::::::

           ------------------------------------------------- 
          |        vertical delta SCC IP calculation        |
           ------------------------------------------------- 
   1   -547.4440255 -0.547444E+03  0.709E-02    0.98       0.0  T
   2   -547.4415162  0.250932E-02  0.770E-02    0.91       1.0  T
   3   -547.4470767 -0.556052E-02  0.443E-02    0.96       1.0  T
   4   -547.4461758  0.900939E-03  0.446E-02    0.95       1.0  T
   5   -547.4488479 -0.267208E-02  0.243E-02    0.95       1.0  T
   6   -547.4494714 -0.623543E-03  0.129E-02    0.96       1.0  T
   7   -547.4495784 -0.106971E-03  0.956E-03    0.95       1.0  T
   8   -547.4496567 -0.782582E-04  0.313E-03    0.95       1.9  T
   9   -547.4496625 -0.583449E-05  0.103E-03    0.96       5.7  T
  10   -547.4496629 -0.454168E-06  0.620E-04    0.96       9.5  T
  11   -547.4496632 -0.289242E-06  0.250E-04    0.96      23.5  T
  12   -547.4496633 -0.346863E-07  0.941E-05    0.96      62.4  T
  13   -547.4496633 -0.387433E-08  0.536E-05    0.96     109.5  T
     SCC iter.                  ...        0 min,  5.408 sec
     gradient                   ...        0 min,  1.360 sec
------------------------------------------------------------------------
empirical IP shift (eV):    4.8455
delta SCC IP (eV):    5.3032
------------------------------------------------------------------------
           ------------------------------------------------- 
          |        vertical delta SCC EA calculation        |
           ------------------------------------------------- 
   1   -548.0985874 -0.548099E+03  0.129E-01    0.22       0.0  T
   2   -548.1033316 -0.474423E-02  0.117E-01    0.07       1.0  T
   3   -548.1142693 -0.109377E-01  0.687E-02    0.16       1.0  T
   4   -548.1167462 -0.247686E-02  0.490E-02    0.12       1.0  T
   5   -548.1166134  0.132770E-03  0.330E-02    0.12       1.0  T
   6   -548.1139645  0.264895E-02  0.419E-02    0.13       1.0  T
   7   -548.1170925 -0.312798E-02  0.213E-02    0.12       1.0  T
   8   -548.1177193 -0.626886E-03  0.504E-03    0.12       1.2  T
   9   -548.1177520 -0.326911E-04  0.223E-03    0.12       2.6  T
  10   -548.1177548 -0.279248E-05  0.906E-04    0.12       6.5  T
  11   -548.1177552 -0.372013E-06  0.499E-04    0.12      11.8  T
  12   -548.1177554 -0.162396E-06  0.252E-04    0.12      23.3  T
  13   -548.1177554 -0.358367E-07  0.992E-05    0.12      59.2  T
  14   -548.1177554 -0.434829E-08  0.453E-05    0.12     129.6  T
     SCC iter.                  ...        0 min,  5.822 sec
     gradient                   ...        0 min,  1.355 sec
------------------------------------------------------------------------
empirical EA shift (eV):    4.8455
delta SCC EA (eV):    3.1855
------------------------------------------------------------------------
           -------------------------------------------------
          |                Property Printout                |
           -------------------------------------------------

    * Orbital Energies and Occupations

         #    Occupation            Energy/Eh            Energy/eV
      -------------------------------------------------------------
         1        2.0000           -0.9987007             -27.1760
       ...           ...                  ...                  ...
       422        2.0000           -0.3476708              -9.4606
       423        2.0000           -0.3469787              -9.4418
       424        2.0000           -0.3466020              -9.4315
       425        2.0000           -0.3459482              -9.4137
       426        2.0000           -0.3457773              -9.4091
       427        2.0000           -0.3445513              -9.3757
       428        2.0000           -0.3393346              -9.2338
       429        2.0000           -0.3390765              -9.2267
       430        2.0000           -0.3282579              -8.9324
       431        2.0000           -0.3260082              -8.8711
       432        2.0000           -0.3177264              -8.6458
       433        2.0000           -0.3104582              -8.4480
       434        0.9074           -0.2739170              -7.4537 (HOMO)
       435        0.0925           -0.2695790              -7.3356 (LUMO)
       436        0.0001           -0.2630431              -7.1578
       437        0.0000           -0.2605458              -7.0898
       438        0.0000           -0.2600392              -7.0760
       439        0.0000           -0.2567588              -6.9868
       440                         -0.2534296              -6.8962
       441                         -0.2530865              -6.8868
       442                         -0.2298997              -6.2559
       443                         -0.2231210              -6.0714
       444                         -0.2183790              -5.9424
       445                         -0.2179390              -5.9304
       ...                                ...                  ...
      1132                        532.8633172           14499.9489
      -------------------------------------------------------------
                  HL-Gap            0.0043381 Eh            0.1180 eV
             Fermi-level           -0.2819705 Eh           -7.6728 eV

  Mulliken/CM5 charges         n(s)   n(p)   n(d)
     1C    -0.02702 -0.06787   1.085  2.942  0.000
     2C     0.05999  0.12035   1.104  2.836  0.000
     3C    -0.03868 -0.08398   1.079  2.960  0.000
     4C    -0.03463 -0.07962   1.075  2.960  0.000
     5C     0.06048  0.12435   1.099  2.840  0.000
     6N    -0.16135 -0.51416   1.312  3.849  0.000
     7C     0.00830  0.01401   1.092  2.900  0.000
     8C    -0.00572 -0.01429   1.073  2.933  0.000
     9C    -0.02447 -0.07767   1.080  2.944  0.000
    10C    -0.03583 -0.08481   1.058  2.977  0.000
    11C     0.06167  0.11459   1.092  2.846  0.000
    12N    -0.24978 -0.60957   1.310  3.940  0.000
    13C     0.00185 -0.08999   1.092  2.906  0.000
    14C    -0.04036 -0.08870   1.071  2.969  0.000
    15C    -0.02659 -0.07969   1.077  2.949  0.000
    16C     0.05694  0.12487   1.116  2.827  0.000
    17C    -0.03880 -0.08483   1.084  2.954  0.000
    18C    -0.04047 -0.08591   1.089  2.951  0.000
    19N    -0.28747 -0.47415   1.293  3.994  0.000
    20C     0.06285  0.13369   1.129  2.808  0.000
    21C     0.01372  0.02089   1.082  2.904  0.000
    22C     0.06485  0.12979   1.108  2.827  0.000
    23C    -0.03626 -0.08068   1.078  2.958  0.000
    24C    -0.03455 -0.07953   1.073  2.961  0.000
    25C     0.05981  0.12304   1.098  2.843  0.000
    26N    -0.15831 -0.51041   1.315  3.843  0.000
    27C     0.00727  0.01304   1.091  2.901  0.000
    28C    -0.00576 -0.01431   1.073  2.933  0.000
    29C    -0.02506 -0.07834   1.079  2.946  0.000
    30C    -0.03640 -0.08537   1.058  2.978  0.000
    31C     0.06152  0.11446   1.092  2.846  0.000
    32N    -0.25015 -0.60995   1.310  3.940  0.000
    33C     0.00185 -0.08999   1.092  2.906  0.000
    34C    -0.03999 -0.08833   1.071  2.969  0.000
    35C    -0.02615 -0.07919   1.078  2.948  0.000
    36C     0.05840  0.12775   1.120  2.822  0.000
    37C    -0.03909 -0.08513   1.086  2.953  0.000
    38C    -0.04276 -0.08914   1.090  2.952  0.000
    39C     0.05687  0.12251   1.124  2.819  0.000
    40N    -0.29091 -0.47771   1.293  3.998  0.000
    41H     0.02296  0.08199   0.977  0.000  0.000
    42H     0.03387  0.09053   0.966  0.000  0.000
    43H     0.02477  0.08353   0.975  0.000  0.000
    44H     0.16176  0.37003   0.838  0.000  0.000
    45H     0.01943  0.07745   0.981  0.000  0.000
    46H     0.02639  0.08621   0.974  0.000  0.000
    47H     0.16672  0.35991   0.833  0.000  0.000
    48H     0.02948  0.08964   0.971  0.000  0.000
    49H     0.03439  0.09569   0.966  0.000  0.000
    50H     0.02769  0.08914   0.972  0.000  0.000
    51H     0.02385  0.08316   0.976  0.000  0.000
    52H     0.01911  0.07703   0.981  0.000  0.000
    53H     0.01579  0.07460   0.984  0.000  0.000
    54H     0.02118  0.07926   0.979  0.000  0.000
    55H     0.03080  0.08892   0.969  0.000  0.000
    56H     0.02538  0.08421   0.975  0.000  0.000
    57H     0.16041  0.36868   0.840  0.000  0.000
    58H     0.01848  0.07646   0.982  0.000  0.000
    59H     0.02543  0.08522   0.975  0.000  0.000
    60H     0.16727  0.36046   0.833  0.000  0.000
    61H     0.02621  0.08764   0.974  0.000  0.000
    62H     0.03069  0.09086   0.969  0.000  0.000
    63H     0.03441  0.09571   0.966  0.000  0.000
    64H     0.02450  0.08381   0.976  0.000  0.000
    65H     0.01994  0.07793   0.980  0.000  0.000
    66H     0.01496  0.07368   0.985  0.000  0.000
    67H     0.02412  0.08053   0.976  0.000  0.000
    68C    -0.02692 -0.06777   1.085  2.942  0.000
    69C     0.06002  0.12038   1.104  2.836  0.000
    70C    -0.03861 -0.08392   1.079  2.959  0.000
    71C    -0.03459 -0.07957   1.075  2.960  0.000
    72C     0.06057  0.12444   1.100  2.840  0.000
    73N    -0.16130 -0.51412   1.312  3.849  0.000
    74C     0.00835  0.01406   1.092  2.900  0.000
    75C    -0.00566 -0.01424   1.073  2.933  0.000
    76C    -0.02448 -0.07766   1.080  2.944  0.000
    77C    -0.03576 -0.08473   1.059  2.977  0.000
    78C     0.06164  0.11452   1.092  2.846  0.000
    79N    -0.24986 -0.60955   1.310  3.939  0.000
    80C     0.00183 -0.09003   1.092  2.906  0.000
    81C    -0.04026 -0.08862   1.071  2.969  0.000
    82C    -0.02658 -0.07969   1.077  2.949  0.000
    83C     0.05700  0.12493   1.116  2.827  0.000
    84C    -0.03873 -0.08475   1.084  2.954  0.000
    85C    -0.04036 -0.08579   1.089  2.951  0.000
    86N    -0.28742 -0.47410   1.293  3.994  0.000
    87C     0.06291  0.13376   1.129  2.808  0.000
    88C     0.01385  0.02102   1.082  2.904  0.000
    89C     0.06490  0.12984   1.109  2.827  0.000
    90C    -0.03615 -0.08056   1.078  2.958  0.000
    91C    -0.03446 -0.07943   1.074  2.961  0.000
    92C     0.05987  0.12309   1.098  2.842  0.000
    93N    -0.15827 -0.51037   1.315  3.843  0.000
    94C     0.00734  0.01311   1.091  2.901  0.000
    95C    -0.00577 -0.01433   1.073  2.933  0.000
    96C    -0.02506 -0.07834   1.079  2.946  0.000
    97C    -0.03639 -0.08536   1.058  2.978  0.000
    98C     0.06155  0.11449   1.092  2.846  0.000
    99N    -0.25012 -0.60994   1.310  3.940  0.000
   100C     0.00186 -0.08997   1.092  2.906  0.000
   101C    -0.03999 -0.08833   1.071  2.969  0.000
   102C    -0.02615 -0.07918   1.078  2.948  0.000
   103C     0.05846  0.12781   1.120  2.822  0.000
   104C    -0.03906 -0.08510   1.086  2.953  0.000
   105C    -0.04273 -0.08911   1.090  2.952  0.000
   106C     0.05689  0.12253   1.124  2.819  0.000
   107N    -0.29084 -0.47763   1.293  3.998  0.000
   108H     0.02303  0.08206   0.977  0.000  0.000
   109H     0.03391  0.09057   0.966  0.000  0.000
   110H     0.02482  0.08360   0.975  0.000  0.000
   111H     0.16179  0.37006   0.838  0.000  0.000
   112H     0.01950  0.07750   0.980  0.000  0.000
   113H     0.02642  0.08623   0.974  0.000  0.000
   114H     0.16656  0.35974   0.833  0.000  0.000
   115H     0.02946  0.08962   0.971  0.000  0.000
   116H     0.03436  0.09565   0.966  0.000  0.000
   117H     0.02761  0.08906   0.972  0.000  0.000
   118H     0.02390  0.08320   0.976  0.000  0.000
   119H     0.01914  0.07705   0.981  0.000  0.000
   120H     0.01593  0.07470   0.984  0.000  0.000
   121H     0.02135  0.07942   0.979  0.000  0.000
   122H     0.03094  0.08905   0.969  0.000  0.000
   123H     0.02550  0.08430   0.975  0.000  0.000
   124H     0.16043  0.36870   0.840  0.000  0.000
   125H     0.01850  0.07647   0.982  0.000  0.000
   126H     0.02545  0.08524   0.975  0.000  0.000
   127H     0.16731  0.36052   0.833  0.000  0.000
   128H     0.02623  0.08767   0.974  0.000  0.000
   129H     0.03073  0.09089   0.969  0.000  0.000
   130H     0.03442  0.09572   0.966  0.000  0.000
   131H     0.02452  0.08383   0.975  0.000  0.000
   132H     0.01997  0.07795   0.980  0.000  0.000
   133H     0.01499  0.07373   0.985  0.000  0.000
   134H     0.02415  0.08057   0.976  0.000  0.000
   135C    -0.02034 -0.02199   1.091  2.929  0.000
   136C    -0.02376 -0.02453   1.060  2.964  0.000
   137C    -0.02053 -0.02063   1.075  2.945  0.000
   138C    -0.01990 -0.01991   1.077  2.943  0.000
   139C    -0.02246 -0.02247   1.075  2.948  0.000
   140C    -0.01771 -0.01780   1.078  2.940  0.000
   141C    -0.02608 -0.02682   1.058  2.968  0.000
   142C    -0.01745 -0.01905   1.095  2.923  0.000
   143C    -0.01872 -0.02032   1.093  2.926  0.000
   144C    -0.02493 -0.02568   1.059  2.966  0.000
   145C    -0.01903 -0.01913   1.077  2.942  0.000
   146C    -0.02122 -0.02123   1.076  2.945  0.000
   147C    -0.02122 -0.02123   1.076  2.945  0.000
   148C    -0.01913 -0.01922   1.077  2.943  0.000
   149C    -0.02500 -0.02574   1.059  2.966  0.000
   150C    -0.01881 -0.02042   1.093  2.926  0.000
   151C    -0.01720 -0.01881   1.095  2.922  0.000
   152C    -0.02579 -0.02654   1.059  2.967  0.000
   153C    -0.01739 -0.01748   1.078  2.940  0.000
   154C    -0.02220 -0.02220   1.075  2.947  0.000
   155C    -0.01961 -0.01962   1.077  2.943  0.000
   156C    -0.02035 -0.02045   1.075  2.945  0.000
   157C    -0.02354 -0.02431   1.060  2.963  0.000
   158C    -0.02027 -0.02191   1.091  2.929  0.000
   159C     0.01062  0.01783   1.079  2.910  0.000
   160C     0.06439  0.12931   1.109  2.827  0.000
   161C    -0.03841 -0.08284   1.077  2.962  0.000
   162C    -0.03506 -0.08001   1.074  2.961  0.000
   163C     0.05828  0.12159   1.095  2.847  0.000
   164N    -0.15792 -0.51020   1.314  3.844  0.000
   165C     0.01073  0.01634   1.094  2.896  0.000
   166C    -0.00494 -0.01359   1.073  2.932  0.000
   167C    -0.02459 -0.07777   1.079  2.946  0.000
   168C    -0.03957 -0.08793   1.071  2.969  0.000
   169C     0.06156  0.11451   1.092  2.846  0.000
   170N    -0.25015 -0.60996   1.310  3.940  0.000
   171C     0.00194 -0.08990   1.092  2.906  0.000
   172C    -0.03641 -0.08537   1.058  2.978  0.000
   173C    -0.02543 -0.07859   1.078  2.947  0.000
   174C     0.05586  0.12377   1.115  2.829  0.000
   175C    -0.03916 -0.08519   1.085  2.954  0.000
   176C    -0.04155 -0.08700   1.089  2.953  0.000
   177N    -0.28738 -0.47338   1.293  3.994  0.000
   178C     0.06256  0.13340   1.129  2.808  0.000
   179C     0.01194  0.01914   1.081  2.907  0.000
   180C     0.06467  0.12961   1.109  2.827  0.000
   181C    -0.03754 -0.08197   1.077  2.961  0.000
   182C    -0.03458 -0.07954   1.074  2.960  0.000
   183C     0.05858  0.12186   1.095  2.846  0.000
   184N    -0.15771 -0.50997   1.314  3.844  0.000
   185C     0.01072  0.01633   1.093  2.896  0.000
   186C    -0.00494 -0.01360   1.073  2.932  0.000
   187C    -0.02432 -0.07756   1.080  2.944  0.000
   188C    -0.03593 -0.08490   1.059  2.977  0.000
   189C     0.06156  0.11449   1.092  2.846  0.000
   190N    -0.25035 -0.61009   1.311  3.940  0.000
   191C     0.00201 -0.08987   1.092  2.906  0.000
   192C    -0.03992 -0.08827   1.071  2.969  0.000
   193C    -0.02572 -0.07882   1.077  2.949  0.000
   194C     0.05586  0.12383   1.114  2.830  0.000
   195C    -0.03936 -0.08538   1.085  2.955  0.000
   196C    -0.04204 -0.08748   1.089  2.953  0.000
   197C     0.06237  0.13317   1.129  2.809  0.000
   198N    -0.28770 -0.47378   1.293  3.995  0.000
   199H     0.02849  0.08657   0.972  0.000  0.000
   200H     0.02365  0.08255   0.976  0.000  0.000
   201H     0.16061  0.36848   0.839  0.000  0.000
   202H     0.01983  0.07777   0.980  0.000  0.000
   203H     0.02438  0.08368   0.976  0.000  0.000
   204H     0.16667  0.35987   0.833  0.000  0.000
   205H     0.03031  0.09049   0.970  0.000  0.000
   206H     0.03383  0.09513   0.966  0.000  0.000
   207H     0.02621  0.08764   0.974  0.000  0.000
   208H     0.02505  0.08485   0.975  0.000  0.000
   209H     0.01918  0.07713   0.981  0.000  0.000
   210H     0.01462  0.07347   0.985  0.000  0.000
   211H     0.01964  0.07767   0.980  0.000  0.000
   212H     0.02956  0.08765   0.970  0.000  0.000
   213H     0.02414  0.08303   0.976  0.000  0.000
   214H     0.16053  0.36840   0.839  0.000  0.000
   215H     0.01891  0.07687   0.981  0.000  0.000
   216H     0.02529  0.08511   0.975  0.000  0.000
   217H     0.16644  0.35963   0.834  0.000  0.000
   218H     0.02613  0.08756   0.974  0.000  0.000
   219H     0.03373  0.09503   0.966  0.000  0.000
   220H     0.03084  0.09104   0.969  0.000  0.000
   221H     0.02415  0.08345   0.976  0.000  0.000
   222H     0.02008  0.07799   0.980  0.000  0.000
   223H     0.01461  0.07347   0.985  0.000  0.000
   224H     0.01904  0.07709   0.981  0.000  0.000
   225C     0.01192  0.01912   1.081  2.907  0.000
   226C     0.06456  0.12949   1.109  2.827  0.000
   227C    -0.03769 -0.08212   1.077  2.961  0.000
   228C    -0.03477 -0.07974   1.074  2.961  0.000
   229C     0.05858  0.12186   1.095  2.846  0.000
   230N    -0.15765 -0.50992   1.314  3.843  0.000
   231C     0.01072  0.01633   1.093  2.896  0.000
   232C    -0.00501 -0.01366   1.073  2.932  0.000
   233C    -0.02463 -0.07783   1.079  2.946  0.000
   234C    -0.03961 -0.08797   1.071  2.969  0.000
   235C     0.06167  0.11465   1.092  2.846  0.000
   236N    -0.25012 -0.60999   1.310  3.940  0.000
   237C     0.00200 -0.08984   1.092  2.906  0.000
   238C    -0.03630 -0.08526   1.058  2.978  0.000
   239C    -0.02533 -0.07850   1.078  2.947  0.000
   240C     0.05596  0.12390   1.115  2.829  0.000
   241C    -0.03907 -0.08512   1.085  2.954  0.000
   242C    -0.04183 -0.08727   1.088  2.953  0.000
   243N    -0.28767 -0.47365   1.293  3.995  0.000
   244C     0.06250  0.13330   1.129  2.808  0.000
   245C     0.01085  0.01805   1.080  2.910  0.000
   246C     0.06456  0.12947   1.109  2.827  0.000
   247C    -0.03815 -0.08258   1.077  2.962  0.000
   248C    -0.03474 -0.07972   1.074  2.961  0.000
   249C     0.05839  0.12169   1.095  2.846  0.000
   250N    -0.15791 -0.51017   1.314  3.844  0.000
   251C     0.01078  0.01640   1.093  2.896  0.000
   252C    -0.00493 -0.01358   1.073  2.932  0.000
   253C    -0.02421 -0.07745   1.080  2.944  0.000
   254C    -0.03587 -0.08484   1.059  2.977  0.000
   255C     0.06155  0.11447   1.092  2.846  0.000
   256N    -0.25046 -0.61018   1.311  3.940  0.000
   257C     0.00200 -0.08988   1.092  2.906  0.000
   258C    -0.04003 -0.08839   1.071  2.969  0.000
   259C    -0.02578 -0.07890   1.077  2.949  0.000
   260C     0.05586  0.12379   1.114  2.830  0.000
   261C    -0.03935 -0.08537   1.084  2.955  0.000
   262C    -0.04168 -0.08712   1.089  2.953  0.000
   263C     0.06244  0.13326   1.129  2.809  0.000
   264N    -0.28732 -0.47338   1.293  3.994  0.000
   265H     0.02952  0.08761   0.970  0.000  0.000
   266H     0.02418  0.08308   0.976  0.000  0.000
   267H     0.16057  0.36843   0.839  0.000  0.000
   268H     0.01963  0.07759   0.980  0.000  0.000
   269H     0.02426  0.08356   0.976  0.000  0.000
   270H     0.16666  0.35987   0.833  0.000  0.000
   271H     0.03077  0.09095   0.969  0.000  0.000
   272H     0.03389  0.09519   0.966  0.000  0.000
   273H     0.02624  0.08767   0.974  0.000  0.000
   274H     0.02530  0.08510   0.975  0.000  0.000
   275H     0.01935  0.07732   0.981  0.000  0.000
   276H     0.01456  0.07343   0.985  0.000  0.000
   277H     0.01925  0.07730   0.981  0.000  0.000
   278H     0.02871  0.08680   0.971  0.000  0.000
   279H     0.02372  0.08264   0.976  0.000  0.000
   280H     0.16059  0.36844   0.839  0.000  0.000
   281H     0.01910  0.07707   0.981  0.000  0.000
   282H     0.02546  0.08527   0.975  0.000  0.000
   283H     0.16631  0.35950   0.834  0.000  0.000
   284H     0.02616  0.08759   0.974  0.000  0.000
   285H     0.03371  0.09501   0.966  0.000  0.000
   286H     0.03119  0.09138   0.969  0.000  0.000
   287H     0.02393  0.08323   0.976  0.000  0.000
   288H     0.01989  0.07782   0.980  0.000  0.000
   289H     0.01478  0.07363   0.985  0.000  0.000
   290H     0.01956  0.07759   0.980  0.000  0.000

Wiberg/Mayer (AO) data.
largest (>0.10) Wiberg bond orders for each atom

 ---------------------------------------------------------------------------
     #   Z sym  total        # sym  WBO       # sym  WBO       # sym  WBO
 ---------------------------------------------------------------------------
     1   6 C    3.801 --    39 C    1.383     2 C    1.369    41 H    0.997
     2   6 C    3.924 --     1 C    1.369     3 C    1.243     6 N    1.230
     3   6 C    3.831 --     4 C    1.592     2 C    1.243    42 H    0.994
     4   6 C    3.822 --     3 C    1.592     5 C    1.256    43 H    0.999
     5   6 C    3.892 --     7 C    1.339     4 C    1.256     6 N    1.226
     6   7 N    3.243 --     2 C    1.230     5 C    1.226    44 H    0.961
     7   6 C    3.841 --    16 C    1.366     5 C    1.339     8 C    1.056
     8   6 C    3.877 --     9 C    1.413    15 C    1.405     7 C    1.056
     9   6 C    3.870 --    10 C    1.461     8 C    1.413    45 H    0.990
    10   6 C    3.846 --     9 C    1.461    11 C    1.383    46 H    0.991
    11   6 C    3.945 --    10 C    1.383    14 C    1.370    12 N    1.143
    12   7 N    3.029 --    11 C    1.143    47 H    0.972    13 C    0.971
    13   6 C    3.938 --    50 H    1.006    49 H    0.999    48 H    0.996
                            12 N    0.971
    14   6 C    3.876 --    15 C    1.476    11 C    1.370    51 H    0.989
    15   6 C    3.865 --    14 C    1.476     8 C    1.405    52 H    0.990
    16   6 C    3.919 --     7 C    1.366    19 N    1.352    17 C    1.165
    17   6 C    3.837 --    18 C    1.687    16 C    1.165    53 H    0.999
    18   6 C    3.847 --    17 C    1.687    20 C    1.169    54 H    1.000
    19   7 N    2.561 --    20 C    1.416    16 C    1.352
    20   6 C    3.940 --    19 N    1.416    21 C    1.280    18 C    1.169
    21   6 C    3.833 --    20 C    1.280    22 C    1.279   135 C    1.229
    22   6 C    3.900 --    21 C    1.279    23 C    1.272    26 N    1.251
    23   6 C    3.828 --    24 C    1.575    22 C    1.272    55 H    0.999
    24   6 C    3.812 --    23 C    1.575    25 C    1.264    56 H    0.999
    25   6 C    3.888 --    27 C    1.338    24 C    1.264    26 N    1.220
    26   7 N    3.258 --    22 C    1.251    25 C    1.220    57 H    0.960
    27   6 C    3.825 --    36 C    1.358    25 C    1.338    28 C    1.058
    28   6 C    3.877 --    29 C    1.414    35 C    1.402    27 C    1.058
    29   6 C    3.869 --    30 C    1.460    28 C    1.414    58 H    0.990
    30   6 C    3.845 --    29 C    1.460    31 C    1.384    59 H    0.992
    31   6 C    3.945 --    30 C    1.384    34 C    1.369    32 N    1.143
    32   7 N    3.029 --    31 C    1.143    60 H    0.971    33 C    0.971
    33   6 C    3.938 --    61 H    1.006    63 H    0.999    62 H    0.996
                            32 N    0.971
    34   6 C    3.876 --    35 C    1.478    31 C    1.369    64 H    0.989
    35   6 C    3.866 --    34 C    1.478    28 C    1.402    65 H    0.990
    36   6 C    3.941 --    40 N    1.377    27 C    1.358    37 C    1.156
    37   6 C    3.843 --    38 C    1.703    36 C    1.156    66 H    1.000
    38   6 C    3.859 --    37 C    1.703    39 C    1.149    67 H    0.994
    39   6 C    3.968 --     1 C    1.383    40 N    1.376    38 C    1.149
    40   7 N    2.544 --    36 C    1.377    39 C    1.376
    41   1 H    1.035 --     1 C    0.997
    42   1 H    1.018 --     3 C    0.994
    43   1 H    1.035 --     4 C    0.999
    44   1 H    1.085 --     6 N    0.961
    45   1 H    1.056 --     9 C    0.990
    46   1 H    1.033 --    10 C    0.991
    47   1 H    1.031 --    12 N    0.972
    48   1 H    1.017 --    13 C    0.996
    49   1 H    1.028 --    13 C    0.999
    50   1 H    1.045 --    13 C    1.006
    51   1 H    1.030 --    14 C    0.989
    52   1 H    1.050 --    15 C    0.990
    53   1 H    1.040 --    17 C    0.999
    54   1 H    1.035 --    18 C    1.000
    55   1 H    1.031 --    23 C    0.999
    56   1 H    1.034 --    24 C    0.999
    57   1 H    1.088 --    26 N    0.960
    58   1 H    1.055 --    29 C    0.990
    59   1 H    1.033 --    30 C    0.992
    60   1 H    1.031 --    32 N    0.971
    61   1 H    1.046 --    33 C    1.006
    62   1 H    1.016 --    33 C    0.996
    63   1 H    1.028 --    33 C    0.999
    64   1 H    1.030 --    34 C    0.989
    65   1 H    1.050 --    35 C    0.990
    66   1 H    1.041 --    37 C    1.000
    67   1 H    1.021 --    38 C    0.994
    68   6 C    3.801 --   106 C    1.383    69 C    1.369   108 H    0.997
    69   6 C    3.924 --    68 C    1.369    70 C    1.243    73 N    1.230
    70   6 C    3.831 --    71 C    1.592    69 C    1.243   109 H    0.994
    71   6 C    3.822 --    70 C    1.592    72 C    1.256   110 H    0.999
    72   6 C    3.892 --    74 C    1.339    71 C    1.256    73 N    1.226
    73   7 N    3.243 --    69 C    1.230    72 C    1.226   111 H    0.961
    74   6 C    3.841 --    83 C    1.367    72 C    1.339    75 C    1.055
    75   6 C    3.877 --    76 C    1.414    82 C    1.405    74 C    1.055
    76   6 C    3.870 --    77 C    1.461    75 C    1.414   112 H    0.990
    77   6 C    3.846 --    76 C    1.461    78 C    1.384   113 H    0.991
    78   6 C    3.946 --    77 C    1.384    81 C    1.370    79 N    1.143
    79   7 N    3.029 --    78 C    1.143   114 H    0.972    80 C    0.971
    80   6 C    3.938 --   117 H    1.006   116 H    0.999   115 H    0.996
                            79 N    0.971
    81   6 C    3.876 --    82 C    1.476    78 C    1.370   118 H    0.989
    82   6 C    3.865 --    81 C    1.476    75 C    1.405   119 H    0.990
    83   6 C    3.920 --    74 C    1.367    86 N    1.351    84 C    1.165
    84   6 C    3.837 --    85 C    1.687    83 C    1.165   120 H    0.999
    85   6 C    3.848 --    84 C    1.687    87 C    1.169   121 H    1.000
    86   7 N    2.561 --    87 C    1.416    83 C    1.351
    87   6 C    3.940 --    86 N    1.416    88 C    1.281    85 C    1.169
    88   6 C    3.833 --    87 C    1.281    89 C    1.279   158 C    1.229
    89   6 C    3.900 --    88 C    1.279    90 C    1.272    93 N    1.251
    90   6 C    3.828 --    91 C    1.575    89 C    1.272   122 H    0.999
    91   6 C    3.812 --    90 C    1.575    92 C    1.264   123 H    0.999
    92   6 C    3.888 --    94 C    1.338    91 C    1.264    93 N    1.220
    93   7 N    3.258 --    89 C    1.251    92 C    1.220   124 H    0.961
    94   6 C    3.825 --   103 C    1.358    92 C    1.338    95 C    1.057
    95   6 C    3.877 --    96 C    1.414   102 C    1.403    94 C    1.057
    96   6 C    3.869 --    97 C    1.460    95 C    1.414   125 H    0.990
    97   6 C    3.845 --    96 C    1.460    98 C    1.384   126 H    0.992
    98   6 C    3.945 --    97 C    1.384   101 C    1.369    99 N    1.143
    99   7 N    3.029 --    98 C    1.143   127 H    0.971   100 C    0.971
   100   6 C    3.938 --   128 H    1.006   130 H    0.999   129 H    0.996
                            99 N    0.971
   101   6 C    3.876 --   102 C    1.478    98 C    1.369   131 H    0.989
   102   6 C    3.866 --   101 C    1.478    95 C    1.403   132 H    0.989
   103   6 C    3.942 --   107 N    1.378    94 C    1.358   104 C    1.156
   104   6 C    3.843 --   105 C    1.703   103 C    1.156   133 H    1.000
   105   6 C    3.859 --   104 C    1.703   106 C    1.149   134 H    0.994
   106   6 C    3.968 --    68 C    1.383   107 N    1.376   105 C    1.149
   107   7 N    2.545 --   103 C    1.378   106 C    1.376
   108   1 H    1.035 --    68 C    0.997
   109   1 H    1.018 --    70 C    0.994
   110   1 H    1.035 --    71 C    0.999
   111   1 H    1.085 --    73 N    0.961
   112   1 H    1.055 --    76 C    0.990
   113   1 H    1.033 --    77 C    0.991
   114   1 H    1.031 --    79 N    0.972
   115   1 H    1.017 --    80 C    0.996
   116   1 H    1.028 --    80 C    0.999
   117   1 H    1.045 --    80 C    1.006
   118   1 H    1.030 --    81 C    0.989
   119   1 H    1.050 --    82 C    0.990
   120   1 H    1.040 --    84 C    0.999
   121   1 H    1.034 --    85 C    1.000
   122   1 H    1.031 --    90 C    0.999
   123   1 H    1.034 --    91 C    0.999
   124   1 H    1.088 --    93 N    0.961
   125   1 H    1.055 --    96 C    0.990
   126   1 H    1.033 --    97 C    0.992
   127   1 H    1.031 --    99 N    0.971
   128   1 H    1.046 --   100 C    1.006
   129   1 H    1.016 --   100 C    0.996
   130   1 H    1.028 --   100 C    0.999
   131   1 H    1.030 --   101 C    0.989
   132   1 H    1.050 --   102 C    0.989
   133   1 H    1.041 --   104 C    1.000
   134   1 H    1.021 --   105 C    0.994
   135   6 C    3.752 --   136 C    2.451    21 C    1.229   138 C    0.165
   136   6 C    3.804 --   135 C    2.451   137 C    1.371
   137   6 C    3.799 --   138 C    2.332   136 C    1.371   140 C    0.159
   138   6 C    3.835 --   137 C    2.332   139 C    1.400   135 C    0.165
   139   6 C    3.833 --   140 C    2.330   138 C    1.400   142 C    0.164
   140   6 C    3.801 --   139 C    2.330   141 C    1.374   137 C    0.159
   141   6 C    3.801 --   142 C    2.446   140 C    1.374
   142   6 C    3.754 --   141 C    2.446   159 C    1.235   139 C    0.164
   143   6 C    3.753 --   144 C    2.444   179 C    1.236   146 C    0.164
   144   6 C    3.801 --   143 C    2.444   145 C    1.375
   145   6 C    3.800 --   146 C    2.328   144 C    1.375   148 C    0.158
   146   6 C    3.833 --   145 C    2.328   147 C    1.402   143 C    0.164
   147   6 C    3.833 --   148 C    2.328   146 C    1.402   150 C    0.164
   148   6 C    3.800 --   147 C    2.328   149 C    1.375   145 C    0.158
   149   6 C    3.801 --   150 C    2.444   148 C    1.375
   150   6 C    3.753 --   149 C    2.444   225 C    1.236   147 C    0.164
   151   6 C    3.754 --   152 C    2.446   245 C    1.234   154 C    0.164
   152   6 C    3.801 --   151 C    2.446   153 C    1.374
   153   6 C    3.801 --   154 C    2.331   152 C    1.374   156 C    0.159
   154   6 C    3.834 --   153 C    2.331   155 C    1.400   151 C    0.164
   155   6 C    3.836 --   156 C    2.332   154 C    1.400   158 C    0.165
   156   6 C    3.800 --   155 C    2.332   157 C    1.371   153 C    0.159
   157   6 C    3.805 --   158 C    2.451   156 C    1.371
   158   6 C    3.752 --   157 C    2.451    88 C    1.229   155 C    0.165
   159   6 C    3.816 --   197 C    1.276   160 C    1.273   142 C    1.235
   160   6 C    3.903 --   161 C    1.276   159 C    1.273   164 N    1.253
   161   6 C    3.823 --   162 C    1.569   160 C    1.276   199 H    0.999
   162   6 C    3.816 --   161 C    1.569   163 C    1.270   200 H    0.999
   163   6 C    3.882 --   165 C    1.332   162 C    1.270   164 N    1.218
   164   7 N    3.248 --   160 C    1.253   163 C    1.218   201 H    0.962
   165   6 C    3.831 --   174 C    1.374   163 C    1.332   166 C    1.054
   166   6 C    3.878 --   173 C    1.416   167 C    1.404   165 C    1.054
   167   6 C    3.869 --   168 C    1.477   166 C    1.404   202 H    0.990
   168   6 C    3.876 --   167 C    1.477   169 C    1.370   203 H    0.989
   169   6 C    3.945 --   172 C    1.384   168 C    1.370   170 N    1.143
   170   7 N    3.027 --   169 C    1.143   204 H    0.972   171 C    0.971
   171   6 C    3.938 --   207 H    1.006   206 H    0.999   205 H    0.996
                           170 N    0.971
   172   6 C    3.846 --   173 C    1.460   169 C    1.384   208 H    0.991
   173   6 C    3.867 --   172 C    1.460   166 C    1.416   209 H    0.990
   174   6 C    3.921 --   165 C    1.374   177 N    1.347   175 C    1.165
   175   6 C    3.838 --   176 C    1.687   174 C    1.165   210 H    1.000
   176   6 C    3.846 --   175 C    1.687   178 C    1.170   211 H    1.000
   177   7 N    2.545 --   178 C    1.419   174 C    1.347
   178   6 C    3.941 --   177 N    1.419   179 C    1.276   176 C    1.170
   179   6 C    3.817 --   178 C    1.276   180 C    1.273   143 C    1.236
   180   6 C    3.902 --   181 C    1.276   179 C    1.273   184 N    1.253
   181   6 C    3.824 --   182 C    1.570   180 C    1.276   212 H    0.999
   182   6 C    3.817 --   181 C    1.570   183 C    1.270   213 H    0.999
   183   6 C    3.882 --   185 C    1.332   182 C    1.270   184 N    1.219
   184   7 N    3.249 --   180 C    1.253   183 C    1.219   214 H    0.962
   185   6 C    3.831 --   194 C    1.374   183 C    1.332   186 C    1.054
   186   6 C    3.878 --   187 C    1.415   193 C    1.405   185 C    1.054
   187   6 C    3.871 --   188 C    1.461   186 C    1.415   215 H    0.990
   188   6 C    3.847 --   187 C    1.461   189 C    1.384   216 H    0.991
   189   6 C    3.946 --   188 C    1.384   192 C    1.371   190 N    1.143
   190   7 N    3.028 --   189 C    1.143   217 H    0.972   191 C    0.971
   191   6 C    3.938 --   218 H    1.006   219 H    0.999   220 H    0.995
                           190 N    0.971
   192   6 C    3.875 --   193 C    1.476   189 C    1.371   221 H    0.989
   193   6 C    3.865 --   192 C    1.476   186 C    1.405   222 H    0.989
   194   6 C    3.921 --   185 C    1.374   198 N    1.347   195 C    1.165
   195   6 C    3.837 --   196 C    1.687   194 C    1.165   223 H    1.000
   196   6 C    3.846 --   195 C    1.687   197 C    1.170   224 H    1.000
   197   6 C    3.941 --   198 N    1.419   159 C    1.276   196 C    1.170
   198   7 N    2.545 --   197 C    1.419   194 C    1.347
   199   1 H    1.031 --   161 C    0.999
   200   1 H    1.036 --   162 C    0.999
   201   1 H    1.086 --   164 N    0.962
   202   1 H    1.053 --   167 C    0.990
   203   1 H    1.029 --   168 C    0.989
   204   1 H    1.031 --   170 N    0.972
   205   1 H    1.017 --   171 C    0.996
   206   1 H    1.028 --   171 C    0.999
   207   1 H    1.046 --   171 C    1.006
   208   1 H    1.034 --   172 C    0.991
   209   1 H    1.053 --   173 C    0.990
   210   1 H    1.041 --   175 C    1.000
   211   1 H    1.035 --   176 C    1.000
   212   1 H    1.031 --   181 C    0.999
   213   1 H    1.037 --   182 C    0.999
   214   1 H    1.086 --   184 N    0.962
   215   1 H    1.056 --   187 C    0.990
   216   1 H    1.034 --   188 C    0.991
   217   1 H    1.031 --   190 N    0.972
   218   1 H    1.046 --   191 C    1.006
   219   1 H    1.028 --   191 C    0.999
   220   1 H    1.018 --   191 C    0.995
   221   1 H    1.029 --   192 C    0.989
   222   1 H    1.050 --   193 C    0.989
   223   1 H    1.041 --   195 C    1.000
   224   1 H    1.035 --   196 C    1.000
   225   6 C    3.817 --   263 C    1.276   226 C    1.273   150 C    1.236
   226   6 C    3.902 --   227 C    1.276   225 C    1.273   230 N    1.253
   227   6 C    3.824 --   228 C    1.569   226 C    1.276   265 H    0.999
   228   6 C    3.816 --   227 C    1.569   229 C    1.270   266 H    0.999
   229   6 C    3.882 --   231 C    1.331   228 C    1.270   230 N    1.219
   230   7 N    3.249 --   226 C    1.253   229 C    1.219   267 H    0.962
   231   6 C    3.831 --   240 C    1.374   229 C    1.331   232 C    1.055
   232   6 C    3.877 --   239 C    1.415   233 C    1.404   231 C    1.055
   233   6 C    3.869 --   234 C    1.477   232 C    1.404   268 H    0.990
   234   6 C    3.875 --   233 C    1.477   235 C    1.370   269 H    0.989
   235   6 C    3.945 --   238 C    1.384   234 C    1.370   236 N    1.143
   236   7 N    3.028 --   235 C    1.143   270 H    0.972   237 C    0.971
   237   6 C    3.938 --   273 H    1.006   272 H    0.999   271 H    0.995
                           236 N    0.971
   238   6 C    3.846 --   239 C    1.460   235 C    1.384   274 H    0.991
   239   6 C    3.867 --   238 C    1.460   232 C    1.415   275 H    0.990
   240   6 C    3.921 --   231 C    1.374   243 N    1.347   241 C    1.165
   241   6 C    3.838 --   242 C    1.687   240 C    1.165   276 H    1.000
   242   6 C    3.846 --   241 C    1.687   244 C    1.170   277 H    1.000
   243   7 N    2.544 --   244 C    1.419   240 C    1.347
   244   6 C    3.941 --   243 N    1.419   245 C    1.276   242 C    1.170
   245   6 C    3.817 --   244 C    1.276   246 C    1.273   151 C    1.234
   246   6 C    3.902 --   247 C    1.276   245 C    1.273   250 N    1.253
   247   6 C    3.823 --   248 C    1.570   246 C    1.276   278 H    0.999
   248   6 C    3.817 --   247 C    1.570   249 C    1.270   279 H    0.999
   249   6 C    3.882 --   251 C    1.333   248 C    1.270   250 N    1.218
   250   7 N    3.248 --   246 C    1.253   249 C    1.218   280 H    0.962
   251   6 C    3.831 --   260 C    1.373   249 C    1.333   252 C    1.055
   252   6 C    3.878 --   253 C    1.415   259 C    1.405   251 C    1.055
   253   6 C    3.871 --   254 C    1.461   252 C    1.415   281 H    0.990
   254   6 C    3.847 --   253 C    1.461   255 C    1.384   282 H    0.991
   255   6 C    3.946 --   254 C    1.384   258 C    1.371   256 N    1.143
   256   7 N    3.028 --   255 C    1.143   283 H    0.972   257 C    0.971
   257   6 C    3.938 --   284 H    1.006   285 H    0.999   286 H    0.995
                           256 N    0.971
   258   6 C    3.875 --   259 C    1.476   255 C    1.371   287 H    0.989
   259   6 C    3.865 --   258 C    1.476   252 C    1.405   288 H    0.989
   260   6 C    3.920 --   251 C    1.373   264 N    1.348   261 C    1.165
   261   6 C    3.837 --   262 C    1.686   260 C    1.165   289 H    1.000
   262   6 C    3.846 --   261 C    1.686   263 C    1.171   290 H    1.000
   263   6 C    3.941 --   264 N    1.419   225 C    1.276   262 C    1.171
   264   7 N    2.545 --   263 C    1.419   260 C    1.348
   265   1 H    1.031 --   227 C    0.999
   266   1 H    1.036 --   228 C    0.999
   267   1 H    1.086 --   230 N    0.962
   268   1 H    1.053 --   233 C    0.990
   269   1 H    1.029 --   234 C    0.989
   270   1 H    1.031 --   236 N    0.972
   271   1 H    1.017 --   237 C    0.995
   272   1 H    1.028 --   237 C    0.999
   273   1 H    1.046 --   237 C    1.006
   274   1 H    1.033 --   238 C    0.991
   275   1 H    1.053 --   239 C    0.990
   276   1 H    1.042 --   241 C    1.000
   277   1 H    1.035 --   242 C    1.000
   278   1 H    1.031 --   247 C    0.999
   279   1 H    1.038 --   248 C    0.999
   280   1 H    1.086 --   250 N    0.962
   281   1 H    1.056 --   253 C    0.990
   282   1 H    1.034 --   254 C    0.991
   283   1 H    1.032 --   256 N    0.972
   284   1 H    1.046 --   257 C    1.006
   285   1 H    1.028 --   257 C    0.999
   286   1 H    1.017 --   257 C    0.995
   287   1 H    1.029 --   258 C    0.989
   288   1 H    1.050 --   259 C    0.989
   289   1 H    1.041 --   261 C    1.000
   290   1 H    1.035 --   262 C    1.000
 ---------------------------------------------------------------------------

Topologies differ in total number of bonds
Writing topology from bond orders to xtbtopo.mol

 dipole moment from electron density (au)
     X       Y       Z   
-143.9175  -1.2528   0.0610  total (Debye):  365.816


           -------------------------------------------------
          | TOTAL ENERGY             -536.704039474420 Eh   |
          | GRADIENT NORM               0.093854741245 Eh/α |
          | HOMO-LUMO GAP               0.118045078707 eV   |
           -------------------------------------------------
########################################################################
[WARNING] Runtime exception occurred
-1- restart_readRestart: Dimension missmatch in restart file.
########################################################################

------------------------------------------------------------------------
 * finished run on 2022/07/31 at 09:34:39.519     
------------------------------------------------------------------------
 total:
 * wall-time:     0 d,  0 h,  0 min, 25.149 sec
 *  cpu-time:     0 d,  0 h,  0 min, 25.050 sec
 * ratio c/w:     0.996 speedup
 SCF:
 * wall-time:     0 d,  0 h,  0 min, 24.533 sec
 *  cpu-time:     0 d,  0 h,  0 min, 24.439 sec
 * ratio c/w:     0.996 speedup

