290
 energy: -469.758673986969 gnorm: 2.174433166408 xtb: 6.5.1 (b24c23e)
C           43.28765499999999        1.17490200000000       -0.17727700000000
C           44.18725700000000        1.56425500000000       -1.38653500000000
C           44.09822900000000        2.71620000000000       -2.14264700000000
C           45.18542399999999        2.69303700000000       -3.05600400000000
C           45.86400500000000        1.50527600000000       -2.85640300000000
N           45.29390099999999        0.86100400000000       -1.78410200000000
C           47.15610700000000        0.98146800000000       -3.61977000000000
C           47.02805300000000        0.65752100000000       -5.06866600000000
C           47.33089700000000       -0.62974800000000       -5.53534500000000
C           47.09764100000000       -1.00490700000000       -6.86224800000000
C           46.48247100000000       -0.12335800000000       -7.74749900000000
N           46.13600599999999       -0.50999400000000       -9.06596300000000
C           45.26352899999999       -1.67620900000000       -9.09240700000000
C           46.21900200000000        1.18007300000000       -7.31057700000000
C           46.49081500000000        1.56013600000000       -5.98805800000000
C           48.26048599999999        0.70787300000000       -2.86838400000000
C           49.53615700000000        0.34130900000000       -3.44958700000000
C           50.39346099999999        0.10210800000000       -2.46297800000000
N           48.43331700000000        0.69582000000000       -1.50840000000000
C           49.70220400000000        0.28202900000000       -1.19705600000000
C           50.29451099999999        0.03613600000000       -0.00140600000000
C           49.46784999999999        0.11046500000000        1.36639000000000
C           50.00106700000000        0.00690300000000        2.63362700000000
C           48.92512300000000       -0.01543100000000        3.55678100000000
C           47.76123900000000        0.05493100000000        2.82459500000000
N           48.09860400000000        0.19951400000000        1.49567200000000
C           46.28883700000000       -0.05086800000000        3.42883700000000
C           46.15469499999999       -0.51564200000000        4.82932300000000
C           45.91812500000000        0.40108400000000        5.86011600000000
C           45.80424200000000       -0.03365300000000        7.18439000000000
C           45.95463099999999       -1.38864300000000        7.51743200000000
N           45.78347700000000       -1.89076600000000        8.82155000000000
C           45.97003000000000       -0.97818700000000        9.93532300000000
C           46.17453900000000       -2.29442200000000        6.47092300000000
C           46.29010800000000       -1.86439600000000        5.14481000000000
C           45.21081599999999        0.23541000000000        2.65674800000000
C           43.83987300000000        0.09639300000000        3.12050000000000
C           43.02207100000000        0.43546000000000        2.12596800000000
C           43.84192999999999        0.79568400000000        0.98959400000000
N           45.14225600000000        0.66009300000000        1.36177900000000
H           42.21396300000000        1.21402900000000       -0.29243300000000
H           43.36813400000000        3.50385000000000       -2.02138800000000
H           45.44263400000000        3.46652000000000       -3.76843000000000
H           45.72509699999999        0.11745200000000       -1.24964200000000
H           47.72275600000000       -1.36739400000000       -4.83299200000000
H           47.37759400000000       -2.00401200000000       -7.17311400000000
H           45.70983200000000        0.27915800000000       -9.54368800000000
H           44.40073200000000       -1.55168800000000       -8.42691800000000
H           44.88062400000000       -1.81832500000000      -10.10463500000000
H           45.80028600000000       -2.59193400000000       -8.81527100000000
H           45.73660699999999        1.89163100000000       -7.97074700000000
H           46.26517100000000        2.57145500000000       -5.66514300000000
H           49.76086300000000        0.30401800000000       -4.49565000000000
H           51.42159999999999       -0.17984100000000       -2.60223800000000
H           51.04871500000000       -0.07874500000000        2.87808600000000
H           48.99886300000000       -0.12634800000000        4.62696500000000
H           47.43560200000000        0.31968600000000        0.73094900000000
H           45.82128500000000        1.46023200000000        5.61512400000000
H           45.61062999999999        0.71842200000000        7.94826500000000
H           46.29404200000000       -2.76119200000000        8.93030900000000
H           45.16058700000000       -0.24182300000000        9.98245700000000
H           46.94106500000000       -0.46813400000000        9.88349000000000
H           45.94449199999999       -1.54916900000000       10.87215200000000
H           46.25287699999999       -3.35790500000000        6.67224300000000
H           46.46592100000000       -2.57855800000000        4.34325800000000
H           43.53388899999999       -0.24427700000000        4.09246700000000
H           41.94851100000000        0.41515400000000        2.14929500000000
C          107.69175799999998        1.18238200000000        0.11622400000000
C          106.79215700000000        1.63283500000000        1.30407500000000
C          106.88118499999999        2.82180400000000        2.00052100000000
C          105.79398899999998        2.84520200000000        2.91387200000000
C          105.11540900000000        1.64881400000000        2.77504000000000
N          105.68551200000000        0.95075100000000        1.73695300000000
C          103.82330599999999        1.16457500000000        3.56410100000000
C          103.95136100000001        0.91486300000000        5.02761900000000
C          103.64851700000000       -0.34696000000000        5.55927100000000
C          103.88177300000000       -0.65403400000000        6.90356300000000
C          104.49694200000000        0.27146800000000        7.74275500000000
N          104.84340699999998       -0.04749700000000        9.07920300000000
C          105.71588399999999       -1.21085100000000        9.16502500000000
C          104.76041200000000        1.55094800000000        7.23999700000000
C          104.48859899999999        1.86314300000000        5.89983400000000
C          102.71892799999999        0.85305700000000        2.82762800000000
C          101.44325599999999        0.51657800000000        3.42675200000000
C          100.58595300000000        0.22742500000000        2.45360900000000
N          102.54609699999999        0.77173600000000        1.47002400000000
C          101.27721000000000        0.34262100000000        1.18016500000000
C          100.68490199999999        0.03613600000000       -0.00140600000000
C          101.51156300000000        0.04068700000000       -1.37121200000000
C          100.97834700000000       -0.12729900000000       -2.63152800000000
C          102.05429100000001       -0.19663300000000       -3.55234500000000
C          103.21817400000000       -0.08906200000000       -2.82469400000000
N          102.88081000000000        0.12303400000000       -1.50486300000000
C          104.69057599999999       -0.22550600000000       -3.42276200000000
C          104.82471899999999       -0.76102400000000       -4.79775200000000
C          105.06128900000000        0.10199900000000       -5.87390800000000
C          105.17517200000000       -0.39963800000000       -7.17431500000000
C          105.02478200000000       -1.76983500000000       -7.43789600000000
N          105.19593700000000       -2.33774300000000       -8.71474000000000
C          105.00938300000000       -1.48309000000000       -9.87355700000000
C          104.80487399999998       -2.62112500000000       -6.34660100000000
C          104.68930600000000       -2.12409900000000       -5.04411700000000
C          105.76859800000000        0.09973400000000       -2.66625900000000
C          107.13954000000000       -0.06272800000000       -3.12232700000000
C          107.95734299999999        0.32656400000000       -2.14636100000000
C          107.13748299999999        0.74421200000000       -1.02981400000000
N          105.83715799999999        0.58983600000000       -1.39460700000000
H          108.76545099999998        1.22732600000000        0.22923600000000
H          107.61127900000000        3.60225300000000        1.83929400000000
H          105.53677900000000        3.65397400000000        3.58596800000000
H          105.25431600000000        0.18093700000000        1.24106700000000
H          103.25665699999999       -1.11943000000000        4.89540900000000
H          103.60182000000000       -1.63600500000000        7.26492400000000
H          105.26958100000000        0.76496800000000        9.51610500000000
H          106.57868200000000       -1.12039400000000        8.49405600000000
H          106.09878999999998       -1.30121500000000       10.18317900000000
H          105.17912699999998       -2.13950500000000        8.93490000000000
H          105.24280699999998        2.29521400000000        7.86306000000000
H          104.71424300000000        2.85669800000000        5.52581700000000
H          101.21855100000001        0.53262700000000        4.47335600000000
H           99.55781300000000       -0.04706300000000        2.60705200000000
H           99.93069900000000       -0.22529000000000       -2.87130600000000
H          101.98054999999999       -0.36192600000000       -4.61548900000000
H          103.54381099999999        0.28200900000000       -0.74725500000000
H          105.15812800000000        1.17225300000000       -5.68319200000000
H          105.36878299999999        0.31254500000000       -7.97551200000000
H          104.68537100000000       -3.21258000000000       -8.77901400000000
H          105.81882700000000       -0.75008300000000       -9.95814400000000
H          104.03834800000000       -0.97105900000000       -9.84777600000000
H          105.03492199999999       -2.10105700000000      -10.78008200000000
H          104.72653600000000       -3.69348200000000       -6.49348100000000
H          104.51349300000000       -2.79649900000000       -4.20722400000000
H          107.44552500000000       -0.45247200000000       -4.07567700000000
H          109.03090300000000        0.30509600000000       -2.16862300000000
C           52.56033700000000        0.05133700000000        0.00922800000000
C           54.01856300000000        0.02950100000000       -0.00864600000000
C           55.15249100000000        0.00874700000000       -0.01013700000000
C           56.51387300000000       -0.00384300000000       -0.01232800000000
C           57.78809200000000        0.00646400000000       -0.01709300000000
C           58.97655400000000        0.02526200000000       -0.02324900000000
C           60.32891500000000        0.05004600000000       -0.00738100000000
C           61.42918199999999        0.05133700000000        0.00922800000000
C           70.99110800000000        0.05133700000000        0.00922800000000
C           72.44933500000000        0.02950100000000       -0.00864600000000
C           73.58326300000000        0.00874700000000       -0.01013700000000
C           74.94464400000000       -0.00384300000000       -0.01232800000000
C           76.21886300000000        0.00646400000000       -0.01709300000000
C           77.40732600000000        0.02526200000000       -0.02324900000000
C           78.75968600000000        0.05004600000000       -0.00738100000000
C           79.85995400000000        0.05133700000000        0.00922800000000
C           89.42188000000000        0.05133700000000        0.00922800000000
C           90.88010600000000        0.02950100000000       -0.00864600000000
C           92.01403399999998        0.00874700000000       -0.01013700000000
C           93.37541600000000       -0.00384300000000       -0.01232800000000
C           94.64963499999999        0.00646400000000       -0.01709300000000
C           95.83809699999999        0.02526200000000       -0.02324900000000
C           97.19045799999999        0.05004600000000       -0.00738100000000
C           98.29072499999998        0.05133700000000        0.00922800000000
C           62.72608200000000       -0.04601800000000       -0.00025100000000
C           63.50125200000000        0.00124800000000        1.38637600000000
C           62.92014500000000        0.01561700000000        2.63883200000000
C           63.96223500000000        0.05315500000000        3.59273700000000
C           65.15617800000000        0.06152700000000        2.90144900000000
N           64.86710500000000        0.03060000000000        1.55774400000000
C           66.59624599999999        0.09721700000000        3.56346500000000
C           66.65782100000000        0.16548400000000        5.04474700000000
C           66.72338000000001       -1.00200300000000        5.80778300000000
C           66.75451099999999       -0.92961000000000        7.20472700000000
C           66.68784400000000        0.30313500000000        7.87353200000000
N           66.76372400000000        0.30631000000000        9.27781600000000
C           66.28361700000001        1.47864200000000        9.98449900000000
C           66.67739300000000        1.46715700000000        7.09459000000000
C           66.64633900000000        1.40109900000000        5.69599700000000
C           67.72395700000000        0.06841300000000        2.80569400000000
C           69.03780600000000        0.09547900000000        3.41516800000000
C           69.94777000000001        0.05164400000000        2.45130400000000
N           67.91882800000000        0.01323400000000        1.45045000000000
C           69.26351400000000        0.00058100000000        1.17444500000000
C           69.94722200000000       -0.04601800000000       -0.00025100000000
C           69.17236599999998       -0.08711700000000       -1.38732100000000
C           69.75319300000000       -0.08686200000000       -2.64035200000000
C           68.71118199999999       -0.12595700000000       -3.59448700000000
C           67.51745900000000       -0.14739600000000       -2.90283700000000
N           67.80684400000000       -0.12321600000000       -1.55881800000000
C           66.07812100000000       -0.18914200000000       -3.56351500000000
C           66.01004800000000       -0.25740400000000       -5.04431400000000
C           65.96047799999999        0.91222700000000       -5.80641500000000
C           65.88751800000000        0.84684500000000       -7.20341000000000
C           65.83140400000001       -0.38510000000000       -7.86755800000000
N           65.80041799999999       -0.51427200000000       -9.26817000000000
C           65.25918299999999        0.58960700000000      -10.03888900000000
C           65.93897800000001       -1.55075500000000       -7.09251700000000
C           66.01143700000000       -1.49169600000000       -5.69667500000000
C           64.94983200000000       -0.16162800000000       -2.80581200000000
C           63.63564099999999       -0.19186400000000       -3.41500700000000
C           62.72535899999999       -0.14831600000000       -2.45152400000000
C           63.40958100000000       -0.09378000000000       -1.17493000000000
N           64.75427800000000       -0.10438100000000       -1.45079800000000
H           61.86287900000000       -0.00215100000000        2.85383200000000
H           63.85181200000000        0.06983300000000        4.66689800000000
H           65.55446700000000        0.02088200000000        0.80792500000000
H           66.75817900000000       -1.96455700000000        5.30286000000000
H           66.82718300000001       -1.85663900000000        7.76516900000000
H           66.38260300000000       -0.56039600000000        9.64770000000000
H           65.25250500000000        1.72150200000000        9.70687900000000
H           66.29958000000001        1.27818600000000       11.06082300000000
H           66.92887000000000        2.34548000000000        9.81005200000000
H           66.69173400000000        2.45142700000000        7.54807900000000
H           66.62131800000000        2.31175400000000        5.10158800000000
H           69.25418700000000        0.14146500000000        4.46786600000000
H           71.00913399999999        0.05804800000000        2.61869000000000
H           70.81024400000000       -0.05963800000000       -2.85558000000000
H           68.82171400000000       -0.13490100000000       -4.66912200000000
H           67.11982300000000       -0.12109400000000       -0.80872000000000
H           65.98041200000000        1.87457100000000       -5.29984500000000
H           65.87146300000001        1.78398200000000       -7.74759800000000
H           65.38803600000000       -1.40839400000000       -9.52198800000000
H           65.91373299999999        1.46607700000000       -9.99984500000000
H           65.18737700000000        0.28968200000000      -11.08955900000000
H           64.25357700000001        0.86175600000000       -9.70110700000000
H           65.95927399999999       -2.52722300000000       -7.56651300000000
H           66.06971700000000       -2.40346900000000       -5.10692800000000
H           63.41906199999999       -0.23963800000000       -4.46739600000000
H           61.66399300000000       -0.15659400000000       -2.61847900000000
C           81.15685400000000       -0.04601800000000       -0.00025100000000
C           81.93202400000000        0.00124800000000        1.38637600000000
C           81.35091700000000        0.01561700000000        2.63883200000000
C           82.39300700000000        0.05315500000000        3.59273700000000
C           83.58694900000000        0.06152700000000        2.90144900000000
N           83.29787699999999        0.03060000000000        1.55774400000000
C           85.02701699999999        0.09721700000000        3.56346500000000
C           85.08859300000000        0.16548400000000        5.04474700000000
C           85.15415200000000       -1.00200300000000        5.80778300000000
C           85.18528300000000       -0.92961000000000        7.20472700000000
C           85.11861500000001        0.30313500000000        7.87353200000000
N           85.19449600000000        0.30631000000000        9.27781600000000
C           84.71438800000000        1.47864200000000        9.98449900000000
C           85.10816499999999        1.46715700000000        7.09459000000000
C           85.07711000000000        1.40109900000000        5.69599700000000
C           86.15472900000000        0.06841300000000        2.80569400000000
C           87.46857700000000        0.09547900000000        3.41516800000000
C           88.37854099999998        0.05164400000000        2.45130400000000
N           86.34959999999998        0.01323400000000        1.45045000000000
C           87.69428599999999        0.00058100000000        1.17444500000000
C           88.37799300000000       -0.04601800000000       -0.00025100000000
C           87.60313800000000       -0.08711700000000       -1.38732100000000
C           88.18396500000000       -0.08686200000000       -2.64035200000000
C           87.14195400000000       -0.12595700000000       -3.59448700000000
C           85.94823099999999       -0.14739600000000       -2.90283700000000
N           86.23761500000001       -0.12321600000000       -1.55881800000000
C           84.50889200000000       -0.18914200000000       -3.56351500000000
C           84.44081999999999       -0.25740400000000       -5.04431400000000
C           84.39125000000000        0.91222700000000       -5.80641500000000
C           84.31829000000000        0.84684500000000       -7.20341000000000
C           84.26217600000000       -0.38510000000000       -7.86755800000000
N           84.23118900000000       -0.51427200000000       -9.26817000000000
C           83.68995500000000        0.58960700000000      -10.03888900000000
C           84.36975000000000       -1.55075500000000       -7.09251700000000
C           84.44220900000001       -1.49169600000000       -5.69667500000000
C           83.38060299999999       -0.16162800000000       -2.80581200000000
C           82.06641300000000       -0.19186400000000       -3.41500700000000
C           81.15613100000000       -0.14831600000000       -2.45152400000000
C           81.84035299999999       -0.09378000000000       -1.17493000000000
N           83.18505000000000       -0.10438100000000       -1.45079800000000
H           80.29365100000000       -0.00215100000000        2.85383200000000
H           82.28258400000000        0.06983300000000        4.66689800000000
H           83.98523900000001        0.02088200000000        0.80792500000000
H           85.18895099999999       -1.96455700000000        5.30286000000000
H           85.25795400000000       -1.85663900000000        7.76516900000000
H           84.81337499999999       -0.56039600000000        9.64770000000000
H           83.68327700000000        1.72150200000000        9.70687900000000
H           84.73035100000000        1.27818600000000       11.06082300000000
H           85.35964099999998        2.34548000000000        9.81005200000000
H           85.12250500000000        2.45142700000000        7.54807900000000
H           85.05208900000000        2.31175400000000        5.10158800000000
H           87.68495900000001        0.14146500000000        4.46786600000000
H           89.43990500000000        0.05804800000000        2.61869000000000
H           89.24101500000000       -0.05963800000000       -2.85558000000000
H           87.25248600000000       -0.13490100000000       -4.66912200000000
H           85.55059499999999       -0.12109400000000       -0.80872000000000
H           84.41118399999999        1.87457100000000       -5.29984500000000
H           84.30223400000000        1.78398200000000       -7.74759800000000
H           83.81880700000001       -1.40839400000000       -9.52198800000000
H           84.34450499999998        1.46607700000000       -9.99984500000000
H           83.61814800000001        0.28968200000000      -11.08955900000000
H           82.68434900000000        0.86175600000000       -9.70110700000000
H           84.39004600000000       -2.52722300000000       -7.56651300000000
H           84.50048899999999       -2.40346900000000       -5.10692800000000
H           81.84983399999999       -0.23963800000000       -4.46739600000000
H           80.09476500000000       -0.15659400000000       -2.61847900000000
290
 energy: -470.486130487072 gnorm: 0.767049743730 xtb: 6.5.1 (b24c23e)
C           43.29969285125708        1.17788804357408       -0.19138965761719
C           44.18178032520191        1.56269217594827       -1.37733582184714
C           44.09962543540222        2.71473835303132       -2.14453905457518
C           45.18277576489476        2.69056724733551       -3.05689873324930
C           45.87400600536704        1.50356293379354       -2.85979200908490
N           45.29482971330203        0.86328769751209       -1.78433914890657
C           47.14223610170621        0.98344966350151       -3.61140406457235
C           47.02647142645851        0.65905887926231       -5.06498760379598
C           47.33162507343793       -0.62955263289841       -5.53515294213077
C           47.09765033124210       -1.00447828515951       -6.85870609399000
C           46.48320519622366       -0.12140935638054       -7.74665273440210
N           46.13724543121999       -0.50959877248756       -9.06217234431363
C           45.26219312583399       -1.67810703913119       -9.09373733478476
C           46.21890427761490        1.18061728110341       -7.30716638302715
C           46.48982436955975        1.55986689704658       -5.98989236695912
C           48.26219663367954        0.70429005792610       -2.86603123929087
C           49.53702702426105        0.34056033168851       -3.45343092425779
C           50.39809162593528        0.10149233274327       -2.46404590560049
N           48.42992654738246        0.69388046051070       -1.50265702284823
C           49.70576244232315        0.28412255406931       -1.19830889111249
C           50.29449912649502        0.04120217282044        0.01730743066535
C           49.47809610491768        0.11088469298255        1.35270485352953
C           50.00001950829116        0.00571369756764        2.63676087580622
C           48.92838774573796       -0.01772710721095        3.55442951720038
C           47.74725840606421        0.05475800004848        2.82712391023397
N           48.10011791673877        0.19675520305186        1.49448006604139
C           46.30941669347535       -0.04909935180907        3.41924228033100
C           46.15868602490483       -0.51304027709563        4.82713813614642
C           45.91768153345770        0.39975555845171        5.86097883169395
C           45.80468456602059       -0.03244053771520        7.18321304332183
C           45.95299729657754       -1.38798721859510        7.51565961856794
N           45.78430338137625       -1.88909068997002        8.81772466625044
C           45.97065863708433       -0.97837120083526        9.93712891705681
C           46.17479979576387       -2.29417847654716        6.46870100432559
C           46.28997653253885       -1.86427796344675        5.14669624410963
C           45.20803519148542        0.23665653243101        2.65230282428144
C           43.83819926081841        0.09505579515460        3.12456801027868
C           43.01856617030251        0.43431043783354        2.12789495633846
C           43.84344344523542        0.79309524760757        0.99172599049709
N           45.14885647863765        0.65995766006390        1.35860758182601
H           42.21752978989651        1.21667682967133       -0.29433106918211
H           43.36909561952675        3.50284406494963       -2.02227087557666
H           45.44140470598045        3.46515419790442       -3.76771825326456
H           45.72431016595620        0.11783195928850       -1.25109524334899
H           47.72291582554213       -1.36658571235174       -4.83428559611282
H           47.37684536482781       -2.00394705212892       -7.17300923096484
H           45.70916454227059        0.27829943401462       -9.54360025866159
H           44.40105685762988       -1.55173900492124       -8.42639803801256
H           44.88129203055471       -1.81770651195404      -10.10562940757784
H           45.80057910913163       -2.59003770409480       -8.81496210668315
H           45.73752896120605        1.89165603093004       -7.97086096794584
H           46.26485681607388        2.57117039805493       -5.66624926944087
H           49.76036085886446        0.30404545486703       -4.49918954528841
H           51.42442114037878       -0.18063052560153       -2.60006917108035
H           51.04829907927470       -0.07840669040743        2.87853642649404
H           48.99953355476554       -0.12605589222685        4.62620297610804
H           47.43677628451225        0.31951996272802        0.73182567312010
H           45.82125324466957        1.45834517638181        5.61636531427236
H           45.61085331086893        0.71719474968583        7.94777424072359
H           46.29344548476079       -2.76059227389847        8.93097340443816
H           45.16160965100708       -0.24245301444421        9.98134847515779
H           46.94050593004495       -0.46747335672828        9.88319246935384
H           45.94421262095889       -1.54971879598395       10.87092475862204
H           46.25313191985455       -3.35758293852567        6.67288366439246
H           46.46587132207105       -2.57842442429583        4.34490197091363
H           43.53464141891388       -0.24495349307477        4.09549550570146
H           41.94608801455774        0.41573218235275        2.14856255526399
C          107.67967673465499        1.18610535272537        0.13018598910826
C          106.79765003690473        1.63076296105355        1.29492511365162
C          106.87977298794318        2.82046079270662        2.00254623865531
C          105.79673529332024        2.84278977272154        2.91491027162079
C          105.10534362164671        1.64722775348471        2.77856044894871
N          105.68453837752992        0.95307112322003        1.73702299322931
C          103.83738646856392        1.16624042612716        3.55572133036982
C          103.95296034174407        0.91622563126115        5.02385509322823
C          103.64777394090883       -0.34677879502593        5.55907049423436
C          103.88176326730270       -0.65378852835680        6.89999525244848
C          104.49620710432613        0.27336851078144        7.74181830884794
N          104.84217607938399       -0.04729187809735        9.07538317985992
C          105.71721847070390       -1.21268209020174        9.16645186034840
C          104.76050751410330        1.55132398038820        7.23656188288731
C          104.48960612022415        1.86297159450584        5.90169108050461
C          102.71713919175157        0.84938366321042        2.82536898744113
C          101.44234858071238        0.51600889488497        3.43057079800179
C          100.58134952594403        0.22684698661356        2.45454722009837
N          102.55005764972091        0.76965165207974        1.46494451115983
C          101.27426787883142        0.34452430760665        1.18097148724627
C          100.68861806155837        0.04111426112869       -0.02053521272616
C          101.50182150862226        0.04183570404618       -1.35693693289178
C          100.97950172527483       -0.12867053167120       -2.63470004461114
C          102.05077075555847       -0.19882653065142       -3.54984878688466
C          103.23240917124393       -0.08937851491208       -2.82712703909331