290
 energy: -471.306717076793 gnorm: 0.000743320842 xtb: 6.5.1 (b24c23e)
C           44.32728576345147        0.68181817534224        0.03503762179927
C           44.92788214984407        0.72502388989703       -1.21697141113950
C           44.26810434090610        0.86575352478939       -2.46949244341451
C           45.21445594864236        0.80065371652843       -3.45385547359665
C           46.48502305242923        0.63525519103784       -2.83349824617065
N           46.26106205731615        0.59339347700618       -1.48620202790016
C           47.73407136397935        0.50945997495222       -3.45479394310796
C           47.75934049986286        0.58180550876784       -4.93395056681935
C           48.26359621965751       -0.48121227149212       -5.68610174489231
C           48.28842436950487       -0.43259935781580       -7.06916385454826
C           47.80645825030362        0.69496271716242       -7.74056133955380
N           47.86020169408231        0.82193592084745       -9.12021359275893
C           47.90827704361533       -0.37100439103909       -9.95464187184607
C           47.31151779811631        1.76909167695347       -6.99053525612740
C           47.28357388931399        1.70878606546194       -5.60998483661126
C           48.94410219477401        0.32663063097261       -2.77968233841991
C           50.23984568342967        0.31547051638225       -3.43413871060861
C           51.16034653722118        0.16567536254874       -2.45896554380351
N           49.10041288283209        0.18793015732559       -1.43376872191681
C           50.42605439073269        0.08357887221549       -1.21183611741533
C           51.06445381938679       -0.07395146131572        0.03589243042985
C           50.43094266396599       -0.16950313336203        1.29038595130969
C           51.07731092145475       -0.33464543099669        2.54329767594829
C           50.11351733133747       -0.37304435264334        3.51318307871638
C           48.84762536896350       -0.23408697775365        2.88051235698223
N           49.09209019214796       -0.11284876274559        1.53748123739386
C           47.59306690167151       -0.17588515431329        3.49906269687301
C           47.56236793045611       -0.38629344620164        4.96410687961396
C           47.04475057140467        0.58603300084211        5.82206868121902
C           47.01744718028328        0.39086233102066        7.19245790565089
C           47.51050643284026       -0.79576144682862        7.74320280113712
N           47.45470238114829       -1.06922722732771        9.10124121007044
C           47.39859042181762        0.02734522525596       10.05836934323132
C           48.02157982972963       -1.77849329015542        6.88623207584743
C           48.05243562326282       -1.57182435642585        5.52047819190857
C           46.38747588467658        0.06637624860442        2.82982724684092
C           45.08307391124536        0.08857004836012        3.47257848545484
C           44.18259902991358        0.34781624079242        2.50273149265967
C           44.93310200996459        0.46332104551326        1.26533777208717
N           46.25693888502965        0.28746385173860        1.50021846160295
H           43.24854557604090        0.80316958424272        0.03914959044062
H           43.20323487488380        0.98705126712008       -2.58954368144406
H           45.04920224173998        0.85025324104203       -4.51790161542394
H           46.98745040078998        0.46161364615430       -0.79025740177493
H           48.62404443518623       -1.36879542387970       -5.17748055469509
H           48.68500690884438       -1.27613328252205       -7.62069224113990
H           47.21527230668612        1.51707463775280       -9.47608346813499
H           47.09744857400039       -1.06697656734265       -9.71057954346622
H           47.81401348897338       -0.05843205695176      -10.99459498458124
H           48.86609832570195       -0.87724719799536       -9.82813869306182
H           46.95080869057112        2.65526526668589       -7.50214625795101
H           46.91086375556814        2.55531763030971       -5.04351533196723
H           50.40399532900763        0.43399876393559       -4.49288566615984
H           52.23380353689407        0.11709735091367       -2.54875869734924
H           52.14456281913244       -0.40882978617649        2.67670236367468
H           50.26523141878225       -0.46992268967737        4.57585692967098
H           48.37105271523830        0.01839008346329        0.83563118159784
H           46.67844616634175        1.52008538550356        5.41008164962762
H           46.61089859235718        1.16720751662336        7.82894596557565
H           48.10353180094511       -1.79447823383721        9.38215550708468
H           46.43656459690677        0.53649822604254        9.98778005189773
H           48.20350557670695        0.75175582476136        9.88910193600869
H           47.49749615809962       -0.39394329411145       11.05878818430655
H           48.39339746566815       -2.70870295608673        7.30286652899811
H           48.44036468613409       -2.34722800031783        4.86879075246018
H           44.90165884631251       -0.08896118874190        4.52038945787536
H           43.11073179477439        0.44072945262729        2.58360087101084
C          106.72788836060717        0.71727672965090       -0.07256210500075
C          106.12526844985553        0.81766098178414        1.17513737513222
C          106.78180091956818        1.02848915372655        2.41948278985575
C          105.83516875273666        1.00035439956955        3.40528824446952
C          104.56744218253688        0.78885077851512        2.79311423588534
N          104.79341325198192        0.68358616699136        1.44966255570915
C          103.31967454177814        0.67757292774526        3.41966737849899
C          103.29546919334466        0.81787198701462        4.89417318242971
C          102.81495934666810       -0.21939104426717        5.69601282942823
C          102.79944106665376       -0.11030323902171        7.07580355922885
C          103.26624456735527        1.05393540129741        7.69308456015948
N          103.22341210072464        1.23888236348819        9.06674875670762
C          103.21877909304393        0.08118838838155        9.95097512682809
C          103.73397432076678        2.10354951620419        6.89269068900517
C          103.75369105064063        1.98265506595288        5.51595514258917
C          102.11211828956701        0.44851579931642        2.75466809525192
C          100.81672449248644        0.45260386857447        3.40981209941551
C           99.89784267275695        0.24822008367944        2.44303411424993
N          101.95736082161716        0.24547510926009        1.41671984544659
C          100.63296437356908        0.11632893460322        1.20058361777147
C           99.99691089377788       -0.10836069190785       -0.03811037298885
C          100.63312077399826       -0.26187387204364       -1.28554134829499
C           99.99077292243103       -0.49948537987828       -2.52887229974211
C          100.95687516608545       -0.58162520049690       -3.49376373274863
C          102.22017852249225       -0.39736649657801       -2.86753682578834
N          101.97189990634729       -0.20612589120286       -1.53336893030391
C          103.47525598033117       -0.36159463805041       -3.48662085296230
C          103.51184506731251       -0.65450650200401       -4.93737640559998
C          104.02118677427424        0.27282134520970       -5.84843471906712
C          104.05853951166876       -0.00190843918915       -7.20487721121665
C          103.58458018881406       -1.22549216502470       -7.68730490763812
N          103.65366335820603       -1.57838075172933       -9.02624838611370
C          103.70448063260447       -0.54035826684429      -10.04679153264419
C          103.08032885240023       -2.16246490564850       -6.77670571643245
C          103.03904210457097       -1.87645814561742       -5.42560370112031
C          104.67747185070064       -0.07091421121566       -2.83074665442072
C          105.98232396252426       -0.07009548404920       -3.47304254059608
C          106.87884153448145        0.25212612943840       -2.51854294971954
C          106.12579583251372        0.42681135896521       -1.28970862737176
N          104.80418420166349        0.22404895281921       -1.51519967161922
H          107.80514397512852        0.85074155624876       -0.08245734708328
H          107.84498488015831        1.16846006772981        2.53400196271519
H          105.99848675447302        1.10459147374777        4.46567722452433
H          104.06961183063338        0.50856018265508        0.76059643438662
H          102.46688517111927       -1.13469579010198        5.22965613500696
H          102.42256585690845       -0.93566044388745        7.66723373189807
H          103.85489341767334        1.96438320728549        9.38430416940638
H          104.04450217351551       -0.60289773194469        9.72377895413859
H          103.31935173304551        0.43963444754608       10.97541715143177
H          102.27325468695319       -0.45491880030490        9.86029664248370
H          104.08147258368275        3.01800890323327        7.36192502736289
H          104.10716119567103        2.80966124065055        4.90970638108121
H          100.65191876349733        0.61714529287484        4.46231234492102
H           98.82499422452976        0.19176947001680        2.53552388668981
H           98.92448727497391       -0.59023825381291       -2.65976101197151
H          100.80850116618528       -0.73719795495253       -4.54993280971549
H          102.69022142648802       -0.03131046199280       -0.83828462268995
H          104.37344593684836        1.23401197711588       -5.49011355431138
H          104.45856746594622        0.74112688577026       -7.88383567445047
H          103.01603404305801       -2.32726017283974       -9.26801433797944
H          104.65916568886090       -0.01502491578587       -9.99864395833951
H          102.88874238786400        0.18199141042336       -9.92812820174234
H          103.62038405402387       -1.02202061937714      -11.02098180863948
H          102.72277448219097       -3.12028576290150       -7.13982398883998
H          102.65703323891978       -2.61713307420804       -4.73140650308735
H          106.16690913968237       -0.30300017299648       -4.50938628681275
H          107.94973284630755        0.35206399458216       -2.60381785142828
C           52.46798041138372       -0.13084985410457        0.04434994603461
C           53.69284043443157       -0.15892293188747        0.05520088976245
C           55.03467498114791       -0.17340684746620        0.06519890719676
C           56.26600332124544       -0.17214729874773        0.07274062267706
C           57.60314705321531       -0.16180820858473        0.07808255446930
C           58.83440991573461       -0.14212875728493        0.08165929690608
C           60.17586955513939       -0.11537897285552        0.08297413834952
C           61.40094522867993       -0.08648258158263        0.07879155222377
C           71.06559354407366       -0.01840792468435        0.03614760907972
C           72.29108412891635       -0.00617071789176        0.02447311294313
C           73.63259163545389        0.00769754351616        0.01624456669933
C           74.86412551733397        0.01847393876145        0.00743461694284
C           76.20102899628449        0.02223913662032       -0.00377296148461
C           77.43254343984216        0.02385873231222       -0.02189509213151
C           78.77409909906939        0.02786267987891       -0.03028961842417
C           79.99966297843027        0.02457810904661       -0.03852756904828
C           89.66101278240241       -0.23990635184857       -0.06745684454168
C           90.88627259226419       -0.26155605660116       -0.07159056718505
C           92.22800031402987       -0.27508201631626       -0.07230500245698
C           93.45942039185695       -0.27886747918849       -0.06997884104237
C           94.79665383828822       -0.27228066438208       -0.06730607323438
C           96.02793567309024       -0.25561936795571       -0.06170238343044
C           97.36953040650857       -0.22249743655989       -0.05468158126639
C           98.59402672087144       -0.18009223313754       -0.04425750221136
C           62.80417176663873       -0.04948550596291        0.07340195675918
C           63.43441883158803        0.01334213618595        1.33209916783805
C           62.78817289322227        0.01588324339275        2.59440184556076
C           63.75532427389779        0.06388329491372        3.56172824010336
C           65.02054404234752        0.10060485430366        2.91613985608252
N           64.77552254717152        0.06397535090750        1.56902783716760
C           66.28158737402170        0.13025444958016        3.52687105498265
C           66.29580475495104        0.19980935349952        5.00710703191424
C           66.90592702032754       -0.80454058423893        5.76407548488289
C           66.90926843397375       -0.74564933988048        7.14458939978844
C           66.30753422300555        0.32803802418808        7.81293687996823
N           66.38625226597651        0.37324528169093        9.19627265091926
C           65.41267503602434        1.15162548061244        9.95009786694098
C           65.71028102200798        1.34340072962875        7.06016513550271
C           65.69949856781680        1.26929303265489        5.67774606233114
C           67.50496048973356        0.09787729235131        2.85435763989015
C           68.79324571360546        0.19696664933719        3.51607761202942
C           69.72825201225180        0.14327038333272        2.54461764038321
N           67.67882049504813        0.00261492230782        1.50662216683137
C           69.00969337710495        0.02276983088558        1.29209881455315
C           69.66210970985834       -0.03850901055787        0.04334006063681
C           69.03167999229748       -0.09968612417867       -1.21550760430587
C           69.67865728171424       -0.10803733387762       -2.47764975991534
C           68.71174845485015       -0.13883271334538       -3.44569220418424
C           67.44568931344043       -0.16089365944241       -2.80094397823677
N           67.69031704199375       -0.13288884880933       -1.45332498976560
C           66.18484811716428       -0.17191435824182       -3.41172019712745
C           66.16642973314370       -0.22174880564254       -4.89280414728547
C           65.56915013668942        0.80096822984730       -5.63208311070549
C           65.54844538027179        0.76600183259846       -7.01571754018759
C           66.11422665537859       -0.31433998662260       -7.69930405376866
N           66.15904732258518       -0.37988537389015       -9.08343322198281
C           65.17419284888730        0.34850989192895       -9.87208215359927
C           66.71877258700781       -1.34030168881269       -6.96225570954768
C           66.74739820354652       -1.29028514498599       -5.58145480695949
C           64.96147945287905       -0.14071933132127       -2.73873069396082
C           63.67341669438785       -0.23001943758440       -3.40220361459156
C           62.73824565437077       -0.19450765764336       -2.43005549851394
C           63.45649998266089       -0.09118927156679       -1.17593388442652
N           64.78749669572413       -0.06476484786996       -1.39011667222269
H           61.72018155484380       -0.02298145155452        2.73631152917751
H           63.60610548404055        0.05920978759466        4.62909290779155
H           65.49505380019208        0.06150914851656        0.85375702159660
H           67.36033520050982       -1.65093596266873        5.26087887858630
H           67.37874729427753       -1.53640165172734        7.72023113528105
H           66.55863841100143       -0.53520548272208        9.60956622456508
H           64.38521533787930        0.89088919503138        9.67145139084266
H           65.56269310119639        0.94345526734145       11.00944188199388
H           65.57174260589768        2.21694694907198        9.77802167787127
H           65.25513431952098        2.19687759182527        7.54750490003764
H           65.24153760019161        2.06881591857193        5.10530497094459
H           68.94137507047360        0.31135401727306        4.57760972321870
H           70.80136913034043        0.18997248098365        2.63941732308714
H           70.74713251189877       -0.08309342748147       -2.61887489659622
H           68.86161253451780       -0.13234839820935       -4.51291692596783
H           66.97036026723784       -0.12270009723043       -0.73856107856897
H           65.13366747401007        1.64814621836258       -5.11343468340283
H           65.09248289121410        1.58474078515848       -7.55866656515859
H           66.30881128026617       -1.32102495598479       -9.42658595927936
H           65.35086533170397        1.42191663341853       -9.79199104218250
H           65.29209126845565        0.05262177407466      -10.91447767088386
H           64.15196262316708        0.12596161731273       -9.54545543592649
H           67.16414944202137       -2.18085696688475       -7.48399596687710
H           67.20213676665404       -2.10194877197738       -5.02395434256494
H           63.52554995480610       -0.32675716768415       -4.46556509327257
H           61.66523228818004       -0.24134781598078       -2.52586780794691
C           81.40322273484017        0.01611693785301       -0.04472744012577
C           82.03393787445168        0.06585013420787        1.21450571118098
C           81.38638494290934        0.09766831431519        2.47580912871354
C           82.35320044028154        0.11685020604551        3.44436681665581
C           83.61988751181072        0.10597115847229        2.80064770615068
N           83.37556756027189        0.07115214735316        1.45320851986063
C           84.88009068516386        0.09377710758728        3.41336549365597
C           84.89557678669938        0.17249700679150        4.89292081127315
C           85.47411996358302       -0.84523862725700        5.65690461797229
C           85.48120679974689       -0.77613321294497        7.03687172079756
C           84.91488787563692        0.32120063742995        7.69778719415150
N           84.99777257192777        0.37487950472288        9.08037764453306
C           84.04921115007025        1.18708854718883        9.83034588596148
C           84.34852349622194        1.34901824842177        6.93799204293266
C           84.33385053525649        1.26510637776844        5.55621701337228
C           86.10263053924554        0.01283084643347        2.74292594053101
C           87.39271308642030        0.07009159391345        3.40606467379373
C           88.32651578025342       -0.02401306567556        2.43655998329785
N           86.27461736406840       -0.09750805579247        1.39631163505242
C           87.60585651443256       -0.12635665147815        1.18371868298018
C           88.25740540596233       -0.21521689019144       -0.06361608940713
C           87.62733436851047       -0.25618105492422       -1.32333957056675
C           88.27592540672683       -0.28379432875859       -2.58423536137432
C           87.31025191615409       -0.27895877411325       -3.55405120067547
C           86.04297253449708       -0.26005665544196       -2.91160960388433
N           86.28593379553270       -0.24356611640124       -1.56362143301872
C           84.78316123232295       -0.22896178826069       -3.52454481017852
C           84.76661874036715       -0.27446949916051       -5.00562295215723
C           84.19849755909912        0.76615277743866       -5.74303278238898
C           84.18336647015541        0.73804003711095       -7.12687446407271
C           84.72583802949283       -0.35257791716466       -7.81300112556388
N           84.77735708047190       -0.41198148654403       -9.19722567465661
C           83.81378108081032        0.34239673332941       -9.98772622446221
C           85.30025098127639       -1.39710248680204       -7.07795060075565
C           85.32306444713775       -1.35444975102905       -5.69680618439896
C           83.56046076461672       -0.15829795966846       -2.85337968054177
C           82.27104964832183       -0.20982861722719       -3.51833940749805
C           81.33609779744282       -0.14092768766881       -2.54770249366310
C           82.05552133497930       -0.05463939828449       -1.29295892297486
N           83.38687163094764       -0.07192129551081       -1.50518608118394
H           80.31752353823526        0.09664735141927        2.61635330604628
H           82.20237335000196        0.12238977229243        4.51148978210181
H           84.09556126669493        0.03956029739436        0.73909684910242
H           85.90051217232917       -1.70953233558089        5.15965388242266
H           85.92625485308714       -1.57698294950214        7.61791815972509
H           85.14567738881557       -0.53461394562547        9.50073459373429
H           83.01394806031992        0.95380254151269        9.55636440343580
H           84.19610834523833        0.98312070227086       10.89093797896386
H           84.23838576697922        2.24597085289552        9.64928221218608
H           83.92110641454381        2.21998935538877        7.41944535024826
H           83.90108021667484        2.07465193600312        4.97829111580491
H           87.54368009974615        0.18695119984041        4.46690301164168
H           89.40045149132234       -0.01528039890968        2.53292195571964
H           89.34490298553939       -0.29458403533727       -2.72348494606694
H           87.46267540783501       -0.27383384749998       -4.62090344820095
H           85.56548401448615       -0.20922907049078       -0.85010601389813
H           83.78243253095192        1.62190306459377       -5.22252935792868
H           83.75065179495181        1.57046861384295       -7.66802954500335
H           84.90745108051945       -1.35460089210437       -9.54433480573657
H           84.01223776585728        1.41125434600979       -9.89878503732948
H           83.93310009026006        0.05134588671151      -11.03132435655170
H           82.78478551215306        0.13900547760897       -9.66998681654721
H           85.72713986140134       -2.24603294715243       -7.60158184406506
H           85.75403479983004       -2.18026086461540       -5.14121280072068
H           82.12172285521578       -0.30710617222841       -4.58146718258041
H           80.26223820821879       -0.15461242954893       -2.64476918709678
