120
 energy: -206.725281469029 gnorm: 0.924601964213 xtb: 6.5.1 (b24c23e)
Cu          11.37115200000000        0.04749700000000        0.00360700000000
C            8.03458900000000       -0.10857300000000       -0.00680600000000
C            8.69869900000000       -1.26077700000000       -0.13463400000000
C            8.04902000000000       -2.55751800000000       -0.28502400000000
C            8.99084900000000       -3.48123100000000       -0.33241600000000
C           10.29567800000000       -2.81681000000000       -0.21294800000000
N           10.11739200000000       -1.40523100000000       -0.09251200000000
C           11.48588100000000       -3.44853600000000       -0.16776900000000
C           12.77951400000000       -2.73249900000000       -0.01730100000000
C           14.07005800000000       -3.40729700000000        0.16761100000000
C           15.00477300000000       -2.48082100000000        0.22540500000000
N           12.92013200000000       -1.44344400000000       -0.07726900000000
C           14.31963800000000       -1.20340800000000        0.07000400000000
C           14.91421100000000       -0.00097900000000       -0.00068500000000
C           14.15319700000000        1.25660400000000       -0.17959500000000
C           14.69016500000000        2.40167500000000       -0.58179900000000
C           13.64643000000000        3.40642600000000       -0.53974200000000
C           12.54041200000000        2.80998100000000       -0.11044800000000
C           11.25530400000000        3.51199400000000        0.14075500000000
C           11.27442400000000        4.98679500000000        0.29871600000000
C           10.61516100000000        5.81274700000000       -0.62753200000000
C           10.65386300000000        7.20286000000000       -0.48243500000000
C           11.35541800000000        7.77682000000000        0.58154000000000
C           12.02146100000000        6.96158600000000        1.50103900000000
C           11.98466700000000        5.57093300000000        1.36011500000000
C           10.09025600000000        2.84199200000000        0.22945800000000
C            8.77789700000000        3.42292800000000        0.50824100000000
C            7.91630400000000        2.42585600000000        0.45575700000000
C            8.66928600000000        1.20890700000000        0.15747400000000
N            9.93743700000000        1.43901500000000        0.02404100000000
N           12.77017100000000        1.42135400000000        0.13657500000000
C           11.52466300000000       -4.92344600000000       -0.25967600000000
C           11.42367400000000       -5.55559700000000       -1.50857200000000
C           11.46176600000000       -6.95084600000000       -1.59316400000000
C           11.60168200000000       -7.71937900000000       -0.43356400000000
C           11.70353000000000       -7.09379700000000        0.81268600000000
C           11.66514900000000       -5.69884600000000        0.90153800000000
H            6.95118800000000       -0.13717300000000       -0.00979500000000
H            6.98469400000000       -2.74723500000000       -0.33954800000000
H            8.80541600000000       -4.54309700000000       -0.43020100000000
H           14.24747700000000       -4.47214700000000        0.23971600000000
H           16.06344300000000       -2.66530500000000        0.35025600000000
H           15.71950500000000        2.56935700000000       -0.86896000000000
H           13.75928000000000        4.45306800000000       -0.79116000000000
H           10.07630100000000        5.37943600000000       -1.46121300000000
H           10.14259100000000        7.83529900000000       -1.19658900000000
H           11.38531800000000        8.85308900000000        0.69183500000000
H           12.56726300000000        7.40734700000000        2.32251100000000
H           12.50575700000000        4.94904000000000        2.07773400000000
H            8.53305200000000        4.45513700000000        0.72117900000000
H            6.84902800000000        2.50732400000000        0.61463200000000
H           11.31559900000000       -4.96804800000000       -2.41203100000000
H           11.38320200000000       -7.43630900000000       -2.55728700000000
H           11.63132000000000       -8.79919800000000       -0.50070200000000
H           11.81212800000000       -7.68980600000000        1.70954300000000
H           11.74478600000000       -5.22256100000000        1.87104800000000
Cu          30.17624100000000       -0.04959700000000        0.00149800000000
C           33.51280400000000        0.10677800000000       -0.00212800000000
C           32.84869500000000        1.26344600000000       -0.07980500000000
C           33.49837400000000        2.56549500000000       -0.17374600000000
C           32.55654500000000        3.49039400000000       -0.18098400000000
C           31.25171600000000        2.82141200000000       -0.09048000000000
N           31.43000200000000        1.40593500000000       -0.03145000000000
C           30.06151200000000        3.45058100000000       -0.01791200000000
C           28.76788000000000        2.72868500000000        0.10132300000000
C           27.47733600000000        3.39481700000000        0.31536100000000
C           26.54262100000000        2.46670600000000        0.33287100000000
N           28.62726100000000        1.44345000000000       -0.01456200000000
C           27.22775600000000        1.19724500000000        0.12214900000000
C           26.63318300000000       -0.00097900000000       -0.00068500000000
C           27.39419699999999       -1.24960800000000       -0.23403300000000
C           26.85722900000000       -2.37613500000000       -0.68557900000000
C           27.90096399999999       -3.38176400000000       -0.68718900000000
C           29.00698200000000       -2.80452200000000       -0.23240200000000
C           30.29209000000000       -3.51678100000000       -0.01191800000000
C           30.27297000000000       -4.99705000000000        0.08185500000000
C           30.93223300000000       -5.78200400000000       -0.87938400000000
C           30.89353100000000       -7.17710600000000       -0.79478500000000
C           30.19197600000000       -7.79672400000000        0.24326400000000
C           29.52593200000000       -7.02218500000000        1.19729500000000
C           29.56272700000000       -5.62672500000000        1.11688900000000
C           31.45713800000000       -2.85126200000000        0.10579300000000
C           32.76949700000000       -3.44375600000000        0.35908800000000
C           33.63109000000000       -2.44534500000000        0.34994900000000
C           32.87810800000000       -1.21659200000000        0.10478900000000
N           31.60995700000000       -1.44068900000000       -0.03851000000000
N           28.77722199999999       -1.42793200000000        0.07468500000000
C           30.02273100000000        4.92809000000000       -0.04568900000000
C           30.12372000000000        5.61387500000000       -1.26595800000000
C           30.08562700000000        7.01148100000000       -1.28988600000000
C           29.94571200000000        7.72893700000000       -0.09800900000000
C           29.84386300000000        7.04983000000000        1.11990300000000
C           29.88224500000000        5.65233700000000        1.14809900000000
H           34.59620600000000        0.13548100000000       -0.00387200000000
H           34.56270000000000        2.75740000000000       -0.21998100000000
H           32.74197800000000        4.55550500000000       -0.23256900000000
H           27.29991700000000        4.45553300000000        0.43363600000000
H           25.48395000000000        2.64559500000000        0.46561500000000
H           25.82788900000000       -2.53119000000000       -0.97975000000000
H           27.78811400000000       -4.41650200000000       -0.98381800000000
H           31.47109200000000       -5.31290100000000       -1.69346300000000
H           31.40480300000000       -7.77793900000000       -1.53572700000000
H           30.16207500000000       -8.87676700000000        0.30672100000000
H           28.98013100000000       -7.50319600000000        1.99863600000000
H           29.04163700000000       -5.03657800000000        1.86083500000000
H           33.01434200000000       -4.48423700000000        0.52700500000000
H           34.69836600000000       -2.53363500000000        0.50513600000000
H           30.23179500000000        5.06611000000000       -2.19407800000000
H           30.16419100000000        7.53835000000000       -2.23201900000000
H           29.91607399999999        8.81065200000000       -0.11819600000000
H           29.73526600000000        7.60633400000000        2.04179400000000
H           29.80260800000000        5.13440300000000        2.09601400000000
C           16.27725600000000        0.01371100000000        0.00959100000000
C           17.73548200000000       -0.00812600000000       -0.00828300000000
C           18.86941000000000       -0.02887900000000       -0.00977300000000
C           20.23079200000000       -0.04146900000000       -0.01196400000000
C           21.50501100000000       -0.03116300000000       -0.01673000000000
C           22.69347300000000       -0.01236500000000       -0.02288600000000
C           24.04583400000000        0.01242000000000       -0.00701800000000
C           25.14610100000000        0.01371100000000        0.00959100000000
120
 energy: -206.923187800743 gnorm: 0.343382075994 xtb: 6.5.1 (b24c23e)
Cu          11.37975687422475        0.03955155330761        0.00183692012137
C            8.03457594284776       -0.09036402140307       -0.00472330009631
C            8.70377656453440       -1.26181121582056       -0.13505440371683
C            8.04883979745477       -2.55029329945725       -0.28416777421769
C            9.00192041836716       -3.48320199511308       -0.33290575555864
C           10.29450807006324       -2.81114336439142       -0.21372424264156
N           10.09604400844678       -1.42422837841677       -0.09131767766044
C           11.50203361666151       -3.44510637755158       -0.16624848174950
C           12.77161742343719       -2.75357319750472       -0.01857670790378
C           14.05266640447747       -3.42193408910056        0.16447327421242
C           14.99927722748798       -2.47448466536292        0.22479895986091
N           12.93385680260246       -1.44244913731542       -0.07047747756846
C           14.31458303271970       -1.21316893793188        0.07194802631948
C           14.92773544343188        0.01504069881305       -0.00390597888198
C           14.14452978892611        1.25213897613669       -0.17054220441435
C           14.69173175437098        2.42597173917849       -0.58513102719067
C           13.66790095222003        3.41122329109613       -0.54134790185889
C           12.53146422363241        2.80035972541991       -0.10045658343547
C           11.27041579668814        3.50324618986765        0.14052219849691
C           11.28333504704351        4.98513271356498        0.29425963532728
C           10.61722503121780        5.81292197353711       -0.62226689584060
C           10.65618146421756        7.19851663412743       -0.47832330741001
C           11.35528576532403        7.77208754419939        0.58106074219167
C           12.01810624926829        6.95862295112378        1.49706544381075
C           11.98452725438650        5.57321700142746        1.35537708144702
C           10.08987395958597        2.84067941241405        0.23060576679411
C            8.78594073218659        3.42117109412129        0.50655968613539
C            7.90573904974666        2.41321342945404        0.45458685772563
C            8.64813114530259        1.20028979005934        0.15626741927253
N            9.93588256890148        1.44953404102554        0.02739610047319
N           12.77687397034974        1.42659552251601        0.12930091084871
C           11.52974429235291       -4.92696949992139       -0.25938844220081
C           11.42380369054844       -5.55891964814375       -1.50392576523087
C           11.46180504628018       -6.94870568934043       -1.58813631935086
C           11.60158125567125       -7.71506791317100       -0.43329130286275
C           11.70288235643860       -7.09144733190941        0.80819623889567
C           11.66635236321034       -5.70223166545802        0.89718135673287
H            6.95147575244581       -0.12998693596667       -0.00795657133402
H            6.98506648378306       -2.73737360354731       -0.33900952054109
H            8.81797839824864       -4.54399170261406       -0.43010115143844
H           14.23656631777171       -4.47984349977321        0.23899700696217
H           16.05974388381959       -2.65312653111680        0.34968335313792
H           15.72021651148628        2.57640624155668       -0.87117270464675
H           13.76596591794861        4.45439305514073       -0.79389421069968
H           10.07839625119854        5.37867216757877       -1.45855577916454
H           10.14385761579794        7.83282601225655       -1.19497185494239
H           11.38530497162044        8.85097647090699        0.69151081528520
H           12.56574516446557        7.40559532274350        2.32066155760680
H           12.50432600992854        4.94928329811082        2.07523721919261
H            8.54470027880125        4.45385709568294        0.71960028585807
H            6.84371041078280        2.49874265588806        0.61379641623344
H           11.31617783015806       -4.96837383861837       -2.40855205020960
H           11.38335733719851       -7.43489735210472       -2.55515222232065
H           11.63128961312462       -8.79732498563554       -0.50062528521149
H           11.81172913609056       -7.68842269307669        1.70770558140777
H           11.74455407769458       -5.22278065376089        1.86791494306974
Cu          30.16881723589910       -0.04184013096572        0.00086264259215
C           33.51268630556471        0.08882838475863       -0.00075500065620
C           32.84370292280111        1.26444970775832       -0.08001402517309
C           33.49868155377951        2.55862183290091       -0.17332380601454
C           32.54603883910076        3.49255251199947       -0.18088855606012
C           31.25290645835551        2.81571527834602       -0.09120436449964
N           31.45146779610418        1.42552321888812       -0.03149288143209
C           30.04604241707577        3.44748508004705       -0.01682320551253
C           28.77692234379415        2.74926443804996        0.10096059350715
C           27.49249426746928        3.40854066457753        0.31395191498080
C           26.54768390883438        2.46074478959924        0.33119597002894
N           28.61987444103633        1.44558942077031       -0.00816352724364
C           27.23916273795575        1.20341175309933        0.12403002632295
C           26.65997711575585       -0.01379581568169       -0.00465887325441
C           27.40677822521985       -1.24345782367888       -0.22445201914740
C           26.85517637122645       -2.40055797080793       -0.68876743374374
C           27.87815705167781       -3.38597826759641       -0.68945352248288
C           29.01618088190574       -2.79516933626620       -0.22195295804340
C           30.27682460759313       -3.50805530085982       -0.01167321896532
C           30.26398528834433       -4.99525659350269        0.07744522655976
C           30.93015573438263       -5.78241502713791       -0.87414204312098
C           30.89121481784221       -7.17295124852846       -0.79048741686107
C           30.19210649938271       -7.79197489163940        0.24299114926565
C           29.52928487620713       -7.01906991435160        1.19345499477491
C           29.56285810937650       -5.62881715805359        1.11206187651914
C           31.45770820182960       -2.85012623905451        0.10695779368058
C           32.76165327096596       -3.44213742318661        0.35725521474381
C           33.64182064571830       -2.43286525293806        0.34936721245834
C           32.89936867532756       -1.20825091755353        0.10391276256322
N           31.61212170915846       -1.45193756848096       -0.03458441428512
N           28.77321731699551       -1.43430386571209        0.06675626214630
C           30.01766652668060        4.93186638445900       -0.04532389993291
C           30.12357930916331        5.61711468630619       -1.26122417352461
C           30.08559821810057        7.00919806072300       -1.28498521666009
C           29.94580886256340        7.72463979421854       -0.09792444711542
C           29.84449006000890        7.04772955131287        1.11533086200842
C           29.88101495345371        5.65598199062325        1.14389436296982
H           34.59585897004620        0.12831881692043       -0.00242612902102
H           34.56243253307644        2.74767718079310       -0.21981802062538
H           32.72960807596093        4.55651470787816       -0.23241061687215
H           27.30998502272493        4.46284924058132        0.43321150393010
H           25.48754583639683        2.63381809265806        0.46456856250884
H           25.82720469418994       -2.53813134366014       -0.98242590690400
H           27.78092455978798       -4.41750946192902       -0.98673171988761
H           31.46899419006743       -5.31224941804322       -1.69077196742789
H           31.40353713862609       -7.77553637202598       -1.53400214647450
H           30.16208871826760       -8.87463752995571        0.30648918104260
H           28.98164816572924       -7.50136891797157        1.99686458079597
H           29.04307631463297       -5.03671754793374        1.85834041716120
H           33.00275567732932       -4.48300524630401        0.52547203873713
H           34.70379468169253       -2.52511288336305        0.50464918639232
H           30.23122516570165        5.06630496158331       -2.19058662572933
H           30.16403982983823        7.53688647299546       -2.22996509524221
H           29.91610338119530        8.80878511411086       -0.11819686660836
H           29.73566711838128        7.60505523770833        2.03991180264990
H           29.80286193857867        5.13476559008347        2.09288517831230
C           16.30653395994414        0.02700821595630        0.00722679861131
C           17.63223683347674       -0.00522260752018       -0.00755619251477
C           18.90210359835694       -0.02917816949635       -0.00878739484824
C           20.18606582332151       -0.04193903679529       -0.01240499597423
C           21.47055548114627       -0.03080203696401       -0.01664352835234
C           22.69618160871112       -0.00965082852069       -0.02335927192421
C           24.01336323920919        0.00655169502683       -0.00792113272251
C           25.23712253996740       -0.00266610598186        0.00941660247385
120
 energy: -206.981752486668 gnorm: 0.158793315480 xtb: 6.5.1 (b24c23e)
Cu          11.39433121060448        0.02811875021757        0.00283756606027
C            8.03682405022897       -0.07178604125746       -0.00207201338158
C            8.70775896985614       -1.26434642989664       -0.13490940805704
C            8.05093876225651       -2.54349954072850       -0.28326139663384
C            9.01480425684724       -3.48366302370507       -0.33324593505980
C           10.29247717657275       -2.80478963639225       -0.21424146954934
N           10.07100239596691       -1.44745757981523       -0.09372387000209
C           11.52177543077335       -3.43719570608238       -0.16445980083271
C           12.76597573042353       -2.77216820386711       -0.01909242255462
C           14.03685071231061       -3.43410548351666        0.15999720443935
C           14.98958847673798       -2.47027141351790        0.22230948331976
N           12.95424904719955       -1.43913100890376       -0.05854525801047
C           14.31439040150997       -1.21415448966548        0.07451662732134
C           14.94431356709548        0.03391650418592       -0.00890453932663
C           14.14720996429152        1.24910030188766       -0.15856279235314
C           14.69812743793806        2.45760604075050       -0.58189618293812
C           13.69912820751546        3.41559043960962       -0.53593427126936
C           12.53272699282695        2.78936027154943       -0.08770099966626
C           11.29541856309412        3.48570372065307        0.13977105048440
C           11.30153665811310        4.97610251692109        0.28432395986437
C           10.62296103178780        5.80710982487988       -0.61775989788535
C           10.65811441227863        7.18956599729202       -0.47351137790347
C           11.35510471231965        7.76549775012962        0.58057755927189
C           12.01508858057215        6.95284739977995        1.49280265848803
C           11.98896432469971        5.57148047763647        1.34725762110629
C           10.09010965778150        2.83230562024555        0.23347361559747
C            8.79509186722249        3.41300508210709        0.50306898639551
C            7.89609462623365        2.40165214659064        0.45092906648670
C            8.62531820832398        1.19287301808432        0.15501175098020
N            9.93321579750874        1.46048896842510        0.03525643606524
N           12.79547058924341        1.43293012978395        0.11457296627391
C           11.53779179062196       -4.92681776580139       -0.25852649102908
C           11.42505265051528       -5.55993917981290       -1.49834275926704
C           11.46131075947851       -6.94560161590657       -1.58290103566917
C           11.60142065388141       -7.71133965938136       -0.43292416180659
C           11.70234733017814       -7.08889333494936        0.80422088440656
C           11.66965382870078       -5.70388512396550        0.89302541115413
H            6.95330904402575       -0.11995673952014       -0.00335549850369
H            6.98686480837593       -2.72131265289017       -0.33824135988110
H            8.84115902306308       -4.54487881833221       -0.43023692699286
H           14.21923941719456       -4.49106476565021        0.23652105087851
H           16.05079295440607       -2.63659557379997        0.34871111101475
H           15.72466831255636        2.59131713481219       -0.87578359691638
H           13.77757942897124        4.45703297731160       -0.79761694332625
H           10.08250021035538        5.37394254252005       -1.45414722156496
H           10.14528818088817        7.82475285708504       -1.19139024579202
H           11.38499480315360        8.84569834620791        0.69063526021934
H           12.56213447594195        7.40059493670207        2.31798693758116
H           12.50423306104899        4.94755793885299        2.07072104697873
H            8.56602835336517        4.44793896322986        0.71640808442702
H            6.83549686801189        2.48686055572856        0.61155104864043
H           11.31741130253110       -4.96744227508179       -2.40233892815807
H           11.38302085292590       -7.43141117620972       -2.55137126164035
H           11.63124072035106       -8.79438792153624       -0.50062180188504
H           11.81059799556405       -7.68584054884694        1.70496511712256
H           11.74514658259740       -5.22221769429790        1.86332115482152
Cu          30.15586690871118       -0.03010919891493        0.00177588777003
C           33.51070855466833        0.07005882832058        0.00087491336968
C           32.84008144456906        1.26695405988395       -0.08026738559302
C           33.49715447193303        2.55172415254329       -0.17269538286080
C           32.53400463253978        3.49327356833168       -0.18134785361303
C           31.25599513847070        2.81019873891745       -0.09235425108094
N           31.47696810464778        1.44913874450748       -0.03168516163235
C           30.02902838055447        3.44234678270713       -0.01540789024184
C           28.78634997583491        2.77285944311336        0.10169751396850
C           27.51072249551656        3.42359549975421        0.30979536005541
C           26.56159768698492        2.45763292769230        0.32917164242396
N           28.60750216421500        1.44715406280504        0.00438483096679
C           27.24933362474487        1.21028588615720        0.12789431134745
C           26.66089890776114       -0.03428740563730       -0.01187671324359
C           27.41255678568042       -1.24450655562627       -0.21447184725847
C           26.85219382032901       -2.43281076651498       -0.68681535083135
C           27.84850665447102       -3.39195195460140       -0.68372416595590
C           29.01760457998751       -2.78763532269102       -0.20934926953795
C           30.25351579457226       -3.49208338447837       -0.01172734224781
C           30.24658692922414       -4.98666773804279        0.06815371405018
C           30.92468140105612       -5.77728644398751       -0.86947784316566
C           30.88932543091669       -7.16456316861369       -0.78538106531291
C           30.19229237494730       -7.78555543792048        0.24278917766836
C           29.53225909188831       -7.01332954267726        1.18945735672057
C           29.55856652147780       -5.62702121486481        1.10407356524870
C           31.45803171378727       -2.84231231063576        0.11030517554422
C           32.75295330919754       -3.43387337389850        0.35420640874235
C           33.65173177496730       -2.42106198252643        0.34617913016337
C           32.92238079493883       -1.20065481899417        0.10310682337930
N           31.61482234877792       -1.46325591039994       -0.02718291486767
N           28.76146764012813       -1.44371501816213        0.05034129155094
C           30.01118246481080        4.93325881565200       -0.04443239485202
C           30.12263664512162        5.61862439570353       -1.25582969270923
C           30.08600859072008        7.00641659725306       -1.28005890753383
C           29.94595889834653        7.72124782343181       -0.09773324020094
C           29.84492809239218        7.04584893259226        1.11133987035632
C           29.87803282850363        5.65850153487868        1.13996402824661
H           34.59421176266554        0.11798038111547        0.00179325243510
H           34.56116226424110        2.73140326911111       -0.21971313051428
H           32.70695177326149        4.55767143135367       -0.23246832381029
H           27.32778097953411        4.47594664105360        0.43122089381197
H           25.49942244060568        2.61550306234157        0.46258054175128
H           25.82497543548239       -2.55125202797258       -0.98679294729382
H           27.76940765576285       -4.42081988546254       -0.99028297895559
H           31.46498135081412       -5.30792137632380       -1.68621203718597
H           31.40213862832742       -7.76789535517671       -1.53016254995937
H           30.16237606682214       -8.86947813339884        0.30585264801059
H           28.98520340073896       -7.49638399649753        1.99443928395258
H           29.04327750830921       -5.03487332956946        1.85381259753307
H           32.98178038903896       -4.47704785137096        0.52252516019253
H           34.71226299396577       -2.51306613963489        0.50286104240599
H           30.23009208420727        5.06537733560351       -2.18443041272512
H           30.16432109232916        7.53365268508248       -2.22650868374795
H           29.91614059205632        8.80614284716614       -0.11831644687849
H           29.73671264017245        7.60294547233286        2.03717913644814
H           29.80238645189453        5.13463622304770        2.08819754222163
C           16.36055813665702        0.04610759487685       -0.00142035641692
C           17.55294419056704        0.00322160471906       -0.00780243077462
C           18.88825203051647       -0.02503186657923       -0.00646797477765
C           20.12162111905261       -0.03956778406171       -0.01336484236272
C           21.44809689046033       -0.02851104719089       -0.01462669318580
C           22.69716490007120       -0.00652475472024       -0.02331456718151
C           24.02257449690946       -0.00949479332250       -0.01169380061164
C           25.26193151930414       -0.03780826142825        0.00607295724248
120
 energy: -206.999797340573 gnorm: 0.074664904164 xtb: 6.5.1 (b24c23e)
Cu          11.40573581281143        0.01866417739441        0.00591636698889
C            8.03612248701525       -0.06481121518887        0.00098887369503
C            8.70610423312070       -1.26858418851741       -0.13450942437436
C            8.05163843237618       -2.54212206562156       -0.28378900960299
C            9.02159259689452       -3.48523283982743       -0.33468569423093
C           10.28765049932050       -2.80404318111262       -0.21478687138085
N           10.05689186663069       -1.46060112875955       -0.09380791380882
C           11.52634815469842       -3.43616655378557       -0.16241446217995
C           12.75480529245451       -2.78559913155237       -0.01536192460773
C           14.02337130500108       -3.43952079573505        0.15416092837693
C           14.96923100264889       -2.46182984972196        0.21761779393073
N           12.94298646815898       -1.44137856689839       -0.04465915440416
C           14.28433359487555       -1.20908355083437        0.08004177629104
C           14.89311746591007        0.05409648161949       -0.01194949072167
C           14.13690182062347        1.26100245288895       -0.15751385345451
C           14.70836211042094        2.48761825894076       -0.56904506420940
C           13.72666056020293        3.43326075737738       -0.52085167462175
C           12.54107272534416        2.79338260811949       -0.08112515836396
C           11.31491531825617        3.46986832413453        0.13854647303614
C           11.32279186588913        4.96161383789410        0.27304330824265