456
 energy: -805.625370794197 gnorm: 0.000862385282 xtb: 6.5.1 (b24c23e)
C           78.34832126117624        0.07107465447577       -0.05883184861067
C           78.96006275545793        1.31717587635386       -0.10273928555341
C           78.31074848868325        2.58361644025363       -0.11813205628048
C           79.27458532340542        3.55061406585964       -0.17045759372737
C           80.54403200677451        2.90531546606216       -0.20094439123828
N           80.30360943586723        1.56199544616591       -0.14750313186388
C           81.80913004319551        3.50172190695976       -0.25522095577678
C           81.84636089726122        4.98180552846341       -0.32762003736632
C           82.47783753671808        5.72197591292165        0.67496216642762
C           82.51228283390671        7.10343353712071        0.61595243872955
C           81.91660146456047        7.77420941042010       -0.45641337125875
C           81.95186530051625        9.19578026608882       -0.52189689015295
N           81.97997010904037       10.34499337064385       -0.57435287017241
C           81.28602819419133        7.03830306204117       -1.46400649967129
C           81.25052546599726        5.65705740532245       -1.39543794860459
C           83.02289633766684        2.80970747705417       -0.24718412817293
C           84.32084354194733        3.44730862017653       -0.37921214336540
C           85.23838139878642        2.45972687825217       -0.32911482726966
N           83.17335170858304        1.46105445266018       -0.14011834956104
C           84.49964586993656        1.22141860181686       -0.17420867490115
C           85.13358013852428       -0.03268005323262       -0.06178019421252
C           84.49538803568544       -1.28183699573883        0.05818036932341
C           85.13775632426911       -2.53947440030630        0.20720579656141
C           84.16948008992581       -3.50261206541094        0.27266233159887
C           82.90490674966949       -2.86173600140265        0.15477114908248
N           83.15375179569584       -1.51986800013456        0.03844268746359
C           81.64110099193906       -3.46173403290424        0.17542802892377
C           81.60552529276195       -4.93924327791841        0.27950745507214
C           80.97065813850591       -5.55768898524090        1.35953450577861
C           80.93950616596918       -6.93656442320712        1.46381480657072
C           81.54168567250105       -7.72783565580631        0.48095281267789
C           81.51055752327200       -9.14723575944403        0.58397579374699
N           81.48631785515933      -10.29471457268803        0.66726493996199
C           82.17522233656072       -7.11438237296755       -0.60389624940154
C           82.20742755961194       -5.73475400821364       -0.69868537054099
C           80.42606311335378       -2.77132431939451        0.10489151336872
C           79.12056187117408       -3.41235470706113        0.06497538081661
C           78.21001527918892       -2.42047426008525        0.00000136767866
C           78.95803465488132       -1.17544816339279       -0.01053977667432
N           80.28945507313092       -1.42596163185839        0.04285722319193
H           77.26304836099219        0.08262451977849       -0.06130233288527
H           77.24203032593076        2.72309415618270       -0.08562390763722
H           79.12526424252823        4.61809576028083       -0.17862394283323
H           81.02781057411877        0.85156655993598       -0.13788039650495
H           82.93020055135112        5.20590227113707        1.51420846076813
H           82.99917703778054        7.67066786956922        1.40055609851480
H           80.82744467168021        7.55452290340120       -2.29928210752679
H           80.77318301992793        5.09013941284808       -2.18681980139677
H           84.48538193630350        4.50464858105416       -0.50900509955083
H           86.31191351712727        2.53461378664208       -0.39545028752096
H           86.20526695464531       -2.67885368328676        0.26298851109621
H           84.31548820228419       -4.56255776713463        0.40188017384277
H           82.43250518062619       -0.81081980401792       -0.04367136085832
H           80.51462491448675       -4.94761820227042        2.13098504744685
H           80.45067435391155       -7.40844805498635        2.30808791357702
H           82.63904066071881       -7.72435282882312       -1.37023736624297
H           82.68737364167218       -5.26395338159273       -1.54929948660046
H           78.94963782020513       -4.47679637740340        0.07115526956106
H           77.13473264292884       -2.49251969506145       -0.04593790956851
C          196.57537405740939       -0.12554032873062       -0.06195432219679
C          195.96706875461555       -1.32915866351697        0.26992751171471
C          196.62011960648616       -2.54564052594905        0.61546717319165
C          195.65863032411463       -3.48351902859092        0.86596976267826
C          194.38682509580173       -2.87295740330725        0.66981233998428
N          194.62376470695483       -1.57376501814745        0.32188361694795
C          193.12296472686396       -3.45594959735098        0.81744562269468
C          193.08932811562971       -4.89177701783196        1.18455044724685
C          192.48139128700853       -5.30309580893531        2.37319348390096
C          192.44914372620153       -6.64108530372934        2.72232565420413
C          193.02333451781379       -7.59895574115104        1.88119096755086
C          192.98962485011216       -8.97725268813391        2.23554392153028
N          192.96328654849808      -10.09146493310559        2.52200575125626
C          193.63072722207494       -7.19305680509644        0.68923919721126
C          193.66428092416928       -5.85249509756606        0.34931383968306
C          191.90722458975657       -2.79023108030547        0.64227416102417
C          190.60939944886141       -3.43556201303117        0.73056231189731
C          189.68957488237717       -2.47709450012012        0.49639871161101
N          191.75403248946256       -1.47129226974818        0.34209791217194
C          190.42666482372729       -1.25102040453025        0.25826427276209
C          189.79010744352306       -0.02234839688036       -0.01127052278222
C          190.42550683989211        1.20433413386316       -0.28248023078742
C          189.78071857998279        2.44869833502841       -0.51120774698120
C          190.74689813877526        3.38867205187476       -0.74020695571375
C          192.01250683657159        2.74288745596325       -0.66933566878441
N          191.76637040587701        1.42670578148500       -0.38073046380161
C          193.27505991299319        3.32291348503018       -0.83388882941102
C          193.30882716731443        4.76662312001336       -1.16527091648663
C          193.94888650332067        5.67204738665901       -0.31521491751108
C          193.97897141238204        7.02166901693026       -0.61637932039898
C          193.37045129838677        7.49329113795319       -1.78345930576236
C          193.40037578857479        8.88134386766812       -2.09764702569970
N          193.42408748278169       10.00384903883246       -2.34993752654248
C          192.73190484073021        6.59121542457210       -2.63964065194613
C          192.70082714519646        5.24358399369203       -2.32916581077124
C          194.49126310016715        2.64217064128687       -0.70929227275098
C          195.79453770978341        3.24336608666566       -0.94824532924413
C          196.70704607961414        2.27502544122183       -0.73227936157134
C          195.96247587829413        1.08138421058861       -0.37100486959910
N          194.63098540398911        1.33725963185404       -0.37746178493804
H          197.66053728399103       -0.13858205060452       -0.07691537665644
H          197.68968512030781       -2.67154141192429        0.66887243310656
H          195.81109791812020       -4.50674982374368        1.16868931346052
H          193.89756203599148       -0.89047467411861        0.13471947910068
H          192.04558396188881       -4.56201399207305        3.03362052967078
H          191.98039646467618       -6.95164799947562        3.64874067677219
H          194.07266433987240       -7.93314038684435        0.03240291690665
H          194.12336449388201       -5.54410403328187       -0.58325137381775
H          190.44614365341104       -4.48253597714501        0.92819704925683
H          188.61536911606871       -2.56668887373251        0.47379326895875
H          188.71315531852511        2.59739797882738       -0.49307732887483
H          190.59882467951982        4.43899842069637       -0.93095400672222
H          192.48899415859165        0.72595797005851       -0.25239083988589
H          194.41005206408767        5.31225865890737        0.59757562750209
H          194.47193152481023        7.71835175672867        0.05149610376182
H          192.26334472555436        6.95227308912153       -3.54768753367373
H          192.21704959956884        4.54607699073902       -3.00368042632234
H          195.96267817264152        4.26343663761965       -1.25404501191260
H          197.78154671452256        2.33003469070245       -0.80945305380384
C           86.53875344413173       -0.05296241776111       -0.06658573399412
C           87.76323290683321       -0.07219087544058       -0.06669292590685
C           89.10531613368714       -0.08852164414875       -0.07068003898959
C           90.33600769029995       -0.10261428923734       -0.07461322679912
C           91.67330764367655       -0.11280327531438       -0.07549133169005
C           92.90415828449262       -0.11670490349573       -0.07215434567019
C           94.24607308571889       -0.11553345975530       -0.06829080551163
C           95.47093794016776       -0.11143712711585       -0.06238341929819
C          105.12607876368295        0.10266432167579        0.09636580536539
C          106.35074635800703        0.12740402173008        0.11805869780599
C          107.69170226091899        0.14877123169737        0.13203255576768
C          108.92277520642799        0.15928847652426        0.13962328712443
C          110.25930560931612        0.16142007636413        0.13961549181224
C          111.49042894437468        0.15469993925774        0.13235794253325
C          112.83140029725813        0.13824691066865        0.11423541939493
C          114.05608087686232        0.11167060299172        0.09482714763363
C          123.70215123479514       -0.19703938052637       -0.17994268691521
C          124.92698494525733       -0.21721821615835       -0.19553031334104
C          126.26794178658650       -0.22904542463071       -0.20901932644448
C          127.49903824631640       -0.23254279398039       -0.21231088973696
C          128.83545211236222       -0.22906002056331       -0.20927493381822
C          130.06651675682954       -0.21849185819808       -0.20015973199781
C          131.40745533884842       -0.20251045696901       -0.18587531462774
C          132.63226878956766       -0.18451779779361       -0.16661860662397
C          142.28452753157060       -0.17610739904123       -0.16338676056955
C          143.50937945894876       -0.19412040524294       -0.17889010011141
C          144.85034471750802       -0.20658395027786       -0.19369285737759
C          146.08141650436369       -0.21350713418697       -0.20456418860675
C          147.41785928388910       -0.21494233540836       -0.20848157949737
C          148.64902576151977       -0.21105247576921       -0.20547865246274
C          149.99004483643768       -0.19617932609569       -0.19694462377469
C          151.21492995728966       -0.18013633466439       -0.18006400133166
C          160.86337325158627        0.08450545230492        0.07842227183806
C          162.08816028058638        0.10273640672917        0.10033888750601
C          163.42919240445704        0.11849727743746        0.11519852573868
C          164.66032185242818        0.12428265461149        0.12305309436849
C          165.99687843767700        0.12679955108647        0.12219117358178
C          167.22802059655095        0.11918786271670        0.11675382229449
C          168.56913620259621        0.10829380063204        0.10254832095617
C          169.79401307639156        0.09038857368472        0.08661497773382
C          179.45235607624952        0.00784764265451       -0.02956139365843
C          180.67725694334158        0.00917160756418       -0.02679661202508
C          182.01913892298796        0.01288408484954       -0.02638374742997
C          183.25002389214731        0.01580063147930       -0.02396707795676
C          184.58733457173426        0.01503364085317       -0.02106527611607
C          185.81812206253323        0.01117362044853       -0.01687087820316
C          187.16026655420802        0.00430750212495       -0.01225701258495
C          188.38491322978612       -0.00635634613476       -0.00974214573654
C           96.87504092583163       -0.09431656211280       -0.05391985149842
C           97.49377914295746        0.82459949283915       -0.92370252075166
C           96.83566857461264        1.73647984372945       -1.78880391981427
C           97.79361609234233        2.42593924363712       -2.48077500209188
C           99.06520443461193        1.94828212544564       -2.06208298901830
N           98.83329884420870        0.98960619520486       -1.11278026407617
C          100.32181762845832        2.37742475427061       -2.50746656894132
C          100.32724548537027        3.40031271070279       -3.58111312283375
C           99.75008348298830        3.12593340943412       -4.82323092003006
C           99.75680230099103        4.07581414905504       -5.82883236458763
C          100.33832345358441        5.32752817525155       -5.60655156385185
C          100.34266733021246        6.30868091144177       -6.63800347789559
N          100.34986346606291        7.10282753637997       -7.47090044327427
C          100.91401969407593        5.60851865218479       -4.36387709676088
C          100.90919831136939        4.65164072665712       -3.36495939944735
C          101.55050697774990        1.92307213492809       -2.02597188664630
C          102.83527238329471        2.34962754681291       -2.55139431620870
C          103.77578968314523        1.70658673795427       -1.82918393080332
N          101.73171264440283        1.02160181361819       -1.02162577995312
C          103.06398364872994        0.88105594673903       -0.87340484886951
C          103.72333410222379        0.06603925719176        0.06913697503455
C          103.10238593143008       -0.79843852529604        0.99172187827358
C          103.75628180738430       -1.60317655645476        1.96014469496045
C          102.79905757386133       -2.31001586463179        2.63530604116705
C          101.53266620636046       -1.96266959348255        2.09099011983571
N          101.76608591622373       -1.03740081784869        1.10914561592689
C          100.27850887876828       -2.44778493469204        2.48160998388071
C          100.27300150704995       -3.48176699068819        3.54449212927781
C          100.91734940710651       -4.70530198902399        3.34685385573248
C          100.91246820298588       -5.67235895407703        4.33601128209234
C          100.26473147605320       -5.42904075080352        5.55077116357779
C          100.26098077431357       -6.42048844109225        6.57234719872447
N          100.25861175519231       -7.22153731603197        7.39846358724392
C           99.62100192463511       -4.20487588161528        5.75480068332178
C           99.62476549466662       -3.24484053737318        4.75897719393135
C           99.05165335780531       -2.03780768041882        1.95639554578924
C           97.77303507715959       -2.60584466298708        2.34497733112337
C           96.83162425154687       -1.94599426929230        1.63916423583873
C           97.53740718457314       -0.98611347284186        0.81345542382858
N           98.86789322374781       -1.07238425364320        1.01436313790231
H           95.76601284005363        1.84734800442619       -1.86323788064470
H           97.63496827977731        3.20407991394574       -3.20932119984424
H           99.56013041938266        0.48198010729317       -0.61952616221995
H           99.30972512819066        2.15185281211774       -5.00427212414363
H           99.31320559500934        3.85289575147040       -6.79213917559747
H          101.36226927959832        6.57912620762706       -4.18673418031628
H          101.34591694213992        4.87727513090554       -2.39872054658405
H          102.97684208978414        3.03578905187060       -3.37050307327686
H          104.84873848664120        1.76095055516345       -1.92019000468682
H          104.82245186869294       -1.62822147393588        2.11721815179502
H          102.95449310616307       -3.00327797430040        3.44565738965264
H          101.04190724832483       -0.59334898870347        0.55449818726008
H          101.40956564486036       -4.90339309464305        2.40133421833052
H          101.40889850686888       -6.62170761016101        4.17253711392138
H           99.12093571981008       -4.01139639050383        6.69654760186087
H           99.13502796960222       -2.29209874262524        4.92538133555628
H           97.63668221160461       -3.40876448535848        3.05104934940013
H           95.76218973117375       -2.08250919896323        1.65058855741256
C          115.45862978529630        0.07365429798106        0.06043624849564
C          116.08587338709120        0.95468200454441       -0.84223444883472
C          115.43900812614713        1.90049169919671       -1.67876577040922
C          116.40063828272071        2.54119449185098       -2.41144030147830
C          117.66235104513544        1.99567676350042       -2.04995866150625
N          117.42238406130970        1.04951926373927       -1.08991231517235
C          118.91897824595340        2.35296236338745       -2.55460100212590
C          118.93489036019544        3.38317469333813       -3.62095890522798
C          118.27993779568888        3.15992913359375       -4.83436247598580
C          118.29645465168008        4.11915865268365       -5.83104023148243
C          118.96699742251492        5.32899117660817       -5.62843044119864
C          118.98321926558280        6.31971537213982       -6.65059716785696
N          118.99589315754527        7.12064594167940       -7.47672511025879
C          119.62157330767268        5.55860614102488       -4.41459492927865
C          119.60588330643377        4.59261131705443       -3.42472274122927
C          120.14007113428750        1.82137183739954       -2.13671816914117
C          121.41988612413034        2.16751032915572       -2.72891889395523
C          122.35455616368058        1.46541202891837       -2.05573961453878
N          120.31631243210012        0.90807812426140       -1.14222447872873
C          121.64324416119243        0.68538157369351       -1.06220215309836
C          122.29951156264239       -0.16385481325921       -0.14809946906235
C          121.67644049133106       -0.98572825225629        0.81124636664121
C          122.33049811033980       -1.82228548014033        1.75219117505803
C          121.36915190208238       -2.45996054379874        2.48773983454167
C          120.09936631554528       -2.03657718205595        2.00948613553305
N          120.33622986791985       -1.13898771939703        1.00314245003341
C          118.84018545519552       -2.43252816506207        2.47704615130572
C          118.82642804004362       -3.44615291508532        3.55938263087342
C          119.37436354299369       -4.71409589214031        3.35165828328815
C          119.36145459270934       -5.66113871916175        4.35997218524719
C          118.80309643071155       -5.35279864302586        5.60397148972542
C          118.79216307362022       -6.32348872048840        6.64526455109581
N          118.78400241198946       -7.10785327197292        7.48718984396882
C          118.25587582266810       -4.08418049646341        5.81783333336378
C          118.26647742271805       -3.14431532295826        4.80301173779074
C          117.61538236994696       -1.95305767819903        2.00983454149251
C          116.32661472344905       -2.43620251753776        2.47236785901487
C          115.39169698194952       -1.73756478608168        1.79594493447774
C          116.11079674312310       -0.83602207189395        0.91744090893855
N          117.44198912805220       -0.99481068179760        1.05817303955492
H          114.37445320318477        2.06784565467564       -1.70563454967809
H          116.25099304780940        3.32873768058637       -3.13172323129587
H          118.14275578247688        0.50333852770759       -0.62941623400774
H          117.77045056195156        2.21755161356694       -5.00124020622370
H          117.79167314191817        3.93577927259693       -6.77230987182936
H          120.13960221745435        6.49659110498761       -4.25269255524013
H          120.10446382548777        4.77889773487896       -2.48027728089564
H          121.56118721769785        2.84425248029635       -3.55586981627099
H          123.42251746697274        1.45194080619897       -2.20310208441979
H          123.39997081370032       -1.91456833852650        1.85076652109786
H          121.52479095608628       -3.15456367867237        3.29689675277761
H          119.61186167875729       -0.65360619890885        0.48449578822179
H          119.79661157415030       -4.96186896809929        2.38428131256958
H          119.78240082233476       -6.64500842247323        4.18901541701699
H          117.82526448331082       -3.84050565640715        6.78197819375232
H          117.85189692025084       -2.15769006604367        4.97607777181244
H          116.17886378559261       -3.21496674835882        3.20278296719221
H          114.31802453710982       -1.81082075776827        1.86138574004128
C          134.03539331854483       -0.16300920962644       -0.14866067161139
C          134.65745278469049        0.74756138046153       -1.02521374575455
C          134.00229445727507        1.67261781406548       -1.87836840378162
C          134.96247897905039        2.36768118394055       -2.56167684087479
C          136.23220968659723        1.87532228049479       -2.15472002666419
N          135.99703344649245        0.90579622537706       -1.21697031508740
C          137.49100295180986        2.29245760748470       -2.60460952551527
C          137.50637436251412        3.34862360264265       -3.64526181159643
C          136.90571727606434        3.13466103361627       -4.88797074211203
C          136.92041436405142        4.12201711272487       -5.85692026737253
C          137.53434185281435        5.35069830970227       -5.59657600133643
C          137.54718667458405        6.37083675107548       -6.58944262296392
N          137.55641653962476        7.19576631966056       -7.39166994807247
C          138.13587203462765        5.57032526915362       -4.35377845529919
C          138.12271396087161        4.57646572329029       -3.39194606488876
C          138.71607700167172        1.79533960161686       -2.15665611322121
C          139.99971545238211        2.18748899784465       -2.71058257328362
C          140.93666691465080        1.49518563777410       -2.03047141859556
N          138.89344192002531        0.87102796303774       -1.17281830926619
C          140.22371994452178        0.68124648487720       -1.06566255065154
C          140.88135456873326       -0.15871430075017       -0.14416697730695
C          140.25921367687005       -0.98207382944105        0.81472250199546
C          140.91418050739978       -1.77980685028818        1.78811541545265
C          139.95390224492849       -2.42312968560532        2.52023510936245
C          138.68431825574257       -2.04666603758262        2.00382296364116
N          138.91964745332135       -1.16601422160533        0.98217992200022
C          137.42551776409405       -2.47315656694696        2.44482653527669
C          137.40988275967607       -3.45101303781161        3.55941573729842
C          138.01111143234399       -4.70377275685718        3.41806290678822
C          137.99601995694528       -5.61402994613529        4.45978013611832
C          137.38120125674362       -5.28327802993028        5.67095275016446
C          137.36904767682927       -6.21496695993800        6.74726997580520
N          137.35770583490674       -6.96910547266421        7.61638341637622
C          136.77902274729547       -4.03012143470999        5.81791527963561
C          136.79251682054638       -3.12737803530430        4.77009692687061
C          136.20053655649289       -2.05617673103704        1.92126110036345
C          134.91705071556819       -2.58793707977771        2.34346540955198
C          133.98016773125207       -1.95031805007741        1.61175317977206
C          134.69300999739033       -1.03350565011381        0.74402287315007
N          136.02317497200499       -1.12784999635657        0.94122196003992
H          132.93312245551658        1.79107474905647       -1.94796488252418
H          134.80589884550608        3.15746514545540       -3.27799991155288
H          136.72262219969130        0.38828111703018       -0.73215576816073
H          136.44069799081879        2.17838364970268       -5.09954292192475
H          136.45777406917071        3.94628612810449       -6.82102667116915
H          138.61048824199250        6.52244260822380       -4.14739386758819
H          138.57995468199152        4.75414657666562       -2.42517267610276
H          140.14170589233231        2.88395020548651       -3.52089839012009
H          142.00771569440963        1.51227763556244       -2.15289081548114
H          141.98328737175328       -1.84120526035235        1.91160695721477
H          140.11027536290041       -3.09270932241374        3.35006097269799
H          138.19415330573625       -0.71267556196122        0.43675536833727
H          138.47697311487954       -4.97004725662742        2.47596860848804
H          138.45917254223863       -6.58648216416678        4.34043207179631
H          136.30375449480078       -3.76917882551318        6.75621931636879
H          136.33478637722783       -2.15213616620722        4.89124530664332
H          134.77514797698947       -3.35656275055361        3.08570021121873
H          132.90923487692677       -2.07280984602779        1.63467553825340
C          152.61769599277551       -0.14875680677884       -0.15199524326401
C          153.24034814414651        0.76004760263843       -1.02972299314182
C          152.58579745187731        1.65321341554945       -1.91672988225719
C          153.54680732554729        2.34835572563322       -2.59870109819838
C          154.81684040274669        1.89160310301873       -2.15288524698365
N          154.58051112103445        0.93922588661422       -1.19809561365655
C          156.07581911239919        2.33174729570406       -2.57974299871392
C          156.08858874067030        3.35389058987827       -3.65404678031462
C          155.53450893983901        3.07531918535919       -4.90563626412993
C          155.54618939861919        4.02743817372077       -5.90916796028967
C          156.10957601624801        5.28531846587035       -5.67528256421937
C          156.11922563990333        6.26908062404975       -6.70424622089610
N          156.12643380658994        7.06448457853507       -7.53575962648303
C          156.66309784610431        5.57001077743406       -4.42342682721420
C          156.65361295301000        4.61099329152550       -3.42667224065563
C          157.30120395992907        1.88895333412113       -2.07903838547983
C          158.58932662615078        2.31880672774394       -2.59312429564511
C          159.52513850132445        1.68049825309431       -1.86064161649228
N          157.47576848966619        0.99325173949127       -1.06849250380427
C          158.80719929368527        0.85745320934167       -0.90733875624002
C          159.46058959807121        0.05196259084276        0.04739844614141
C          158.83414467688976       -0.79603913698728        0.98172253359872
C          159.48221467075825       -1.57842646537260        1.97200249428039
C          158.52084824307346       -2.26891913880971        2.65832088200435
C          157.25801944459539       -1.93514561891330        2.09791949905891
N          157.49720142721091       -1.03281864992292        1.09637397759565
C          156.00125358755847       -2.41343839083501        2.48932742606080
C          155.98626451081719       -3.41757699643703        3.58030376587844
C          156.63592152281063       -4.64443514347148        3.42569145378433
C          156.62035668433452       -5.58310218401333        4.44177283705760
C          155.95613423530386       -5.30739418221418        5.64059173896939
C          155.94100554948776       -6.26963159471091        6.68963602159605
N          155.92932945571172       -7.04733823093151        7.53767758578178
C          155.30681024302413       -4.07976558464638        5.80149625872721
C          155.32148030232372       -3.14829013042235        4.77905679238316
C          154.77923614541055       -2.02329817068259        1.93910236916375
C          153.49913210715809       -2.59025189600177        2.32426835280392
C          152.56363247478575       -1.95696643071125        1.58704100034435
C          153.27464990508295       -1.01313276929557        0.74729956002415
N          154.60219377504285       -1.08365361201261        0.96962817268663
H          151.51626459713304        1.74931508350052       -2.01092226605317
H          153.39078886541321        3.11680427439086       -3.33800746129074
H          155.30520087672670        0.44717565554042       -0.68622813606129