208
 energy: -332.876476486589 gnorm: 0.000591926639 xtb: 6.5.1 (b24c23e)
C           33.56009643254576        0.51632282410501        0.04062831824259
C           34.15821134067426        0.58261156042298       -1.21150026463539
C           33.49353002388527        0.70719403935248       -2.46313840547600
C           34.44186426401816        0.68762084538371       -3.44758596911596
C           35.71765946786407        0.56399264187016       -2.82820750047111
N           35.49530624232380        0.50242933163356       -1.48126517811957
C           36.96917035421128        0.48385629347621       -3.45170738625847
C           36.98631379463191        0.58253504631490       -4.92978160742632
C           37.50631124398271       -0.45473939917648       -5.70630802265245
C           37.51720742090386       -0.37899815212329       -7.08856718714690
C           37.00490159627238        0.75039217343048       -7.73361132445368
N           37.04113451841790        0.90440101681340       -9.11173033492347
C           37.09211225883620       -0.27307036105040       -9.96794207014793
C           36.49506656351809        1.79958282370413       -6.95894559989119
C           36.48091603938194        1.71200926838652       -5.57966562014229
C           38.18462146784620        0.32121733713809       -2.78135328849343
C           39.47877092354178        0.33506424844346       -3.43840805070600
C           40.40344722250784        0.18722332109774       -2.46672728497932
N           38.34589987942981        0.17418053706788       -1.43680427965211
C           39.67342519562785        0.08669515001890       -1.21833931823683
C           40.31754194733363       -0.06169657483501        0.02730850646787
C           39.69113362325501       -0.14730766249377        1.28591937586949
C           40.34642312230985       -0.27624436811879        2.53839698473508
C           39.38846719810532       -0.30928949889140        3.51443087705171
C           38.11722825688975       -0.20740354754927        2.88575738383290
N           38.35264389539957       -0.10893112698289        1.53936866203030
C           36.86343115922882       -0.16886339040551        3.50762037198050
C           36.84172335401583       -0.33400477401698        4.97866688298188
C           36.29613292392764        0.65284176243804        5.80209197883968
C           36.27712912766867        0.50751077026441        7.17870911069571
C           36.80770608732163       -0.64235711414262        7.77069339675518
N           36.76517567095736       -0.86543172636799        9.13887081880070
C           36.67841569102814        0.26657580202021       10.05161588615476
C           37.34495782263393       -1.64079663036222        6.94877103058338
C           37.36666775820359       -1.48389837998394        5.57600612870579
C           35.64871438734664        0.01713069672726        2.83744900376564
C           34.34603233899411       -0.00051940005717        3.48407234362728
C           33.43351576480759        0.20463656050714        2.51252918106735
C           34.17601386351481        0.33082590064276        1.27134408451424
N           35.50615913749372        0.21005018984795        1.50466290578058
H           32.47749902315181        0.59596339244423        0.04540065950604
H           32.42478870847776        0.78846252149295       -2.58268747649420
H           34.27484793440389        0.74052611772755       -4.51123324728803
H           36.22661971834834        0.39347410704465       -0.78652168711935
H           37.88983545057496       -1.34414482711578       -5.21817440850403
H           37.92606994041606       -1.20321102617232       -7.66007882722622
H           36.37935201950586        1.59486132223991       -9.44547918514428
H           36.29408941411751       -0.98390176475187       -9.72427180785135
H           36.97801069024287        0.05660158790542      -11.00063409109895
H           38.05818662713199       -0.76885554966087       -9.86486076781191
H           36.11051959357464        2.68724968630021       -7.45024969927101
H           36.09395002262974        2.53842603030106       -4.99337240230320
H           39.63870391068775        0.46505471782638       -4.49650224889022
H           41.47730924832010        0.15425580040234       -2.55913423860080
H           41.41550436293828       -0.32928940687920        2.66751894822280
H           39.54750654702551       -0.38053193318415        4.57807476268669
H           37.62542652427456       -0.00452630143365        0.83939851728868
H           35.90024125061749        1.55909337609486        5.35670863313015
H           35.84793755042551        1.29388789489512        7.78739254911120
H           37.43981503861249       -1.55646507851353        9.44412793911954
H           35.69799680186853        0.73767323653551        9.97061451957005
H           37.45486962094032        1.01187739283091        9.84452799540004
H           36.80168567219495       -0.10954935593509       11.06718140845063
H           37.74456063808282       -2.54382819508573        7.39827841018947
H           37.77507991047428       -2.27147746243870        4.95202860283638
H           34.17489934509959       -0.16754310799381        4.53537024012925
H           32.35895567091937        0.25598333122364        2.59499622284599
C           67.14258301720324        0.40179956962006       -0.06326782972610
C           66.54466043581854        0.54546199063306        1.18246131210880
C           67.20964596814609        0.72779535099902        2.42677547687629
C           66.25946684847897        0.78322436568175        3.40812988289159
C           64.98264861842630        0.64872260098984        2.79333640799688
N           65.20580904421115        0.50586090961233        1.45282225082224
C           63.72909418316006        0.62686485136075        3.41764549152001
C           63.71159298691008        0.81442837008559        4.88708577276204
C           63.17509141291519       -0.16641341998930        5.72347754365115
C           63.16203557446851       -0.00671174881909        7.09846145769664
C           63.68862732715012        1.15260336541978        7.67542465202966
N           63.65093496524207        1.39026794096432        9.04151749910259
C           63.58326702007661        0.26741471849180        9.96708735319286
C           64.21537629043516        2.14538214285132        6.84015440694352
C           64.23185291995506        1.97384634546184        5.46875140156104
C           62.51226010286821        0.44226769732315        2.75589306713203
C           61.21776363685106        0.50931836305345        3.40902404523265
C           60.29243935246196        0.31235870568380        2.44681652836884
N           62.35045706937981        0.21759058989889        1.42202667133441
C           61.02243510603196        0.13017599189560        1.20759392074039
C           60.37733164179757       -0.08531033067302       -0.02772821375774
C           61.00272232526505       -0.24013304636780       -1.28021390961371
C           60.34595323089786       -0.42406789391563       -2.52507322037184
C           61.30325664550539       -0.51160769199596       -3.49831097525221
C           62.57559700002988       -0.39075476237871       -2.87512832205507
N           62.34135189177857       -0.22515919838171       -1.53506228335323
C           63.82959711995405       -0.39441168630672       -3.49751034399236
C           63.85003586081818       -0.62596528000163       -4.95953292096897
C           64.40769851833439        0.31686361678460       -5.82541245201750
C           64.42592643309544        0.11020663946245       -7.19412708164182
C           63.88269338439888       -1.05876053136909       -7.73502878370276
N           63.92393920059764       -1.34310431677322       -9.09197779529132
C           64.02044977193108       -0.25333256040770      -10.05379919490503
C           63.33350220071018       -2.01337096763016       -6.87015257803050
C           63.31243045782544       -1.79520461495528       -5.50573963430826
C           65.04675224259910       -0.19397334596535       -2.83569233842064
C           66.34901234067824       -0.26264170783155       -3.47952586251837
C           67.26472158590983       -0.02982505495142       -2.51724379371838
C           66.52406098889998        0.16711532664111       -1.28424440685787
N           65.19209493702037        0.05810108826209       -1.51313683132990
H           68.22649604030774        0.46058730026710       -0.07030922836341
H           68.27956823731810        0.79501040454730        2.54440613174789
H           66.42547120122417        0.89395259713307        4.46748432565945
H           64.47375763010774        0.37170224490148        0.76328868322975
H           62.78012138639155       -1.07827563423691        5.28887418130980
H           62.74001641865701       -0.78878793926086        7.71760150202718
H           64.32040483548242        2.09147234226845        9.33500518541986
H           64.37480558999947       -0.46502656458010        9.77102337924382
H           63.69595797444278        0.65763096215714       10.97858955289724
H           62.61253410932841       -0.22362278887490        9.88894815527106
H           64.61114931848937        3.05589087847520        7.27780528725642
H           64.63233094103424        2.75746212187081        4.83470008520508
H           61.05828425724918        0.70419015670596        4.45715941275994
H           59.21824050481268        0.29627178485110        2.53959245982981
H           59.27641572227044       -0.47366702857010       -2.65169904719589
H           61.14312857101999       -0.63251875563351       -4.55728119558975
H           63.06948664406354       -0.09335199213112       -0.84068954924564
H           64.81418387538831        1.23726388177905       -5.42034073066542
H           64.86460740574148        0.86369732458759       -7.83670063865075
H           63.24207802622465       -2.04020654879761       -9.36595780791871
H           65.00360833474927        0.21482945665217       -9.99080874626551
H           63.24811700736323        0.50525713507046       -9.88232445067986
H           63.89769112074765       -0.67332807180830      -11.05209317415185
H           62.92388811609477       -2.93093014018718       -7.27937846958142
H           62.89459110048227       -2.54953315533538       -4.84786086129405
H           66.51751145643509       -0.48006251333744       -4.52200627026585
H           68.34001218686279       -0.00099137139955       -2.60090632238962
C           42.94430442040635       -0.14560508449376        0.04029480943050
C           41.72204802930320       -0.11418994701435        0.03064086997576
C           44.29289047355386       -0.16861638980942        0.04192654049309
C           45.51566984615315       -0.17885837328012        0.04055887807748
C           56.40229487825919       -0.20433820648884       -0.02833153670940
C           55.17971141236436       -0.22612881142327       -0.01926959529811
C           57.75068563673498       -0.17305799081065       -0.03199573382794
C           58.97282991221989       -0.13627916691446       -0.02678344521880
C           46.92018258338037       -0.17702722118311        0.03332576487617
C           47.55322330990654       -0.13116825745028        1.29108518852922
C           46.90902882107086       -0.12356105635723        2.55445347091280
C           47.87814454734033       -0.08834315334017        3.52059575963869
C           49.14260034412478       -0.06413151233634        2.87315274267908
N           48.89517791313985       -0.09800341037847        1.52636588143406
C           50.40510968296498       -0.04097125211682        3.48086529025918
C           50.42470404150081        0.03895880286781        4.96051859295737
C           51.03520356345759       -0.96055641724359        5.72340194252828
C           51.04882759825893       -0.88726298706273        7.10326481473610
C           50.45701163469218        0.19610815329045        7.76445575196102
N           50.54801165835801        0.25676702316060        9.14717682192681
C           49.57516304079405        1.03762824937794        9.89952125155274
C           49.85763559954361        1.20559320850987        7.00583804391575
C           49.83707803716244        1.11742150309874        5.62428875574678
C           51.62663051989908       -0.08220196407064        2.80542352526441
C           52.91715359215827        0.01546292634389        3.46288670803100
C           53.84913135810999       -0.04754548155800        2.48906777794784
N           51.79607254101211       -0.18569225001869        1.45786751594088
C           53.12655951509250       -0.17214187774375        1.23923440046573
C           53.77529547745080       -0.24416951923521       -0.01027695196586
C           53.14265909144876       -0.30755510558153       -1.26750635643537
C           53.78757031587779       -0.32430544113334       -2.53048912244056
C           52.81887882862980       -0.34468592641420       -3.49729578039618
C           51.55371936361009       -0.35224136755478       -2.85072982944184
N           51.80058343239192       -0.32797140438159       -1.50357096773509
C           50.29137161426164       -0.34504166263257       -3.45869986066327
C           50.27019778012378       -0.38203786871194       -4.94020010829093
C           49.68772121388966        0.65734246484287       -5.66782082098215
C           49.66928595163839        0.63990136366085       -7.05189043335643
C           50.22317765514003       -0.43866733500577       -7.74744985798210
N           50.27315718180451       -0.48605038295432       -9.13292928646523
C           49.29624939348552        0.26138598249861       -9.91377651497869
C           50.81117870875505       -1.48232632308219       -7.02223195681949
C           50.83711548647157       -1.45022734542259       -5.64070220226736
C           49.07006342167871       -0.29928669807453       -2.78326327604590
C           47.77947048110097       -0.36650882130460       -3.44427587201848
C           46.84685285622087       -0.31645826786344       -2.47020238857434
C           47.56911197193688       -0.22735396254105       -1.21720085663887
N           48.89993900112039       -0.22362830568155       -1.43405003164506
H           45.84080499789255       -0.15026049985131        2.69785393138412
H           47.73050269722494       -0.09305345861129        4.58823121158630
H           49.61422110037346       -0.10595350348100        0.81063372995892
H           51.48266805479948       -1.81389292876481        5.22573969118330
H           51.51941113689463       -1.67369361858376        7.68395601652948
H           50.72452206458120       -0.64771257144662        9.56760240941017
H           48.54730895866088        0.76876506335513        9.63003083460941
H           49.73300976851173        0.84082964376685       10.95992904061278
H           49.72737740361058        2.10200397540962        9.71591104102857
H           49.40950857477505        2.06593789088945        7.48764278159917
H           49.37869215937872        1.91302472911936        5.04675343318456
H           53.06892836387438        0.13572475081675        4.52326659936402
H           54.92268458530392       -0.00434687415741        2.58071976087958
H           54.85607836086412       -0.31084656315489       -2.67342894214097
H           52.96775313443749       -0.33997042063894       -4.56469506041999
H           51.08130934072769       -0.30693127191565       -0.78834292705086
H           49.26227121732505        1.50355241431333       -5.13936173008796
H           49.22515779484791        1.47128231181170       -7.58540909567515
H           50.41145722911087       -1.42506267301800       -9.48678935285770
H           49.48141575428074        1.33206174954745       -9.81812494353714
H           49.41458709515854       -0.02070178490789      -10.95997352061918
H           48.27134544165373        0.04264764726232       -9.59293274072899
H           51.24658223577931       -2.32201654251470       -7.55377173120300
H           51.27965129063562       -2.27483858836206       -5.09243698692658
H           47.62808927635754       -0.45983471714151       -4.50750317204449
H           45.77300993775243       -0.34534829925989       -2.56422267139625
