      -----------------------------------------------------------      
     |                   =====================                   |     
     |                           x T B                           |     
     |                   =====================                   |     
     |                         S. Grimme                         |     
     |          Mulliken Center for Theoretical Chemistry        |     
     |                    University of Bonn                     |     
      -----------------------------------------------------------      

   * xtb version 6.5.1 (b24c23e) compiled by 'conda@728c89f4b128' on 2022-07-12

   xtb is free software: you can redistribute it and/or modify it under
   the terms of the GNU Lesser General Public License as published by
   the Free Software Foundation, either version 3 of the License, or
   (at your option) any later version.
   
   xtb is distributed in the hope that it will be useful,
   but WITHOUT ANY WARRANTY; without even the implied warranty of
   MERCHANTABILITY or FITNESS FOR A PARTICULAR PURPOSE.  See the
   GNU Lesser General Public License for more details.
   
   Cite this work as:
   * C. Bannwarth, E. Caldeweyher, S. Ehlert, A. Hansen, P. Pracht,
     J. Seibert, S. Spicher, S. Grimme, WIREs Comput. Mol. Sci., 2020, 11,
     e01493. DOI: 10.1002/wcms.1493
   
   for GFN2-xTB:
   * C. Bannwarth, S. Ehlert and S. Grimme., J. Chem. Theory Comput., 2019,
     15, 1652-1671. DOI: 10.1021/acs.jctc.8b01176
   for GFN1-xTB:
   * S. Grimme, C. Bannwarth, P. Shushkov, J. Chem. Theory Comput., 2017,
     13, 1989-2009. DOI: 10.1021/acs.jctc.7b00118
   for GFN0-xTB:
   * P. Pracht, E. Caldeweyher, S. Ehlert, S. Grimme, ChemRxiv, 2019, preprint.
     DOI: 10.26434/chemrxiv.8326202.v1
   for GFN-FF:
   * S. Spicher and S. Grimme, Angew. Chem. Int. Ed., 2020, 59, 15665-15673.
     DOI: 10.1002/anie.202004239
   
   for ALPB and GBSA implicit solvation:
   * S. Ehlert, M. Stahn, S. Spicher, S. Grimme, J. Chem. Theory Comput.,
     2021, 17, 4250-4261. DOI: 10.1021/acs.jctc.1c00471
   
   for DFT-D4:
   * E. Caldeweyher, C. Bannwarth and S. Grimme, J. Chem. Phys., 2017,
     147, 034112. DOI: 10.1063/1.4993215
   * E. Caldeweyher, S. Ehlert, A. Hansen, H. Neugebauer, S. Spicher,
     C. Bannwarth and S. Grimme, J. Chem. Phys., 2019, 150, 154122.
     DOI: 10.1063/1.5090222
   * E. Caldeweyher, J.-M. Mewes, S. Ehlert and S. Grimme, Phys. Chem. Chem. Phys.
     2020, 22, 8499-8512. DOI: 10.1039/D0CP00502A
   
   for sTDA-xTB:
   * S. Grimme and C. Bannwarth, J. Chem. Phys., 2016, 145, 054103.
     DOI: 10.1063/1.4959605
   
   in the mass-spec context:
   * V. Asgeirsson, C. Bauer and S. Grimme, Chem. Sci., 2017, 8, 4879.
     DOI: 10.1039/c7sc00601b
   * J. Koopman and S. Grimme, ACS Omega 2019, 4, 12, 15120-15133.
     DOI: 10.1021/acsomega.9b02011
   
   for metadynamics refer to:
   * S. Grimme, J. Chem. Theory Comput., 2019, 155, 2847-2862
     DOI: 10.1021/acs.jctc.9b00143
   
   for SPH calculations refer to:
   * S. Spicher and S. Grimme, J. Chem. Theory Comput., 2021, 17, 1701-1714
     DOI: 10.1021/acs.jctc.0c01306
   
   with help from (in alphabetical order)
   P. Atkinson, C. Bannwarth, F. Bohle, G. Brandenburg, E. Caldeweyher
   M. Checinski, S. Dohm, S. Ehlert, S. Ehrlich, I. Gerasimov, C. Hölzer
   A. Katbashev, J. Koopman, C. Lavigne, S. Lehtola, F. März, M. Müller,
   F. Musil, H. Neugebauer, J. Pisarek, C. Plett, P. Pracht, F. Pultar,
   J. Seibert, P. Shushkov, S. Spicher, M. Stahn, M. Steiner, T. Strunk,
   J. Stückrath, T. Rose, and J. Unsleber
   
 * started run on 2022/07/29 at 22:30:12.217     

           -------------------------------------------------
          |                Calculation Setup                |
           -------------------------------------------------

          program call               : xtb Fe_Ph3OH_C8_3.xyz --gfn 1 --opt -T 48
          hostname                   : cx3-15-15.cx3.hpc.ic.ac.uk
          coordinate file            : Fe_Ph3OH_C8_3.xyz
          omp threads                :                     1

   ID    Z sym.   atoms
    1   26 Fe     1, 63, 141
    2    6 C      2-6, 8-11, 13, 15, 17-20, 22-27, 29-32, 34, 36, 38-42,
                  64-68, 70-73, 75, 77, 79-82, 84-89, 91-94, 96, 98, 100-104,
                  125-140, 142-146, 148-151, 153, 155, 157-160, 162-167,
                  169-172, 174, 176, 178-182
    3    7 N      7, 21, 28, 43, 69, 83, 90, 105, 147, 161, 168, 183
    4    8 O      12, 14, 16, 33, 35, 37, 74, 76, 78, 95, 97, 99, 152, 154,
                  156, 173, 175, 177
    5    1 H      44-62, 106-124, 184-201

molecular fragmentation (1/2 indicates fragments):
111111111111111111111111111111111111111111111111111111111111112222222222
222222222222222222222222222222222222222222222222222222222222222222222222
222222222222222222222222222222222222222222222222222222222
# atoms in fragment 1/2:    62   139
 fragment masses (1/2) :      611.36     1413.89
CMA distance (Bohr)    :  52.613
constraining FC (au)   :  0.0500
########################################################################
[WARNING] Please study the warnings concerning your input carefully
-1- prog_main_parseArguments: Unknown option '-T' provided
########################################################################

           -------------------------------------------------
          |                 G F N 1 - x T B                 |
           -------------------------------------------------

        Reference                      10.1021/acs.jctc.7b00118
      * Hamiltonian:
        H0-scaling (s, p, d)           1.850000    2.250000    2.000000
        zeta-weighting                 0.000000
      * Dispersion:
        s8                             2.400000
        a1                             0.630000
        a2                             5.000000
        s9                             0.000000
      * Repulsion:
        kExp                           1.500000
        rExp                           1.000000
      * Coulomb:
        alpha                          2.000000
        third order                    atomic
        anisotropic                    false
      * Halogen bond correction:
        rad-scale                      1.300000
        damping                        0.440000


          ...................................................
          :                      SETUP                      :
          :.................................................:
          :  # basis functions                 710          :
          :  # atomic orbitals                 707          :
          :  # shells                          405          :
          :  # electrons                       696          :
          :  # halogen bonds                     0          :
          :  max. iterations                   250          :
          :  Hamiltonian                  GFN1-xTB          :
          :  restarted?                      false          :
          :  GBSA solvation                  false          :
          :  PC potential                    false          :
          :  electronic temp.          300.0000000     K    :
          :  accuracy                    1.0000000          :
          :  -> integral cutoff          0.2500000E+02      :
          :  -> integral neglect         0.1000000E-07      :
          :  -> SCF convergence          0.1000000E-05 Eh   :
          :  -> wf. convergence          0.2000000E-04 e    :
          :  Broyden damping             0.4000000          :
          ...................................................

 iter      E             dE          RMSdq      gap      omega  full diag
   1   -367.7293633 -0.367729E+03  0.119E+01    0.00       0.0  T
   2   -171.7079723  0.196021E+03  0.143E+01    0.04       1.0  T
   3    -80.0067829  0.917012E+02  0.113E+01    0.09       1.0  T
   4   1879.5566769  0.195956E+04  0.194E+01    0.01       1.0  T
   5   2779.8777290  0.900321E+03  0.213E+01    0.04       1.0  T
   6   2139.2406006 -0.640637E+03  0.197E+01    0.03       1.0  T
   7   -330.0415078 -0.246928E+04  0.799E+00    0.09       1.0  T
   8   -353.4411997 -0.233997E+02  0.677E+00    0.05       1.0  T
   9   -356.2148624 -0.277366E+01  0.656E+00    0.01       1.0  T
  10   -347.3976703  0.881719E+01  0.686E+00    0.10       1.0  T
  11   -378.3398687 -0.309422E+02  0.494E+00    0.03       1.0  T
  12   -353.9526613  0.243872E+02  0.605E+00    0.03       1.0  T
  13   -367.2475803 -0.132949E+02  0.528E+00    0.04       1.0  T
  14   -357.6105259  0.963705E+01  0.540E+00    0.14       1.0  T
  15   -356.6879276  0.922598E+00  0.538E+00    0.04       1.0  T
  16   -357.5525050 -0.864577E+00  0.534E+00    0.01       1.0  T
  17   -355.0950493  0.245746E+01  0.543E+00    0.18       1.0  T
  18   -345.3364896  0.975856E+01  0.557E+00    0.06       1.0  T
  19   -347.0993348 -0.176285E+01  0.547E+00    0.07       1.0  T
  20   -347.0053308  0.940039E-01  0.547E+00    0.08       1.0  T
  21   -348.9282694 -0.192294E+01  0.441E+00    0.05       1.0  T
  22   -353.0161160 -0.408785E+01  0.376E+00    0.03       1.0  T
  23   -355.0609111 -0.204480E+01  0.387E+00    0.01       1.0  T
  24   -359.8572745 -0.479636E+01  0.335E+00    0.01       1.0  T
  25   -361.5508388 -0.169356E+01  0.381E+00    0.03       1.0  T
  26   -367.6577635 -0.610692E+01  0.433E+00    0.00       1.0  T
  27   -387.0635212 -0.194058E+02  0.307E+00    0.13       1.0  T
  28   -380.5798426  0.648368E+01  0.460E+00    0.03       1.0  T
  29   -389.6028305 -0.902299E+01  0.324E+00    0.06       1.0  T
  30   -389.9843592 -0.381529E+00  0.326E+00    0.03       1.0  T
  31   -390.4081992 -0.423840E+00  0.318E+00    0.03       1.0  T
  32   -388.6789299  0.172927E+01  0.378E+00    0.03       1.0  T
  33   -392.5411253 -0.386220E+01  0.309E+00    0.04       1.0  T
  34   -391.9344255  0.606700E+00  0.323E+00    0.03       1.0  T
  35   -373.0308285  0.189036E+02  0.557E+00    0.01       1.0  T
  36   -394.7632162 -0.217324E+02  0.272E+00    0.01       1.0  T
  37   -397.9433431 -0.318013E+01  0.247E+00    0.02       1.0  T
  38   -397.6125468  0.330796E+00  0.250E+00    0.03       1.0  T
  39   -396.8569895  0.755557E+00  0.264E+00    0.05       1.0  T
  40   -397.5392379 -0.682248E+00  0.256E+00    0.02       1.0  T
  41   -397.1541449  0.385093E+00  0.263E+00    0.05       1.0  T
  42   -396.1487071  0.100544E+01  0.275E+00    0.09       1.0  T
  43   -398.2790183 -0.213031E+01  0.249E+00    0.02       1.0  T
  44   -397.9198541  0.359164E+00  0.250E+00    0.02       1.0  T
  45   -399.1610697 -0.124122E+01  0.234E+00    0.03       1.0  T
  46   -399.2542676 -0.931979E-01  0.231E+00    0.02       1.0  T
  47   -398.5114138  0.742854E+00  0.217E+00    0.01       1.0  T
  48   -399.9482500 -0.143684E+01  0.215E+00    0.08       1.0  T
  49   -400.0636246 -0.115375E+00  0.204E+00    0.03       1.0  T
  50   -400.2329199 -0.169295E+00  0.197E+00    0.01       1.0  T
  51   -400.3092804 -0.763605E-01  0.195E+00    0.01       1.0  T
  52   -400.0018588  0.307422E+00  0.206E+00    0.01       1.0  T
  53   -398.1228628  0.187900E+01  0.236E+00    0.02       1.0  T
  54   -399.4650744 -0.134221E+01  0.207E+00    0.02       1.0  T
  55   -401.1538374 -0.168876E+01  0.167E+00    0.01       1.0  T
  56   -400.2864493  0.867388E+00  0.186E+00    0.05       1.0  T
  57   -401.5217046 -0.123526E+01  0.151E+00    0.01       1.0  T
  58   -401.0071203  0.514584E+00  0.165E+00    0.03       1.0  T
  59   -401.2902027 -0.283082E+00  0.151E+00    0.05       1.0  T
  60   -401.8732975 -0.583095E+00  0.131E+00    0.01       1.0  T
  61   -400.9472654  0.926032E+00  0.161E+00    0.01       1.0  T
  62   -401.6282708 -0.681005E+00  0.137E+00    0.04       1.0  T
  63   -402.2277495 -0.599479E+00  0.114E+00    0.00       1.0  T
  64   -402.4987087 -0.270959E+00  0.101E+00    0.02       1.0  T
  65   -402.7801235 -0.281415E+00  0.813E-01    0.02       1.0  T
  66   -402.8906515 -0.110528E+00  0.697E-01    0.03       1.0  T
  67   -402.8751215  0.155300E-01  0.716E-01    0.03       1.0  T
  68   -401.0311410  0.184398E+01  0.145E+00    0.04       1.0  T
  69   -402.2926934 -0.126155E+01  0.101E+00    0.01       1.0  T
  70   -402.7511682 -0.458475E+00  0.776E-01    0.00       1.0  T
  71   -402.2830826  0.468086E+00  0.101E+00    0.04       1.0  T
  72   -403.3192900 -0.103621E+01  0.255E-01    0.03       1.0  T
  73   -403.2428875  0.764026E-01  0.377E-01    0.02       1.0  T
  74   -403.0830400  0.159847E+00  0.546E-01    0.01       1.0  T
  75   -403.2969810 -0.213941E+00  0.295E-01    0.03       1.0  T
  76   -403.3475750 -0.505940E-01  0.175E-01    0.02       1.0  T
  77   -403.2719592  0.756158E-01  0.335E-01    0.02       1.0  T
  78   -403.3405823 -0.686230E-01  0.184E-01    0.02       1.0  T
  79   -403.3492456 -0.866334E-02  0.162E-01    0.02       1.0  T
  80   -403.3466074  0.263820E-02  0.179E-01    0.02       1.0  T
  81   -403.2776177  0.689897E-01  0.296E-01    0.01       1.0  T
  82   -403.3453092 -0.676916E-01  0.169E-01    0.02       1.0  T
  83   -403.3395384  0.577078E-02  0.185E-01    0.02       1.0  T
  84   -403.3555104 -0.159719E-01  0.138E-01    0.02       1.0  T
  85   -403.3587330 -0.322260E-02  0.126E-01    0.02       1.0  T
  86   -403.3520894  0.664360E-02  0.151E-01    0.02       1.0  T
  87   -403.3463405  0.574887E-02  0.162E-01    0.02       1.0  T
  88   -403.3597354 -0.133948E-01  0.122E-01    0.02       1.0  T
  89   -403.3624959 -0.276055E-02  0.110E-01    0.02       1.0  T
  90   -403.3701984 -0.770248E-02  0.668E-02    0.02       1.0  T
  91   -403.3660788  0.411959E-02  0.881E-02    0.02       1.0  T
  92   -403.3722113 -0.613252E-02  0.536E-02    0.02       1.0  T
  93   -403.3556286  0.165827E-01  0.134E-01    0.02       1.0  T
  94   -403.3645766 -0.894803E-02  0.981E-02    0.02       1.0  T
  95   -403.3601674  0.440923E-02  0.118E-01    0.02       1.0  T
  96   -403.3675913 -0.742394E-02  0.809E-02    0.02       1.0  T
  97   -403.3717628 -0.417141E-02  0.518E-02    0.02       1.0  T
  98   -403.3717303  0.324470E-04  0.512E-02    0.02       1.0  T
  99   -403.3736481 -0.191774E-02  0.268E-02    0.02       1.0  T
 100   -403.3736946 -0.465304E-04  0.255E-02    0.02       1.0  T
 101   -403.3739229 -0.228301E-03  0.199E-02    0.02       1.0  T
 102   -403.3735891  0.333780E-03  0.263E-02    0.02       1.0  T
 103   -403.3740341 -0.445029E-03  0.171E-02    0.02       1.0  T
 104   -403.3740041  0.300789E-04  0.170E-02    0.02       1.0  T
 105   -403.3741091 -0.105059E-03  0.137E-02    0.02       1.0  T
 106   -403.3741622 -0.531219E-04  0.109E-02    0.02       1.0  T
 107   -403.3740888  0.734206E-04  0.133E-02    0.01       1.0  T
 108   -403.3740950 -0.620171E-05  0.125E-02    0.01       1.0  T
 109   -403.3741511 -0.560790E-04  0.100E-02    0.01       1.0  T
 110   -403.3740760  0.750783E-04  0.128E-02    0.01       1.0  T
 111   -403.3741182 -0.422289E-04  0.113E-02    0.01       1.0  T
 112   -403.3741031  0.151743E-04  0.119E-02    0.01       1.0  T
 113   -403.3742019 -0.988562E-04  0.730E-03    0.01       1.0  T
 114   -403.3742095 -0.758496E-05  0.680E-03    0.01       1.0  T
 115   -403.3742451 -0.355720E-04  0.374E-03    0.01       1.9  T
 116   -403.3742355  0.958621E-05  0.479E-03    0.01       1.5  T
 117   -403.3742474 -0.118561E-04  0.345E-03    0.01       2.0  T
 118   -403.3742455  0.190580E-05  0.372E-03    0.01       1.9  T
 119   -403.3742553 -0.989349E-05  0.204E-03    0.01       3.5  T
 120   -403.3742555 -0.151112E-06  0.197E-03    0.01       3.6  T
 121   -403.3742529  0.255013E-05  0.243E-03    0.01       2.9  T
 122   -403.3742557 -0.272830E-05  0.182E-03    0.01       3.9  T
 123   -403.3742570 -0.133755E-05  0.141E-03    0.01       5.0  T
 124   -403.3742572 -0.224143E-06  0.130E-03    0.01       5.4  T
 125   -403.3742585 -0.125913E-05  0.690E-04    0.01      10.2  T
 126   -403.3742588 -0.270125E-06  0.458E-04    0.01      15.4  T
 127   -403.3742589 -0.155743E-06  0.237E-04    0.01      29.8  T
 128   -403.3742589  0.707990E-07  0.340E-04    0.01      20.7  T
 129   -403.3742585  0.345758E-06  0.655E-04    0.01      10.8  T
 130   -403.3742590 -0.446517E-06  0.121E-04    0.01      58.5  T
 131   -403.3742590 -0.799156E-08  0.816E-05    0.01      86.5  T

   *** convergence criteria satisfied after 131 iterations ***

         #    Occupation            Energy/Eh            Energy/eV
      -------------------------------------------------------------
         1        2.0000           -0.8047134             -21.8974
       ...           ...                  ...                  ...
       342        1.9985           -0.3782984             -10.2940
       343        1.9985           -0.3782918             -10.2938
       344        1.9956           -0.3772883             -10.2665
       345        1.9934           -0.3768936             -10.2558
       346        1.3210           -0.3721063             -10.1255
       347        1.2884           -0.3720380             -10.1237
       348        1.2484           -0.3719561             -10.1214 (HOMO)
       349        0.9973           -0.3714688             -10.1082 (LUMO)
       350        0.8755           -0.3712362             -10.1019
       351        0.2860           -0.3697727             -10.0620
       352        0.0000           -0.3595480              -9.7838
       353        0.0000           -0.3585712              -9.7572
       ...           ...                  ...                  ...
       707                          2.4363775              66.2972
      -------------------------------------------------------------
                  HL-Gap            0.0004873 Eh            0.0133 eV
             Fermi-level           -0.3714740 Eh          -10.1083 eV

 SCC (total)                   0 d,  0 h,  0 min, 21.780 sec
 SCC setup                      ...        0 min,  0.013 sec (  0.058%)
 Dispersion                     ...        0 min,  0.008 sec (  0.035%)
 classical contributions        ...        0 min,  0.002 sec (  0.011%)
 integral evaluation            ...        0 min,  0.233 sec (  1.068%)
 iterations                     ...        0 min, 20.987 sec ( 96.362%)
 molecular gradient             ...        0 min,  0.504 sec (  2.313%)
 printout                       ...        0 min,  0.033 sec (  0.152%)

         :::::::::::::::::::::::::::::::::::::::::::::::::::::
         ::                     SUMMARY                     ::
         :::::::::::::::::::::::::::::::::::::::::::::::::::::
         :: total energy            -397.419408849509 Eh    ::
         :: gradient norm              1.531236560194 Eh/a0 ::
         :: HOMO-LUMO gap              0.013259976553 eV    ::
         ::.................................................::
         :: SCC energy              -403.374258959535 Eh    ::
         :: -> electrostatic           0.883776891813 Eh    ::
         :: repulsion energy           6.128433446501 Eh    ::
         :: dispersion energy         -0.173583336476 Eh    ::
         :: halogen bond corr.         0.000000000000 Eh    ::
         :: add. restraining           0.000000000000 Eh    ::
         :: total charge               0.000000001632 e     ::
         :::::::::::::::::::::::::::::::::::::::::::::::::::::

      ----------------------------------------------------------- 
     |                   =====================                   |
     |                        A N C O P T                        |
     |                   =====================                   |
     |               Approximate Normal Coordinate               |
     |                Rational Function Optimizer                |
      ----------------------------------------------------------- 

          ...................................................
          :                      SETUP                      :
          :.................................................:
          :   optimization level            normal          :
          :   max. optcycles                   603          :
          :   ANC micro-cycles                  20          :
          :   degrees of freedom               597          :
          :.................................................:
          :   RF solver                   davidson          :
          :   write xtbopt.log                true          :
          :   linear?                        false          :
          :   energy convergence         0.5000000E-05 Eh   :
          :   grad. convergence          0.1000000E-02 Eh/α :
          :   maximium RF displ.         1.0000000          :
          :   Hlow (freq-cutoff)         0.1000000E-01      :
          :   Hmax (freq-cutoff)         5.0000000          :
          :   S6 in model hess.         20.0000000          :
          ...................................................

generating ANC from model Hessian ...
Using Lindh-Hessian (1995)
 Shifting diagonal of input Hessian by    1.0048059690136895E-002
 Lowest  eigenvalues of input Hessian
    0.010000    0.010016    0.010023    0.010033    0.010035    0.010037
    0.010042    0.010045    0.010047    0.000000    0.000000    0.000000
    0.000000    0.000000    0.000000    0.010055    0.010070    0.010119
 Highest eigenvalues
    2.782549    2.884461    3.103301    3.198535    3.303517    3.564390


........................................................................
.............................. CYCLE    1 ..............................
........................................................................
   1   -403.3742590 -0.403374E+03  0.107E-04    0.01       0.0  T
   2   -403.3733636  0.895372E-03  0.286E-02    0.01       1.0  T
   3   -403.3742467 -0.883086E-03  0.335E-03    0.01       2.1  T
   4   -403.3741772  0.694451E-04  0.870E-03    0.01       1.0  T
   5   -403.3742509 -0.736827E-04  0.286E-03    0.01       2.5  T
   6   -403.3742583 -0.739428E-05  0.776E-04    0.01       9.1  T
   7   -403.3742584 -0.634986E-07  0.739E-04    0.01       9.5  T
   8   -403.3742590 -0.598411E-06  0.699E-05    0.01     101.0  T
   9   -403.3742590  0.491838E-08  0.886E-05    0.01      79.6  T
     SCC iter.                  ...        0 min,  1.443 sec
     gradient                   ...        0 min,  0.509 sec
 * total energy  :  -397.4194088 Eh     change        0.2407717E-08 Eh
   gradient norm :     1.5312359 Eh/α   predicted     0.0000000E+00 (-100.00%)
   displ. norm   :     0.5189016 α      lambda       -0.7219983E+00
   maximum displ.:     0.2088676 α      in ANC's #595, #596, #592, ...

........................................................................
.............................. CYCLE    2 ..............................
........................................................................
   1   -403.2843433 -0.403284E+03  0.347E-01    0.02       0.0  T
   2   -394.9126704  0.837167E+01  0.298E+00    0.03       1.0  T
   3   -399.5038243 -0.459115E+01  0.191E+00    0.04       1.0  T
   4   -398.2176973  0.128613E+01  0.216E+00    0.02       1.0  T
   5   -393.6756059  0.454209E+01  0.297E+00    0.03       1.0  T
   6   -400.6349582 -0.695935E+01  0.157E+00    0.05       1.0  T
   7   -400.7592574 -0.124299E+00  0.156E+00    0.01       1.0  T
   8   -400.5758562  0.183401E+00  0.158E+00    0.06       1.0  T
   9   -403.2452234 -0.266937E+01  0.354E-01    0.00       1.0  T
  10   -402.5267881  0.718435E+00  0.893E-01    0.01       1.0  T
  11   -400.1748162  0.235197E+01  0.168E+00    0.02       1.0  T
  12   -403.0968499 -0.292203E+01  0.506E-01    0.00       1.0  T
  13   -402.7105680  0.386282E+00  0.795E-01    0.02       1.0  T
  14   -402.7030782  0.748977E-02  0.787E-01    0.01       1.0  T
  15   -402.8052093 -0.102131E+00  0.733E-01    0.01       1.0  T
  16   -403.3577852 -0.552576E+00  0.133E-01    0.00       1.0  T
  17   -403.2861157  0.716695E-01  0.290E-01    0.01       1.0  T
  18   -403.3619585 -0.758428E-01  0.121E-01    0.00       1.0  T
  19   -403.3732016 -0.112431E-01  0.706E-02    0.00       1.0  T
  20   -403.3751204 -0.191876E-02  0.529E-02    0.00       1.0  T
  21   -403.3730213  0.209904E-02  0.692E-02    0.00       1.0  T
  22   -403.3777822 -0.476086E-02  0.196E-02    0.00       1.0  T
  23   -403.3768946  0.887546E-03  0.349E-02    0.00       1.0  T
  24   -403.3779555 -0.106091E-02  0.154E-02    0.00       1.0  T
  25   -403.3779092  0.463553E-04  0.170E-02    0.00       1.0  T
  26   -403.3780190 -0.109781E-03  0.136E-02    0.00       1.0  T
  27   -403.3781966 -0.177604E-03  0.488E-03    0.00       1.4  T
  28   -403.3781098  0.868036E-04  0.101E-02    0.00       1.0  T
  29   -403.3782096 -0.998231E-04  0.338E-03    0.00       2.1  T
  30   -403.3782000  0.954584E-05  0.447E-03    0.00       1.6  T
  31   -403.3782138 -0.137202E-04  0.276E-03    0.00       2.6  T
  32   -403.3782216 -0.785154E-05  0.666E-04    0.00      10.6  T
  33   -403.3782218 -0.135765E-06  0.567E-04    0.00      12.4  T
  34   -403.3782221 -0.348293E-06  0.495E-05    0.00     142.5  T
  35   -403.3782221  0.936154E-09  0.568E-05    0.00     124.3  T
     SCC iter.                  ...        0 min,  5.592 sec
     gradient                   ...        0 min,  0.502 sec
 * total energy  :  -397.8912220 Eh     change       -0.4718132E+00 Eh
   gradient norm :     0.5766391 Eh/α   predicted    -0.4582051E+00 (  -2.88%)
   displ. norm   :     0.5614696 α      lambda       -0.2444305E+00
   maximum displ.:     0.1265170 α      in ANC's #182, #220, #596, ...

........................................................................
.............................. CYCLE    3 ..............................
........................................................................
   1   -403.4522463 -0.403452E+03  0.312E-01    0.05       0.0  T
   2   -395.5367077  0.791554E+01  0.293E+00    0.09       1.0  T
   3   -398.3873192 -0.285061E+01  0.218E+00    0.04       1.0  T
   4   -401.0937513 -0.270643E+01  0.150E+00    0.00       1.0  T
   5   -391.4442314  0.964952E+01  0.330E+00    0.03       1.0  T
   6   -401.6231523 -0.101789E+02  0.131E+00    0.01       1.0  T
   7   -400.9892800  0.633872E+00  0.153E+00    0.01       1.0  T
   8   -401.9834724 -0.994192E+00  0.116E+00    0.01       1.0  T
   9   -402.3493290 -0.365857E+00  0.106E+00    0.01       1.0  T
  10   -402.2535417  0.957873E-01  0.107E+00    0.03       1.0  T
  11   -400.9383656  0.131518E+01  0.154E+00    0.04       1.0  T
  12   -402.3316364 -0.139327E+01  0.108E+00    0.01       1.0  T
  13   -402.8159823 -0.484346E+00  0.807E-01    0.03       1.0  T
  14   -402.9954693 -0.179487E+00  0.697E-01    0.01       1.0  T
  15   -403.4966968 -0.501227E+00  0.180E-01    0.01       1.0  T
  16   -403.5211606 -0.244638E-01  0.106E-01    0.01       1.0  T
  17   -403.4835886  0.375720E-01  0.212E-01    0.01       1.0  T
  18   -403.5140556 -0.304670E-01  0.134E-01    0.01       1.0  T
  19   -403.5328315 -0.187759E-01  0.179E-02    0.02       1.0  T
  20   -403.5267320  0.609948E-02  0.776E-02    0.02       1.0  T
  21   -403.5318387 -0.510666E-02  0.360E-02    0.02       1.0  T
  22   -403.5312902  0.548455E-03  0.418E-02    0.02       1.0  T
  23   -403.5324699 -0.117968E-02  0.258E-02    0.02       1.0  T
  24   -403.5329173 -0.447350E-03  0.166E-02    0.02       1.0  T
  25   -403.5331605 -0.243196E-03  0.723E-03    0.02       1.0  T
  26   -403.5332206 -0.601123E-04  0.469E-04    0.02      15.0  T
  27   -403.5332185  0.204116E-05  0.136E-03    0.02       5.2  T
  28   -403.5332026  0.159262E-04  0.404E-03    0.02       1.7  T
  29   -403.5331987  0.386728E-05  0.445E-03    0.02       1.6  T
  30   -403.5332179 -0.191903E-04  0.160E-03    0.02       4.4  T
  31   -403.5332204 -0.244377E-05  0.590E-04    0.02      12.0  T
  32   -403.5332203  0.260423E-07  0.607E-04    0.02      11.6  T
  33   -403.5332205 -0.126492E-06  0.486E-04    0.02      14.5  T
  34   -403.5332205 -0.106026E-07  0.482E-04    0.02      14.6  T
  35   -403.5332207 -0.202191E-06  0.218E-04    0.02      32.3  T
  36   -403.5332207 -0.353276E-07  0.122E-04    0.02      57.6  T
  37   -403.5332207 -0.159873E-07  0.240E-05    0.02     294.0  T
     SCC iter.                  ...        0 min,  5.960 sec
     gradient                   ...        0 min,  0.506 sec
 * total energy  :  -398.0617509 Eh     change       -0.1705289E+00 Eh
   gradient norm :     0.2311922 Eh/α   predicted    -0.1607437E+00 (  -5.74%)
   displ. norm   :     0.7294187 α      lambda       -0.1235664E+00
   maximum displ.:     0.2695789 α      in ANC's #182, #97, #220, ...

........................................................................
.............................. CYCLE    4 ..............................
........................................................................
   1   -403.5615703 -0.403562E+03  0.219E-01    0.06       0.0  T
   2   -397.7797691  0.578180E+01  0.264E+00    0.06       1.0  T
   3   -400.5611926 -0.278142E+01  0.170E+00    0.02       1.0  T
   4   -395.5630237  0.499817E+01  0.267E+00    0.01       1.0  T
   5   -391.5499731  0.401305E+01  0.327E+00    0.01       1.0  T
   6   -403.4795328 -0.119296E+02  0.331E-01    0.05       1.0  T
   7   -400.2491162  0.323042E+01  0.169E+00    0.03       1.0  T
   8   -402.8116172 -0.256250E+01  0.929E-01    0.03       1.0  T
   9   -403.2144248 -0.402808E+00  0.588E-01    0.01       1.0  T
  10   -398.8989291  0.431550E+01  0.208E+00    0.05       1.0  T
  11   -400.7629157 -0.186399E+01  0.162E+00    0.05       1.0  T
  12   -401.0600989 -0.297183E+00  0.151E+00    0.03       1.0  T
  13   -403.0982818 -0.203818E+01  0.693E-01    0.02       1.0  T
  14   -403.1743359 -0.760541E-01  0.626E-01    0.00       1.0  T
  15   -403.2662798 -0.919439E-01  0.551E-01    0.02       1.0  T
  16   -402.7854292  0.480851E+00  0.864E-01    0.02       1.0  T
  17   -403.4515390 -0.666110E+00  0.373E-01    0.04       1.0  T
  18   -403.5841657 -0.132627E+00  0.121E-01    0.03       1.0  T
  19   -403.5520637  0.321020E-01  0.213E-01    0.04       1.0  T
  20   -403.5603087 -0.824501E-02  0.193E-01    0.04       1.0  T
  21   -403.5999697 -0.396610E-01  0.318E-02    0.04       1.0  T
  22   -403.5970407  0.292906E-02  0.626E-02    0.04       1.0  T
  23   -403.6003954 -0.335469E-02  0.227E-02    0.04       1.0  T
  24   -403.6007545 -0.359172E-03  0.121E-02    0.05       1.0  T
  25   -403.6005338  0.220783E-03  0.189E-02    0.04       1.0  T
  26   -403.5997998  0.733992E-03  0.306E-02    0.04       1.0  T
  27   -403.6002932 -0.493477E-03  0.228E-02    0.04       1.0  T
  28   -403.6006693 -0.376095E-03  0.135E-02    0.04       1.0  T
  29   -403.6007122 -0.429091E-04  0.119E-02    0.04       1.0  T
  30   -403.6008258 -0.113546E-03  0.614E-03    0.04       1.1  T
  31   -403.6008530 -0.271583E-04  0.354E-03    0.04       2.0  T
  32   -403.6008583 -0.531829E-05  0.270E-03    0.04       2.6  T
  33   -403.6008645 -0.619966E-05  0.121E-03    0.04       5.8  T
  34   -403.6008656 -0.112500E-05  0.569E-04    0.04      12.4  T
  35   -403.6008659 -0.261023E-06  0.294E-04    0.04      24.0  T
  36   -403.6008659 -0.659124E-07  0.158E-04    0.04      44.7  T
  37   -403.6008659 -0.112242E-07  0.113E-04    0.04      62.3  T
     SCC iter.                  ...        0 min,  5.951 sec
     gradient                   ...        0 min,  0.505 sec
 * total energy  :  -398.1605719 Eh     change       -0.9882093E-01 Eh
   gradient norm :     0.1451989 Eh/α   predicted    -0.9465509E-01 (  -4.22%)
   displ. norm   :     0.8295490 α      lambda       -0.9381152E-01
   maximum displ.:     0.3132775 α      in ANC's #97, #182, #100, ...

........................................................................
.............................. CYCLE    5 ..............................
........................................................................
   1   -403.6040071 -0.403604E+03  0.177E-01    0.08       0.0  T
   2   -398.5142056  0.508980E+01  0.250E+00    0.04       1.0  T
   3   -399.8539151 -0.133971E+01  0.188E+00    0.05       1.0  T
   4   -401.0180233 -0.116411E+01  0.157E+00    0.01       1.0  T
   5   -392.1050348  0.891299E+01  0.323E+00    0.01       1.0  T
   6   -398.0337935 -0.592876E+01  0.227E+00    0.02       1.0  T
   7   -392.9948900  0.503890E+01  0.307E+00    0.02       1.0  T
   8   -393.9159682 -0.921078E+00  0.294E+00    0.01       1.0  T
   9   -392.3971175  0.151885E+01  0.315E+00    0.01       1.0  T
  10   -392.2448332  0.152284E+00  0.317E+00    0.00       1.0  T
  11   -392.4753127 -0.230480E+00  0.313E+00    0.01       1.0  T
  12   -397.2331540 -0.475784E+01  0.239E+00    0.01       1.0  T
  13   -397.0650679  0.168086E+00  0.242E+00    0.00       1.0  T
  14   -402.7155383 -0.565047E+01  0.106E+00    0.04       1.0  T
  15   -401.0843989  0.163114E+01  0.157E+00    0.05       1.0  T
  16   -395.3007222  0.578368E+01  0.276E+00    0.01       1.0  T
  17   -393.6928237  0.160790E+01  0.301E+00    0.01       1.0  T
  18   -396.0560091 -0.236319E+01  0.264E+00    0.01       1.0  T
  19   -396.6958436 -0.639834E+00  0.252E+00    0.01       1.0  T
  20   -397.3936148 -0.697771E+00  0.239E+00    0.00       1.0  T
  21   -396.4626856  0.930929E+00  0.256E+00    0.02       1.0  T
  22   -397.0211634 -0.558478E+00  0.246E+00    0.01       1.0  T
  23   -401.9116849 -0.489052E+01  0.128E+00    0.01       1.0  T
  24   -402.1180601 -0.206375E+00  0.120E+00    0.02       1.0  T
  25   -403.4941938 -0.137613E+01  0.370E-01    0.05       1.0  T
  26   -403.4211821  0.730117E-01  0.442E-01    0.03       1.0  T
  27   -403.5005689 -0.793868E-01  0.349E-01    0.05       1.0  T
  28   -403.5914201 -0.908512E-01  0.181E-01    0.05       1.0  T
  29   -403.6219895 -0.305694E-01  0.698E-02    0.07       1.0  T
  30   -403.6220071 -0.176036E-04  0.679E-02    0.07       1.0  T
  31   -403.6163940  0.561306E-02  0.101E-01    0.06       1.0  T
  32   -403.6111414  0.525269E-02  0.118E-01    0.06       1.0  T
  33   -403.6254076 -0.142662E-01  0.224E-02    0.07       1.0  T
  34   -403.6126891  0.127185E-01  0.111E-01    0.06       1.0  T
  35   -403.6237077 -0.110186E-01  0.448E-02    0.07       1.0  T
  36   -403.6203721  0.333560E-02  0.717E-02    0.07       1.0  T
  37   -403.6237094 -0.333737E-02  0.444E-02    0.07       1.0  T
  38   -403.6247263 -0.101688E-02  0.320E-02    0.07       1.0  T
  39   -403.6253810 -0.654712E-03  0.200E-02    0.07       1.0  T
  40   -403.6256293 -0.248237E-03  0.129E-02    0.07       1.0  T
  41   -403.6257736 -0.144322E-03  0.541E-03    0.07       1.3  T
  42   -403.6257916 -0.179804E-04  0.339E-03    0.07       2.1  T
  43   -403.6257900  0.156705E-05  0.358E-03    0.07       2.0  T
  44   -403.6258023 -0.122723E-04  0.836E-04    0.07       8.4  T
  45   -403.6258027 -0.475741E-06  0.607E-04    0.07      11.6  T
  46   -403.6258031 -0.359608E-06  0.631E-05    0.07     111.7  T
  47   -403.6258030  0.594085E-07  0.243E-04    0.07      29.0  T
  48   -403.6258031 -0.634224E-07  0.423E-05    0.07     166.7  T
     SCC iter.                  ...        0 min,  7.722 sec
     gradient                   ...        0 min,  0.506 sec
 * total energy  :  -398.2415215 Eh     change       -0.8094966E-01 Eh
   gradient norm :     0.1142233 Eh/α   predicted    -0.7918413E-01 (  -2.18%)
   displ. norm   :     0.9034579 α      lambda       -0.8238232E-01
   maximum displ.:     0.3930102 α      in ANC's #97, #100, #182, ...

........................................................................
.............................. CYCLE    6 ..............................
........................................................................
   1   -403.6122815 -0.403612E+03  0.132E-01    0.08       0.0  T
   2   -391.8448544  0.117674E+02  0.325E+00    0.01       1.0  T
   3   -391.2758347  0.569020E+00  0.332E+00    0.01       1.0  T
   4   -399.6653285 -0.838949E+01  0.196E+00    0.02       1.0  T
   5   -402.7645248 -0.309920E+01  0.916E-01    0.03       1.0  T
   6   -401.6473286  0.111720E+01  0.135E+00    0.03       1.0  T
   7   -399.3577784  0.228955E+01  0.199E+00    0.04       1.0  T
   8   -399.8186716 -0.460893E+00  0.189E+00    0.03       1.0  T
   9   -400.3808674 -0.562196E+00  0.175E+00    0.03       1.0  T
  10   -403.1148153 -0.273395E+01  0.685E-01    0.03       1.0  T
  11   -402.1773492  0.937466E+00  0.118E+00    0.01       1.0  T
  12   -402.6707495 -0.493400E+00  0.938E-01    0.00       1.0  T
  13   -402.6791657 -0.841613E-02  0.936E-01    0.00       1.0  T
  14   -403.4898332 -0.810668E+00  0.339E-01    0.06       1.0  T
  15   -403.1037464  0.386087E+00  0.702E-01    0.03       1.0  T
  16   -403.5182556 -0.414509E+00  0.319E-01    0.06       1.0  T
  17   -403.5308692 -0.126136E-01  0.306E-01    0.06       1.0  T
  18   -403.5458098 -0.149406E-01  0.278E-01    0.06       1.0  T
  19   -403.5991718 -0.533620E-01  0.157E-01    0.08       1.0  T
  20   -403.6110974 -0.119256E-01  0.109E-01    0.08       1.0  T
  21   -403.6182976 -0.720017E-02  0.662E-02    0.08       1.0  T
  22   -403.6136017  0.469584E-02  0.909E-02    0.08       1.0  T
  23   -403.6158730 -0.227121E-02  0.794E-02    0.08       1.0  T
  24   -403.6179644 -0.209143E-02  0.659E-02    0.08       1.0  T
  25   -403.6209310 -0.296665E-02  0.403E-02    0.08       1.0  T
  26   -403.6226005 -0.166944E-02  0.100E-02    0.08       1.0  T
  27   -403.6227117 -0.111191E-03  0.261E-03    0.08       2.7  T
  28   -403.6227036  0.811052E-05  0.366E-03    0.08       1.9  T
  29   -403.6227001  0.346628E-05  0.421E-03    0.08       1.7  T
  30   -403.6227013 -0.118742E-05  0.405E-03    0.08       1.7  T
  31   -403.6227021 -0.847519E-06  0.388E-03    0.08       1.8  T
  32   -403.6227151 -0.129479E-04  0.167E-03    0.08       4.2  T
  33   -403.6227173 -0.220640E-05  0.706E-04    0.08      10.0  T
  34   -403.6227176 -0.319074E-06  0.306E-04    0.08      23.0  T
  35   -403.6227176  0.246262E-07  0.303E-04    0.08      23.2  T
  36   -403.6227177 -0.820823E-07  0.113E-04    0.08      62.7  T
  37   -403.6227177 -0.103856E-07  0.487E-05    0.08     144.8  T
     SCC iter.                  ...        0 min,  5.918 sec
     gradient                   ...        0 min,  0.508 sec
 * total energy  :  -398.3172912 Eh     change       -0.7576972E-01 Eh
   gradient norm :     0.1032790 Eh/α   predicted    -0.7481302E-01 (  -1.26%)
   displ. norm   :     0.9090684 α      lambda       -0.7224893E-01
   maximum displ.:     0.4163783 α      in ANC's #97, #100, #63, ...

........................................................................
.............................. CYCLE    7 ..............................
........................................................................
   1   -403.6041102 -0.403604E+03  0.147E-01    0.07       0.0  T
   2   -387.7415641  0.158625E+02  0.372E+00    0.02       1.0  T
   3   -389.1936590 -0.145209E+01  0.357E+00    0.01       1.0  T
   4   -392.0520136 -0.285835E+01  0.324E+00    0.01       1.0  T
   5   -402.6819480 -0.106299E+02  0.929E-01    0.02       1.0  T
   6   -398.9844103  0.369754E+01  0.204E+00    0.04       1.0  T
   7   -400.9088804 -0.192447E+01  0.160E+00    0.03       1.0  T
   8   -395.5694333  0.533945E+01  0.267E+00    0.03       1.0  T
   9   -403.5723318 -0.800290E+01  0.206E-01    0.07       1.0  T
  10   -400.1240591  0.344827E+01  0.178E+00    0.01       1.0  T
  11   -402.5982440 -0.247418E+01  0.968E-01    0.00       1.0  T
  12   -401.4777587  0.112049E+01  0.139E+00    0.04       1.0  T
  13   -401.8444574 -0.366699E+00  0.128E+00    0.03       1.0  T
  14   -402.1395787 -0.295121E+00  0.119E+00    0.01       1.0  T
  15   -402.9739740 -0.834395E+00  0.769E-01    0.02       1.0  T
  16   -402.8933729  0.806011E-01  0.812E-01    0.02       1.0  T
  17   -403.3452458 -0.451873E+00  0.494E-01    0.04       1.0  T
  18   -403.5709326 -0.225687E+00  0.208E-01    0.07       1.0  T
  19   -403.5296988  0.412338E-01  0.284E-01    0.07       1.0  T
  20   -403.5346743 -0.497544E-02  0.276E-01    0.07       1.0  T
  21   -403.5495384 -0.148641E-01  0.251E-01    0.07       1.0  T
  22   -403.5394751  0.100633E-01  0.271E-01    0.07       1.0  T
  23   -403.5588072 -0.193321E-01  0.239E-01    0.07       1.0  T
  24   -403.5962654 -0.374583E-01  0.148E-01    0.08       1.0  T
  25   -403.6019146 -0.564919E-02  0.128E-01    0.08       1.0  T
  26   -403.6067782 -0.486358E-02  0.108E-01    0.08       1.0  T
  27   -403.6124480 -0.566980E-02  0.782E-02    0.08       1.0  T
  28   -403.6150225 -0.257446E-02  0.599E-02    0.08       1.0  T
  29   -403.6177484 -0.272594E-02  0.308E-02    0.08       1.0  T
  30   -403.6185178 -0.769346E-03  0.132E-02    0.08       1.0  T
  31   -403.6186662 -0.148406E-03  0.318E-03    0.08       2.2  T
  32   -403.6186235  0.426928E-04  0.600E-03    0.08       1.2  T
  33   -403.6186323 -0.879315E-05  0.556E-03    0.08       1.3  T
  34   -403.6186151  0.171457E-04  0.688E-03    0.08       1.0  T
  35   -403.6186555 -0.403614E-04  0.348E-03    0.08       2.0  T
  36   -403.6186670 -0.114737E-04  0.133E-03    0.08       5.3  T
  37   -403.6186687 -0.175628E-05  0.464E-04    0.08      15.2  T
  38   -403.6186686  0.103051E-06  0.556E-04    0.08      12.7  T
  39   -403.6186687 -0.649648E-07  0.497E-04    0.08      14.2  T
  40   -403.6186689 -0.220803E-06  0.209E-04    0.08      33.7  T
  41   -403.6186689 -0.381137E-07  0.900E-05    0.08      78.3  T
  42   -403.6186690 -0.416441E-08  0.633E-05    0.08     111.4  T
     SCC iter.                  ...        0 min,  6.800 sec
     gradient                   ...        0 min,  0.505 sec
 * total energy  :  -398.3763425 Eh     change       -0.5905129E-01 Eh
   gradient norm :     0.0839459 Eh/α   predicted    -0.6597805E-01 (  11.73%)
   displ. norm   :     0.7909073 α      lambda       -0.4456423E-01
   maximum displ.:     0.3372236 α      in ANC's #97, #63, #100, ...

........................................................................
.............................. CYCLE    8 ..............................
........................................................................
   1   -403.6510112 -0.403651E+03  0.715E-02    0.08       0.0  T
   2   -393.3640830  0.102869E+02  0.302E+00    0.00       1.0  T
   3   -391.5005099  0.186357E+01  0.328E+00    0.00       1.0  T
   4   -395.8294402 -0.432893E+01  0.268E+00    0.01       1.0  T
   5   -401.4194807 -0.559004E+01  0.144E+00    0.01       1.0  T
   6   -394.1299320  0.728955E+01  0.290E+00    0.02       1.0  T
   7   -402.7913444 -0.866141E+01  0.887E-01    0.02       1.0  T
   8   -401.2403272  0.155102E+01  0.147E+00    0.03       1.0  T
   9   -402.3726132 -0.113229E+01  0.110E+00    0.00       1.0  T
  10   -401.2311076  0.114151E+01  0.149E+00    0.04       1.0  T
  11   -401.6486640 -0.417556E+00  0.135E+00    0.02       1.0  T
  12   -399.6062611  0.204240E+01  0.194E+00    0.02       1.0  T
  13   -403.4253037 -0.381904E+01  0.454E-01    0.05       1.0  T
  14   -403.6514867 -0.226183E+00  0.608E-02    0.08       1.0  T
  15   -403.6016844  0.498023E-01  0.222E-01    0.07       1.0  T
  16   -403.6404519 -0.387675E-01  0.116E-01    0.08       1.0  T
  17   -403.6524152 -0.119633E-01  0.504E-02    0.08       1.0  T
  18   -403.6514685  0.946718E-03  0.552E-02    0.08       1.0  T
  19   -403.6505812  0.887345E-03  0.624E-02    0.08       1.0  T
  20   -403.6508561 -0.274964E-03  0.589E-02    0.08       1.0  T
  21   -403.6366479  0.142082E-01  0.131E-01    0.08       1.0  T
  22   -403.6498160 -0.131681E-01  0.662E-02    0.08       1.0  T
  23   -403.6503985 -0.582495E-03  0.609E-02    0.08       1.0  T
  24   -403.6507465 -0.348028E-03  0.577E-02    0.08       1.0  T
  25   -403.6513195 -0.573019E-03  0.518E-02    0.08       1.0  T
  26   -403.6525983 -0.127878E-02  0.382E-02    0.08       1.0  T
  27   -403.6535386 -0.940231E-03  0.239E-02    0.08       1.0  T
  28   -403.6539710 -0.432463E-03  0.134E-02    0.08       1.0  T
  29   -403.6540388 -0.678099E-04  0.108E-02    0.08       1.0  T
  30   -403.6540997 -0.608601E-04  0.771E-03    0.08       1.0  T
  31   -403.6541246 -0.249264E-04  0.594E-03    0.08       1.2  T
  32   -403.6541368 -0.122022E-04  0.479E-03    0.08       1.5  T
  33   -403.6541507 -0.139214E-04  0.302E-03    0.08       2.3  T
  34   -403.6541571 -0.637181E-05  0.163E-03    0.08       4.3  T
  35   -403.6541594 -0.230284E-05  0.633E-04    0.08      11.1  T
  36   -403.6541598 -0.333188E-06  0.259E-04    0.08      27.2  T
  37   -403.6541598 -0.593471E-07  0.967E-05    0.08      72.9  T
  38   -403.6541598 -0.909864E-08  0.274E-05    0.08     257.4  T
     SCC iter.                  ...        0 min,  6.079 sec
     gradient                   ...        0 min,  0.507 sec
 * total energy  :  -398.4110709 Eh     change       -0.3472832E-01 Eh
   gradient norm :     0.0727694 Eh/α   predicted    -0.3622034E-01 (   4.30%)
   displ. norm   :     0.7633438 α      lambda       -0.3499453E-01
   maximum displ.:     0.2956085 α      in ANC's #97, #63, #16, ...

........................................................................
.............................. CYCLE    9 ..............................
........................................................................
   1   -403.7144583 -0.403714E+03  0.577E-02    0.10       0.0  T
   2   -400.1961330  0.351833E+01  0.190E+00    0.02       1.0  T
   3   -401.6988917 -0.150276E+01  0.141E+00    0.02       1.0  T
   4   -400.3047790  0.139411E+01  0.177E+00    0.04       1.0  T
   5   -400.8514841 -0.546705E+00  0.164E+00    0.04       1.0  T
   6   -401.6726376 -0.821153E+00  0.139E+00    0.02       1.0  T
   7   -394.3768195  0.729582E+01  0.291E+00    0.02       1.0  T
   8   -400.5818485 -0.620503E+01  0.171E+00    0.01       1.0  T
   9   -401.6599039 -0.107806E+01  0.139E+00    0.00       1.0  T
  10   -403.4621904 -0.180229E+01  0.484E-01    0.06       1.0  T
  11   -402.7154302  0.746760E+00  0.953E-01    0.02       1.0  T
  12   -401.9280851  0.787345E+00  0.127E+00    0.01       1.0  T
  13   -403.4375720 -0.150949E+01  0.508E-01    0.05       1.0  T
  14   -403.6681362 -0.230564E+00  0.210E-01    0.08       1.0  T
  15   -403.7106965 -0.425603E-01  0.776E-02    0.08       1.0  T
  16   -403.7025506  0.814594E-02  0.115E-01    0.08       1.0  T
  17   -403.7144070 -0.118564E-01  0.490E-02    0.08       1.0  T
  18   -403.7157820 -0.137495E-02  0.342E-02    0.09       1.0  T
  19   -403.7154108  0.371158E-03  0.388E-02    0.09       1.0  T
  20   -403.7155825 -0.171691E-03  0.367E-02    0.09       1.0  T
  21   -403.7131125  0.247001E-02  0.608E-02    0.08       1.0  T
  22   -403.7155211 -0.240860E-02  0.383E-02    0.08       1.0  T
  23   -403.7154242  0.968291E-04  0.396E-02    0.08       1.0  T
  24   -403.7154125  0.117022E-04  0.401E-02    0.08       1.0  T
  25   -403.7151823  0.230248E-03  0.429E-02    0.08       1.0  T
  26   -403.7154679 -0.285650E-03  0.394E-02    0.08       1.0  T
  27   -403.7161475 -0.679557E-03  0.295E-02    0.08       1.0  T
  28   -403.7166239 -0.476438E-03  0.200E-02    0.09       1.0  T
  29   -403.7168483 -0.224350E-03  0.135E-02    0.09       1.0  T
  30   -403.7169785 -0.130166E-03  0.747E-03    0.09       1.0  T
  31   -403.7170167 -0.382191E-04  0.439E-03    0.09       1.6  T
  32   -403.7170342 -0.175355E-04  0.150E-03    0.09       4.7  T
  33   -403.7170313  0.290779E-05  0.216E-03    0.09       3.3  T
  34   -403.7170350 -0.369090E-05  0.109E-03    0.09       6.5  T
  35   -403.7170358 -0.823892E-06  0.628E-04    0.09      11.2  T
  36   -403.7170362 -0.383354E-06  0.185E-04    0.09      38.1  T
  37   -403.7170362 -0.354734E-07  0.400E-05    0.09     176.3  T
     SCC iter.                  ...        0 min,  5.921 sec
     gradient                   ...        0 min,  0.508 sec
 * total energy  :  -398.4375394 Eh     change       -0.2646849E-01 Eh
   gradient norm :     0.0657515 Eh/α   predicted    -0.2769282E-01 (   4.63%)
   displ. norm   :     0.7966230 α      lambda       -0.2429265E-01
   maximum displ.:     0.3587379 α      in ANC's #63, #16, #97, ...

........................................................................
.............................. CYCLE   10 ..............................
........................................................................
   1   -403.7649183 -0.403765E+03  0.506E-02    0.08       0.0  T
   2   -390.9240762  0.128408E+02  0.340E+00    0.02       1.0  T
   3   -402.2904584 -0.113664E+02  0.118E+00    0.00       1.0  T
   4   -400.7376255  0.155283E+01  0.168E+00    0.03       1.0  T
   5   -402.3086584 -0.157103E+01  0.117E+00    0.05       1.0  T
   6   -401.7767989  0.531859E+00  0.136E+00    0.00       1.0  T
   7   -402.6680276 -0.891229E+00  0.102E+00    0.03       1.0  T
   8   -403.5371664 -0.869139E+00  0.460E-01    0.06       1.0  T
   9   -403.3939103  0.143256E+00  0.591E-01    0.04       1.0  T
  10   -403.4411678 -0.472574E-01  0.544E-01    0.05       1.0  T
  11   -403.1424079  0.298760E+00  0.755E-01    0.03       1.0  T
  12   -403.6673476 -0.524940E+00  0.304E-01    0.07       1.0  T
  13   -403.6891954 -0.218479E-01  0.263E-01    0.07       1.0  T
  14   -403.7577412 -0.685457E-01  0.965E-02    0.09       1.0  T
  15   -403.7279070  0.298342E-01  0.191E-01    0.08       1.0  T
  16   -403.7405483 -0.126413E-01  0.159E-01    0.08       1.0  T
  17   -403.7400286  0.519691E-03  0.161E-01    0.08       1.0  T
  18   -403.7380885  0.194008E-02  0.167E-01    0.08       1.0  T
  19   -403.7428414 -0.475294E-02  0.153E-01    0.08       1.0  T
  20   -403.7485646 -0.572313E-02  0.133E-01    0.08       1.0  T
  21   -403.7603287 -0.117642E-01  0.823E-02    0.08       1.0  T
  22   -403.7636185 -0.328971E-02  0.612E-02    0.08       1.0  T
  23   -403.7644364 -0.817991E-03  0.550E-02    0.08       1.0  T
  24   -403.7661062 -0.166975E-02  0.390E-02    0.08       1.0  T
  25   -403.7672479 -0.114171E-02  0.220E-02    0.09       1.0  T
  26   -403.7675469 -0.299017E-03  0.143E-02    0.09       1.0  T
  27   -403.7677126 -0.165646E-03  0.692E-03    0.09       1.0  T
  28   -403.7677466 -0.339811E-04  0.376E-03    0.09       1.9  T
  29   -403.7677536 -0.706224E-05  0.259E-03    0.09       2.7  T
  30   -403.7677575 -0.385835E-05  0.136E-03    0.09       5.2  T
  31   -403.7677591 -0.167158E-05  0.595E-04    0.09      11.9  T
  32   -403.7677593 -0.112668E-06  0.479E-04    0.09      14.7  T
  33   -403.7677595 -0.226556E-06  0.115E-04    0.09      61.5  T
  34   -403.7677595 -0.250020E-08  0.988E-05    0.09      71.4  T
     SCC iter.                  ...        0 min,  5.434 sec
     gradient                   ...        0 min,  0.513 sec
 * total energy  :  -398.4560403 Eh     change       -0.1850093E-01 Eh
   gradient norm :     0.0441849 Eh/α   predicted    -0.1985449E-01 (   7.32%)
   displ. norm   :     0.8289080 α      lambda       -0.1829386E-01
   maximum displ.:     0.3316961 α      in ANC's #65, #63, #16, ...

........................................................................
.............................. CYCLE   11 ..............................
........................................................................
   1   -403.7992024 -0.403799E+03  0.868E-02    0.07       0.0  T
   2   -387.3782528  0.164209E+02  0.382E+00    0.04       1.0  T
   3   -403.6126777 -0.162344E+02  0.444E-01    0.11       1.0  T
   4   -399.4182143  0.419446E+01  0.200E+00    0.02       1.0  T
   5   -402.0408138 -0.262260E+01  0.127E+00    0.01       1.0  T
   6   -400.6407221  0.140009E+01  0.171E+00    0.02       1.0  T
   7   -402.1714615 -0.153074E+01  0.122E+00    0.00       1.0  T
   8   -399.5979815  0.257348E+01  0.196E+00    0.02       1.0  T
   9   -399.9511242 -0.353143E+00  0.188E+00    0.02       1.0  T
  10   -399.7416713  0.209453E+00  0.194E+00    0.02       1.0  T
  11   -403.7575625 -0.401589E+01  0.215E-01    0.10       1.0  T
  12   -403.7123044  0.452581E-01  0.296E-01    0.08       1.0  T
  13   -403.6555112  0.567932E-01  0.374E-01    0.07       1.0  T
  14   -403.6589217 -0.341049E-02  0.368E-01    0.06       1.0  T
  15   -403.7951978 -0.136276E+00  0.101E-01    0.08       1.0  T
  16   -403.7898444  0.535343E-02  0.126E-01    0.08       1.0  T
  17   -403.8029726 -0.131282E-01  0.575E-02    0.08       1.0  T
  18   -403.8058926 -0.292000E-02  0.249E-02    0.08       1.0  T
  19   -403.8058733  0.192735E-04  0.255E-02    0.08       1.0  T
  20   -403.8061034 -0.230111E-03  0.210E-02    0.08       1.0  T
  21   -403.8065337 -0.430311E-03  0.417E-03    0.08       1.7  T
  22   -403.8065254  0.832533E-05  0.482E-03    0.08       1.5  T
  23   -403.8065462 -0.208084E-04  0.109E-03    0.08       6.5  T
  24   -403.8065465 -0.293173E-06  0.653E-04    0.08      10.8  T
  25   -403.8065448  0.168161E-05  0.138E-03    0.08       5.1  T
  26   -403.8065467 -0.190120E-05  0.561E-04    0.08      12.6  T
  27   -403.8065463  0.355975E-06  0.734E-04    0.08       9.6  T
  28   -403.8065466 -0.210774E-06  0.583E-04    0.08      12.1  T
  29   -403.8065467 -0.189376E-06  0.400E-04    0.08      17.6  T
  30   -403.8065468 -0.715846E-08  0.387E-04    0.08      18.2  T
  31   -403.8065468 -0.488237E-07  0.322E-04    0.08      21.9  T
  32   -403.8065469 -0.728194E-07  0.189E-04    0.08      37.3  T
  33   -403.8065469 -0.272109E-07  0.983E-05    0.08      71.8  T
     SCC iter.                  ...        0 min,  5.273 sec
     gradient                   ...        0 min,  0.511 sec
 * total energy  :  -398.4670072 Eh     change       -0.1096696E-01 Eh
   gradient norm :     0.0577418 Eh/α   predicted    -0.1543169E-01 (  40.71%)
   displ. norm   :     0.7271886 α      lambda       -0.1753934E-01
   maximum displ.:     0.3339334 α      in ANC's #63, #16, #28, ...

........................................................................
.............................. CYCLE   12 ..............................
........................................................................
   1   -403.8499325 -0.403850E+03  0.896E-02    0.07       0.0  T
   2   -388.4730225  0.153769E+02  0.371E+00    0.02       1.0  T
   3   -403.2262850 -0.147533E+02  0.748E-01    0.02       1.0  T
   4   -403.7012315 -0.474947E+00  0.373E-01    0.05       1.0  T
   5   -401.9260849  0.177515E+01  0.133E+00    0.01       1.0  T
   6   -402.5939637 -0.667879E+00  0.107E+00    0.00       1.0  T
   7   -403.1800903 -0.586127E+00  0.800E-01    0.05       1.0  T
   8   -403.7404538 -0.560364E+00  0.330E-01    0.08       1.0  T
   9   -401.1578988  0.258256E+01  0.157E+00    0.01       1.0  T
  10   -399.1972026  0.196070E+01  0.205E+00    0.01       1.0  T
  11   -402.7426356 -0.354543E+01  0.102E+00    0.01       1.0  T
  12   -403.8340186 -0.109138E+01  0.150E-01    0.09       1.0  T
  13   -403.8079208  0.260978E-01  0.216E-01    0.07       1.0  T
  14   -403.8483283 -0.404075E-01  0.940E-02    0.08       1.0  T
  15   -403.8556192 -0.729090E-02  0.469E-02    0.09       1.0  T
  16   -403.8543867  0.123250E-02  0.585E-02    0.09       1.0  T
  17   -403.8510027  0.338395E-02  0.816E-02    0.09       1.0  T
  18   -403.8499890  0.101374E-02  0.875E-02    0.08       1.0  T
  19   -403.8509124 -0.923380E-03  0.829E-02    0.09       1.0  T
  20   -403.8518817 -0.969293E-03  0.776E-02    0.09       1.0  T
  21   -403.8519848 -0.103075E-03  0.771E-02    0.09       1.0  T
  22   -403.8519549  0.298756E-04  0.773E-02    0.09       1.0  T
  23   -403.8518923  0.625490E-04  0.777E-02    0.09       1.0  T
  24   -403.8526780 -0.785650E-03  0.725E-02    0.09       1.0  T
  25   -403.8555120 -0.283406E-02  0.507E-02    0.09       1.0  T
  26   -403.8569500 -0.143795E-02  0.343E-02    0.09       1.0  T
  27   -403.8578696 -0.919566E-03  0.171E-02    0.09       1.0  T
  28   -403.8581261 -0.256516E-03  0.624E-03    0.08       1.1  T
  29   -403.8581257  0.353632E-06  0.611E-03    0.08       1.2  T
  30   -403.8581471 -0.213571E-04  0.401E-03    0.08       1.8  T
  31   -403.8581568 -0.975431E-05  0.260E-03    0.08       2.7  T
  32   -403.8581610 -0.416131E-05  0.169E-03    0.08       4.2  T
  33   -403.8581633 -0.228812E-05  0.812E-04    0.08       8.7  T
  34   -403.8581638 -0.508437E-06  0.395E-04    0.08      17.9  T
  35   -403.8581639 -0.117741E-06  0.174E-04    0.08      40.6  T
  36   -403.8581639 -0.182423E-07  0.103E-04    0.08      68.2  T
     SCC iter.                  ...        0 min,  5.747 sec
     gradient                   ...        0 min,  0.513 sec
 * total energy  :  -398.4768014 Eh     change       -0.9794147E-02 Eh
   gradient norm :     0.0652230 Eh/α   predicted    -0.1340711E-01 (  36.89%)
   displ. norm   :     0.6512384 α      lambda       -0.1061673E-01
   maximum displ.:     0.2847185 α      in ANC's #16, #63, #28, ...

........................................................................
.............................. CYCLE   13 ..............................
........................................................................
   1   -403.8869543 -0.403887E+03  0.644E-02    0.08       0.0  T
   2   -390.4976715  0.133893E+02  0.347E+00    0.01       1.0  T
   3   -403.8880554 -0.133904E+02  0.586E-02    0.08       1.0  T
   4   -399.8520129  0.403604E+01  0.193E+00    0.01       1.0  T
   5   -401.7254041 -0.187339E+01  0.139E+00    0.01       1.0  T
   6   -403.3738194 -0.164842E+01  0.679E-01    0.03       1.0  T
   7   -401.2924998  0.208132E+01  0.155E+00    0.01       1.0  T
   8   -401.1992711  0.932287E-01  0.159E+00    0.00       1.0  T
   9   -402.6423315 -0.144306E+01  0.106E+00    0.01       1.0  T
  10   -403.8021328 -0.115980E+01  0.294E-01    0.10       1.0  T
  11   -403.8149719 -0.128391E-01  0.262E-01    0.06       1.0  T
  12   -403.8682092 -0.532373E-01  0.146E-01    0.08       1.0  T
  13   -403.8789525 -0.107433E-01  0.104E-01    0.08       1.0  T
  14   -403.8746398  0.431270E-02  0.123E-01    0.08       1.0  T
  15   -403.8837644 -0.912459E-02  0.822E-02    0.08       1.0  T
  16   -403.8750118  0.875265E-02  0.122E-01    0.08       1.0  T
  17   -403.8841747 -0.916295E-02  0.802E-02    0.08       1.0  T
  18   -403.8833347  0.840035E-03  0.849E-02    0.08       1.0  T
  19   -403.8870666 -0.373188E-02  0.608E-02    0.08       1.0  T
  20   -403.8901844 -0.311783E-02  0.272E-02    0.08       1.0  T
  21   -403.8904266 -0.242211E-03  0.221E-02    0.08       1.0  T
  22   -403.8907365 -0.309881E-03  0.136E-02    0.08       1.0  T
  23   -403.8909015 -0.165048E-03  0.536E-03    0.08       1.3  T
  24   -403.8909246 -0.230276E-04  0.257E-03    0.08       2.7  T
  25   -403.8909200  0.456770E-05  0.338E-03    0.08       2.1  T
  26   -403.8909062  0.137511E-04  0.494E-03    0.08       1.4  T
  27   -403.8909024  0.382315E-05  0.526E-03    0.08       1.3  T
  28   -403.8909104 -0.798701E-05  0.444E-03    0.08       1.6  T
  29   -403.8909187 -0.832257E-05  0.340E-03    0.08       2.1  T
  30   -403.8909280 -0.928026E-05  0.161E-03    0.08       4.4  T
  31   -403.8909306 -0.256163E-05  0.413E-04    0.08      17.1  T
  32   -403.8909307 -0.166963E-06  0.116E-04    0.08      60.7  T
  33   -403.8909307 -0.136622E-07  0.297E-05    0.08     237.5  T
     SCC iter.                  ...        0 min,  5.272 sec
     gradient                   ...        0 min,  0.509 sec
 * total energy  :  -398.4839119 Eh     change       -0.7110554E-02 Eh
   gradient norm :     0.0355868 Eh/α   predicted    -0.7559706E-02 (   6.32%)
   displ. norm   :     0.7395874 α      lambda       -0.9837530E-02
   maximum displ.:     0.3673842 α      in ANC's #16, #28, #63, ...

........................................................................
.............................. CYCLE   14 ..............................
........................................................................
   1   -403.9114244 -0.403911E+03  0.843E-02    0.06       0.0  T
   2   -388.7331460  0.151783E+02  0.368E+00    0.03       1.0  T
   3   -400.8079671 -0.120748E+02  0.170E+00    0.01       1.0  T
   4   -392.0372531  0.877071E+01  0.324E+00    0.01       1.0  T
   5   -403.5769555 -0.115397E+02  0.556E-01    0.04       1.0  T
   6   -393.7768895  0.980007E+01  0.299E+00    0.03       1.0  T
   7   -403.7528403 -0.997595E+01  0.393E-01    0.09       1.0  T
   8   -403.3909192  0.361921E+00  0.721E-01    0.01       1.0  T
   9   -403.2339251  0.156994E+00  0.795E-01    0.03       1.0  T
  10   -403.4895922 -0.255667E+00  0.623E-01    0.05       1.0  T
  11   -403.6438301 -0.154238E+00  0.499E-01    0.06       1.0  T
  12   -403.6359281  0.790204E-02  0.509E-01    0.06       1.0  T
  13   -403.8281820 -0.192254E+00  0.290E-01    0.08       1.0  T
  14   -403.8613354 -0.331534E-01  0.228E-01    0.07       1.0  T
  15   -403.9172240 -0.558886E-01  0.199E-02    0.08       1.0  T
  16   -403.9157117  0.151236E-02  0.445E-02    0.08       1.0  T
  17   -403.9141773  0.153437E-02  0.567E-02    0.08       1.0  T
  18   -403.9132578  0.919508E-03  0.639E-02    0.08       1.0  T
  19   -403.9119469  0.131090E-02  0.729E-02    0.08       1.0  T
  20   -403.9116770  0.269892E-03  0.746E-02    0.08       1.0  T
  21   -403.9149924 -0.331543E-02  0.492E-02    0.08       1.0  T
  22   -403.9168075 -0.181504E-02  0.254E-02    0.08       1.0  T
  23   -403.9172789 -0.471406E-03  0.129E-02    0.08       1.0  T
  24   -403.9173514 -0.725477E-04  0.904E-03    0.08       1.0  T
  25   -403.9173943 -0.428959E-04  0.545E-03    0.08       1.3  T
  26   -403.9174103 -0.160297E-04  0.281E-03    0.08       2.5  T
  27   -403.9174018  0.854038E-05  0.401E-03    0.08       1.8  T
  28   -403.9174123 -0.105203E-04  0.265E-03    0.08       2.7  T
  29   -403.9174184 -0.611709E-05  0.115E-03    0.08       6.1  T
  30   -403.9174185 -0.514620E-07  0.108E-03    0.08       6.5  T
  31   -403.9174192 -0.669771E-06  0.722E-04    0.08       9.8  T
  32   -403.9174196 -0.397253E-06  0.376E-04    0.08      18.8  T
  33   -403.9174197 -0.993943E-07  0.203E-04    0.08      34.8  T
  34   -403.9174197 -0.929305E-08  0.173E-04    0.08      40.8  T
  35   -403.9174197 -0.243089E-07  0.799E-05    0.08      88.3  T
     SCC iter.                  ...        0 min,  5.583 sec
     gradient                   ...        0 min,  0.514 sec
 * total energy  :  -398.4898082 Eh     change       -0.5896269E-02 Eh
   gradient norm :     0.0563529 Eh/α   predicted    -0.7609283E-02 (  29.05%)
   displ. norm   :     0.7136241 α      lambda       -0.9047322E-02
   maximum displ.:     0.3533835 α      in ANC's #16, #28, #29, ...

........................................................................
.............................. CYCLE   15 ..............................
........................................................................
   1   -403.9399769 -0.403940E+03  0.638E-02    0.07       0.0  T
   2   -390.5965041  0.133435E+02  0.346E+00    0.00       1.0  T
   3   -402.0325994 -0.114361E+02  0.134E+00    0.01       1.0  T
   4   -397.3118592  0.472074E+01  0.244E+00    0.02       1.0  T
   5   -403.7421684 -0.643031E+01  0.420E-01    0.04       1.0  T
   6   -398.5948540  0.514731E+01  0.219E+00    0.00       1.0  T
   7   -398.9849595 -0.390105E+00  0.211E+00    0.00       1.0  T
   8   -394.3873225  0.459764E+01  0.290E+00    0.03       1.0  T
   9   -397.4660201 -0.307870E+01  0.241E+00    0.02       1.0  T
  10   -403.5672151 -0.610119E+01  0.588E-01    0.05       1.0  T
  11   -403.6586367 -0.914216E-01  0.511E-01    0.07       1.0  T
  12   -403.9280939 -0.269457E+00  0.123E-01    0.06       1.0  T
  13   -403.9154974  0.125965E-01  0.160E-01    0.07       1.0  T
  14   -403.9380112 -0.225138E-01  0.716E-02    0.07       1.0  T
  15   -403.9378313  0.179926E-03  0.728E-02    0.07       1.0  T
  16   -403.9399848 -0.215353E-02  0.571E-02    0.08       1.0  T
  17   -403.9385484  0.143639E-02  0.680E-02    0.07       1.0  T
  18   -403.9397480 -0.119952E-02  0.591E-02    0.08       1.0  T
  19   -403.9390732  0.674713E-03  0.644E-02    0.08       1.0  T
  20   -403.9395063 -0.433043E-03  0.610E-02    0.08       1.0  T
  21   -403.9413850 -0.187877E-02  0.436E-02    0.08       1.0  T
  22   -403.9423222 -0.937185E-03  0.313E-02    0.08       1.0  T
  23   -403.9426711 -0.348899E-03  0.253E-02    0.08       1.0  T
  24   -403.9429796 -0.308509E-03  0.182E-02    0.08       1.0  T
  25   -403.9431525 -0.172838E-03  0.125E-02    0.08       1.0  T
  26   -403.9432654 -0.112921E-03  0.685E-03    0.08       1.0  T
  27   -403.9432892 -0.237554E-04  0.487E-03    0.08       1.4  T
  28   -403.9432963 -0.715378E-05  0.410E-03    0.08       1.7  T
  29   -403.9433025 -0.618830E-05  0.331E-03    0.08       2.1  T
  30   -403.9433068 -0.433597E-05  0.260E-03    0.08       2.7  T
  31   -403.9433083 -0.145460E-05  0.231E-03    0.08       3.1  T
  32   -403.9433117 -0.337010E-05  0.140E-03    0.08       5.0  T
  33   -403.9433133 -0.168179E-05  0.555E-04    0.08      12.7  T
  34   -403.9433136 -0.273889E-06  0.203E-04    0.08      34.7  T
  35   -403.9433136 -0.364763E-07  0.799E-05    0.08      88.2  T
  36   -403.9433137 -0.598851E-08  0.229E-05    0.08     307.7  T
     SCC iter.                  ...        0 min,  5.730 sec
     gradient                   ...        0 min,  0.511 sec
 * total energy  :  -398.4940472 Eh     change       -0.4239009E-02 Eh
   gradient norm :     0.0563819 Eh/α   predicted    -0.6827380E-02 (  61.06%)
   displ. norm   :     0.5733081 α      lambda       -0.9256681E-02
   maximum displ.:     0.2974491 α      in ANC's #16, #28, #29, ...

........................................................................
.............................. CYCLE   16 ..............................
........................................................................
   1   -403.9732919 -0.403973E+03  0.352E-02    0.08       0.0  T
   2   -397.9095744  0.606372E+01  0.237E+00    0.02       1.0  T
   3   -402.6597832 -0.475021E+01  0.115E+00    0.07       1.0  T
   4   -403.2166996 -0.556916E+00  0.835E-01    0.04       1.0  T
   5   -403.1502173  0.664823E-01  0.869E-01    0.04       1.0  T
   6   -403.8482180 -0.698001E+00  0.353E-01    0.10       1.0  T
   7   -403.3864496  0.461768E+00  0.736E-01    0.04       1.0  T
   8   -402.6543425  0.732107E+00  0.110E+00    0.01       1.0  T
   9   -403.4822553 -0.827913E+00  0.671E-01    0.05       1.0  T
  10   -403.9342285 -0.451973E+00  0.184E-01    0.07       1.0  T
  11   -403.9023799  0.318485E-01  0.262E-01    0.06       1.0  T
  12   -403.9173870 -0.150071E-01  0.229E-01    0.07       1.0  T
  13   -403.9733710 -0.559840E-01  0.275E-02    0.08       1.0  T
  14   -403.9594723  0.138987E-01  0.118E-01    0.07       1.0  T
  15   -403.9682407 -0.876836E-02  0.745E-02    0.08       1.0  T
  16   -403.9724224 -0.418173E-02  0.408E-02    0.08       1.0  T
  17   -403.9726313 -0.208851E-03  0.389E-02    0.07       1.0  T
  18   -403.9729541 -0.322823E-03  0.346E-02    0.07       1.0  T
  19   -403.9737030 -0.748931E-03  0.216E-02    0.07       1.0  T
  20   -403.9739712 -0.268143E-03  0.141E-02    0.08       1.0  T
  21   -403.9740163 -0.451211E-04  0.115E-02    0.08       1.0  T
  22   -403.9740205 -0.425145E-05  0.102E-02    0.08       1.0  T
  23   -403.9741031 -0.825912E-04  0.236E-03    0.08       3.0  T
  24   -403.9741073 -0.419165E-05  0.918E-04    0.08       7.7  T
  25   -403.9741080 -0.695348E-06  0.530E-04    0.08      13.3  T
  26   -403.9741080 -0.949478E-08  0.528E-04    0.08      13.3  T
  27   -403.9741080 -0.465269E-08  0.517E-04    0.08      13.6  T
  28   -403.9741080  0.603057E-07  0.563E-04    0.08      12.5  T
  29   -403.9741079  0.301850E-07  0.582E-04    0.08      12.1  T
  30   -403.9741081 -0.191710E-06  0.389E-04    0.08      18.1  T
  31   -403.9741083 -0.129453E-06  0.164E-04    0.08      43.1  T
  32   -403.9741083 -0.250583E-07  0.565E-05    0.08     124.8  T
     SCC iter.                  ...        0 min,  5.095 sec
     gradient                   ...        0 min,  0.512 sec
 * total energy  :  -398.4992072 Eh     change       -0.5159937E-02 Eh
   gradient norm :     0.0400114 Eh/α   predicted    -0.6149597E-02 (  19.18%)
   displ. norm   :     0.6916277 α      lambda       -0.6131685E-02
   maximum displ.:     0.3867484 α      in ANC's #16, #28, #29, ...

........................................................................
.............................. CYCLE   17 ..............................
........................................................................
   1   -403.9926561 -0.403993E+03  0.295E-02    0.07       0.0  T
   2   -400.5202837  0.347237E+01  0.180E+00    0.01       1.0  T
   3   -403.6413079 -0.312102E+01  0.586E-01    0.07       1.0  T
   4   -401.6055685  0.203574E+01  0.150E+00    0.01       1.0  T
   5   -403.8783801 -0.227281E+01  0.325E-01    0.05       1.0  T
   6   -403.9132320 -0.348519E-01  0.278E-01    0.09       1.0  T
   7   -403.9585748 -0.453428E-01  0.179E-01    0.07       1.0  T
   8   -403.9603100 -0.173521E-02  0.173E-01    0.07       1.0  T
   9   -403.9902634 -0.299534E-01  0.591E-02    0.07       1.0  T
  10   -403.9850503  0.521319E-02  0.864E-02    0.07       1.0  T
  11   -403.9921797 -0.712947E-02  0.337E-02    0.07       1.0  T
  12   -403.9932101 -0.103041E-02  0.140E-02    0.08       1.0  T
  13   -403.9922890  0.921122E-03  0.319E-02    0.08       1.0  T
  14   -403.9926804 -0.391398E-03  0.258E-02    0.08       1.0  T
  15   -403.9931948 -0.514422E-03  0.141E-02    0.08       1.0  T
  16   -403.9933843 -0.189478E-03  0.530E-03    0.08       1.3  T
  17   -403.9933270  0.573276E-04  0.865E-03    0.08       1.0  T
  18   -403.9934014 -0.744242E-04  0.251E-03    0.08       2.8  T
  19   -403.9934037 -0.226864E-05  0.190E-03    0.08       3.7  T
  20   -403.9934071 -0.336803E-05  0.712E-04    0.08       9.9  T
  21   -403.9934074 -0.328736E-06  0.457E-04    0.08      15.4  T
  22   -403.9934075 -0.127207E-06  0.301E-04    0.08      23.5  T
  23   -403.9934075 -0.336734E-07  0.241E-04    0.08      29.3  T
  24   -403.9934076 -0.209117E-07  0.194E-04    0.08      36.4  T
  25   -403.9934076 -0.123649E-07  0.159E-04    0.08      44.3  T
     SCC iter.                  ...        0 min,  3.983 sec
     gradient                   ...        0 min,  0.514 sec
 * total energy  :  -398.5024205 Eh     change       -0.3213327E-02 Eh
   gradient norm :     0.0343559 Eh/α   predicted    -0.4532392E-02 (  41.05%)
   displ. norm   :     0.6524897 α      lambda       -0.7404454E-02
   maximum displ.:     0.3834203 α      in ANC's #16, #28, #29, ...

........................................................................
.............................. CYCLE   18 ..............................
........................................................................
   1   -404.0061908 -0.404006E+03  0.673E-02    0.06       0.0  T
   2   -399.2555521  0.475064E+01  0.210E+00    0.01       1.0  T
   3   -395.5145190  0.374103E+01  0.275E+00    0.00       1.0  T
   4   -399.6050098 -0.409049E+01  0.203E+00    0.01       1.0  T
   5   -403.9006601 -0.429565E+01  0.314E-01    0.06       1.0  T
   6   -401.7281421  0.217252E+01  0.144E+00    0.01       1.0  T
   7   -403.7532780 -0.202514E+01  0.489E-01    0.06       1.0  T
   8   -402.9485428  0.804735E+00  0.995E-01    0.01       1.0  T
   9   -403.9619515 -0.101341E+01  0.217E-01    0.10       1.0  T
  10   -403.6816866  0.280265E+00  0.551E-01    0.03       1.0  T
  11   -403.9309740 -0.249287E+00  0.271E-01    0.04       1.0  T
  12   -403.9048899  0.260841E-01  0.309E-01    0.05       1.0  T
  13   -404.0034890 -0.985991E-01  0.765E-02    0.07       1.0  T
  14   -404.0075813 -0.409225E-02  0.524E-02    0.08       1.0  T
  15   -404.0064214  0.115985E-02  0.602E-02    0.07       1.0  T
  16   -404.0096292 -0.320777E-02  0.252E-02    0.08       1.0  T
  17   -404.0093879  0.241294E-03  0.296E-02    0.08       1.0  T
  18   -404.0094066 -0.186930E-04  0.291E-02    0.08       1.0  T
  19   -404.0094865 -0.799641E-04  0.282E-02    0.07       1.0  T
  20   -404.0098559 -0.369363E-03  0.215E-02    0.07       1.0  T
  21   -404.0099141 -0.581768E-04  0.203E-02    0.07       1.0  T
  22   -404.0099129  0.121088E-05  0.203E-02    0.07       1.0  T
  23   -404.0099870 -0.741109E-04  0.184E-02    0.07       1.0  T
  24   -404.0101247 -0.137714E-03  0.144E-02    0.07       1.0  T
  25   -404.0102720 -0.147286E-03  0.791E-03    0.07       1.0  T
  26   -404.0103155 -0.434844E-04  0.429E-03    0.07       1.6  T
  27   -404.0103313 -0.158652E-04  0.120E-03    0.07       5.9  T
  28   -404.0103242  0.718516E-05  0.280E-03    0.07       2.5  T
  29   -404.0103242 -0.419340E-07  0.283E-03    0.07       2.5  T
  30   -404.0103316 -0.736750E-05  0.110E-03    0.07       6.4  T
  31   -404.0103328 -0.127526E-05  0.185E-04    0.07      38.1  T
  32   -404.0103329 -0.156188E-07  0.147E-04    0.07      48.0  T
  33   -404.0103329 -0.191066E-07  0.654E-05    0.07     107.9  T
     SCC iter.                  ...        0 min,  5.259 sec
     gradient                   ...        0 min,  0.513 sec
 * total energy  :  -398.5066471 Eh     change       -0.4226634E-02 Eh
   gradient norm :     0.0431780 Eh/α   predicted    -0.5278418E-02 (  24.88%)
   displ. norm   :     0.6720509 α      lambda       -0.4697095E-02
   maximum displ.:     0.4088362 α      in ANC's #16, #28, #29, ...

........................................................................
.............................. CYCLE   19 ..............................
........................................................................
   1   -404.0337191 -0.404034E+03  0.235E-02    0.07       0.0  T
   2   -401.2081739  0.282555E+01  0.164E+00    0.01       1.0  T
   3   -403.9313871 -0.272321E+01  0.328E-01    0.11       1.0  T
   4   -402.9152785  0.101611E+01  0.101E+00    0.02       1.0  T
   5   -403.9832041 -0.106793E+01  0.218E-01    0.04       1.0  T
   6   -403.7698764  0.213328E+00  0.486E-01    0.03       1.0  T
   7   -404.0180430 -0.248167E+00  0.129E-01    0.09       1.0  T
   8   -403.9966810  0.213620E-01  0.183E-01    0.06       1.0  T
   9   -404.0312955 -0.346145E-01  0.514E-02    0.07       1.0  T
  10   -404.0330825 -0.178704E-02  0.340E-02    0.08       1.0  T
  11   -404.0331274 -0.448803E-04  0.328E-02    0.07       1.0  T
  12   -404.0333596 -0.232187E-03  0.295E-02    0.07       1.0  T
  13   -404.0337536 -0.393993E-03  0.225E-02    0.07       1.0  T
  14   -404.0342622 -0.508667E-03  0.629E-03    0.07       1.1  T
  15   -404.0343031 -0.409281E-04  0.206E-03    0.07       3.4  T
  16   -404.0343060 -0.286169E-05  0.121E-03    0.07       5.8  T
  17   -404.0343041  0.192888E-05  0.179E-03    0.07       4.0  T
  18   -404.0343038  0.283842E-06  0.185E-03    0.07       3.8  T
  19   -404.0343052 -0.143480E-05  0.145E-03    0.07       4.9  T
  20   -404.0343067 -0.148131E-05  0.860E-04    0.07       8.2  T
  21   -404.0343070 -0.302090E-06  0.673E-04    0.07      10.5  T
  22   -404.0343074 -0.367391E-06  0.300E-04    0.07      23.5  T
  23   -404.0343074 -0.433920E-07  0.215E-04    0.07      32.8  T
  24   -404.0343074 -0.188877E-07  0.170E-04    0.07      41.5  T
  25   -404.0343075 -0.281278E-07  0.565E-05    0.07     124.8  T
     SCC iter.                  ...        0 min,  3.989 sec
     gradient                   ...        0 min,  0.513 sec
 * total energy  :  -398.5104213 Eh     change       -0.3774138E-02 Eh
   gradient norm :     0.0185233 Eh/α   predicted    -0.3409276E-02 (  -9.67%)
   displ. norm   :     0.7917310 α      lambda       -0.5389133E-02
   maximum displ.:     0.4840459 α      in ANC's #16, #28, #29, ...

........................................................................
.............................. CYCLE   20 ..............................
........................................................................
   1   -404.0558669 -0.404056E+03  0.343E-02    0.07       0.0  T
   2   -399.9374430  0.411842E+01  0.196E+00    0.01       1.0  T
   3   -395.1478475  0.478960E+01  0.282E+00    0.03       1.0  T
   4   -403.9258377 -0.877799E+01  0.345E-01    0.04       1.0  T
   5   -403.9002691  0.255686E-01  0.409E-01    0.11       1.0  T
   6   -402.7985003  0.110177E+01  0.107E+00    0.03       1.0  T
   7   -403.9855358 -0.118704E+01  0.266E-01    0.09       1.0  T
   8   -404.0419028 -0.563671E-01  0.127E-01    0.09       1.0  T
   9   -404.0293191  0.125837E-01  0.157E-01    0.06       1.0  T
  10   -404.0384747 -0.915558E-02  0.132E-01    0.06       1.0  T
  11   -404.0424513 -0.397660E-02  0.116E-01    0.06       1.0  T
  12   -404.0570526 -0.146013E-01  0.113E-02    0.07       1.0  T
  13   -404.0543996  0.265307E-02  0.508E-02    0.07       1.0  T
  14   -404.0545167 -0.117101E-03  0.493E-02    0.07       1.0  T
  15   -404.0568160 -0.229938E-02  0.183E-02    0.07       1.0  T
  16   -404.0566636  0.152399E-03  0.219E-02    0.07       1.0  T
  17   -404.0570362 -0.372574E-03  0.118E-02    0.07       1.0  T
  18   -404.0571815 -0.145318E-03  0.336E-03    0.07       2.1  T
  19   -404.0571904 -0.887594E-05  0.154E-03    0.07       4.6  T
  20   -404.0571925 -0.210343E-05  0.675E-04    0.07      10.5  T
  21   -404.0571929 -0.407566E-06  0.302E-04    0.07      23.4  T
  22   -404.0571929  0.211592E-07  0.329E-04    0.07      21.4  T
  23   -404.0571929  0.415639E-07  0.379E-04    0.07      18.6  T
  24   -404.0571928  0.102748E-06  0.487E-04    0.07      14.5  T
  25   -404.0571928 -0.494461E-07  0.437E-04    0.07      16.1  T
  26   -404.0571929 -0.100252E-06  0.313E-04    0.07      22.5  T
  27   -404.0571929 -0.196060E-07  0.281E-04    0.07      25.1  T
  28   -404.0571929 -0.180477E-07  0.249E-04    0.07      28.3  T
  29   -404.0571930 -0.319489E-07  0.178E-04    0.07      39.7  T
  30   -404.0571930 -0.250877E-07  0.861E-05    0.07      81.9  T
     SCC iter.                  ...        0 min,  4.775 sec
     gradient                   ...        0 min,  0.513 sec
 * total energy  :  -398.5131332 Eh     change       -0.2711902E-02 Eh
   gradient norm :     0.0428170 Eh/α   predicted    -0.4383628E-02 (  61.64%)
   displ. norm   :     0.6585873 α      lambda       -0.4828591E-02
   maximum displ.:     0.4078404 α      in ANC's #16, #28, #29, ...
 * RMSD in coord.:     0.7157718 α      energy gain  -0.1093724E+01 Eh

generating ANC from model Hessian ...
Using Lindh-Hessian (1995)
 Shifting diagonal of input Hessian by    1.0025027143110840E-002
 Lowest  eigenvalues of input Hessian
    0.010000    0.010006    0.010009    0.010012    0.010018    0.010021
    0.010024    0.000000    0.000000    0.000000    0.000000    0.000000
    0.000000    0.010031    0.010035    0.010042    0.010119    0.010137
 Highest eigenvalues
    2.409848    2.417137    2.723004    2.723648    2.932115    2.934490


........................................................................
.............................. CYCLE   21 ..............................
........................................................................
   1   -404.0692250 -0.404069E+03  0.399E-02    0.06       0.0  T
   2   -400.9674240  0.310180E+01  0.172E+00    0.01       1.0  T
   3   -403.6535693 -0.268615E+01  0.639E-01    0.07       1.0  T
   4   -401.4897319  0.216384E+01  0.154E+00    0.01       1.0  T
   5   -404.0552732 -0.256554E+01  0.119E-01    0.05       1.0  T
   6   -403.8738575  0.181416E+00  0.421E-01    0.04       1.0  T
   7   -404.0555155 -0.181658E+00  0.123E-01    0.08       1.0  T
   8   -404.0523622  0.315331E-02  0.128E-01    0.06       1.0  T
   9   -404.0607389 -0.837673E-02  0.944E-02    0.06       1.0  T
  10   -404.0678996 -0.716067E-02  0.518E-02    0.07       1.0  T
  11   -404.0674366  0.463000E-03  0.554E-02    0.06       1.0  T
  12   -404.0707461 -0.330946E-02  0.731E-03    0.07       1.0  T
  13   -404.0702160  0.530031E-03  0.233E-02    0.06       1.0  T
[...]
   163   6 C    3.905 --   164 C    1.246   162 C    1.242   133 C    1.213
   164   6 C    3.904 --   168 N    1.247   163 C    1.246   165 C    1.190
   165   6 C    3.959 --   166 C    1.634   164 C    1.190   193 H    0.973
   166   6 C    3.958 --   165 C    1.634   167 C    1.183   194 H    0.973
   167   6 C    3.914 --   169 C    1.322   168 N    1.205   166 C    1.183
   168   7 N    3.366 --   164 C    1.247   167 C    1.205   141 Fe   0.648
   169   6 C    3.914 --   179 C    1.324   167 C    1.322   170 C    1.028
   170   6 C    3.988 --   171 C    1.396   178 C    1.396   169 C    1.028
   171   6 C    3.976 --   170 C    1.396   172 C    1.377   195 H    0.970
   172   6 C    3.917 --   171 C    1.377   174 C    1.331   173 O    1.057
   173   8 O    2.053 --   172 C    1.057   196 H    0.847
   174   6 C    3.888 --   176 C    1.346   172 C    1.331   175 O    0.982
   175   8 O    1.985 --   174 C    0.982   197 H    0.863
   176   6 C    3.910 --   178 C    1.379   174 C    1.346   177 O    1.028
   177   8 O    2.030 --   176 C    1.028   198 H    0.862
   178   6 C    3.976 --   170 C    1.396   176 C    1.379   199 H    0.970
   179   6 C    3.914 --   169 C    1.324   183 N    1.204   180 C    1.183
   180   6 C    3.958 --   181 C    1.634   179 C    1.183   200 H    0.973
   181   6 C    3.959 --   180 C    1.634   182 C    1.191   201 H    0.973
   182   6 C    3.904 --   183 N    1.249   142 C    1.244   181 C    1.191
   183   7 N    3.367 --   182 C    1.249   179 C    1.204   141 Fe   0.648
   184   1 H    1.001 --   144 C    0.973
   185   1 H    1.005 --   145 C    0.973
   186   1 H    1.001 --   150 C    0.969
   187   1 H    0.886 --   152 O    0.866
   188   1 H    0.880 --   154 O    0.849
   189   1 H    0.881 --   156 O    0.860
   190   1 H    1.000 --   157 C    0.969
   191   1 H    1.005 --   159 C    0.973
   192   1 H    1.001 --   160 C    0.973
   193   1 H    1.001 --   165 C    0.973
   194   1 H    1.005 --   166 C    0.973
   195   1 H    0.999 --   171 C    0.970
   196   1 H    0.880 --   173 O    0.847
   197   1 H    0.883 --   175 O    0.863
   198   1 H    0.885 --   177 O    0.862
   199   1 H    1.000 --   178 C    0.970
   200   1 H    1.005 --   180 C    0.973
   201   1 H    1.001 --   181 C    0.973
 ---------------------------------------------------------------------------

Topologies differ in total number of bonds
Writing topology from bond orders to xtbtopo.mol

 dipole moment from electron density (au)
     X       Y       Z   
  -0.8160  -2.4808  -0.4879  total (Debye):    6.753

           -------------------------------------------------
          |                Geometry Summary                 |
           -------------------------------------------------

      molecular mass/u    :     2025.2522632
   center of mass at/Å    :       46.7361981      -0.0167983      -0.0231157
  moments of inertia/u·Å² :        0.4529696E+05   0.4467173E+06   0.4893366E+06
rotational constants/cm⁻¹ :        0.3721582E-03   0.3773669E-04   0.3444997E-04

 * 202 selected distances

     #   Z          #   Z                                           value/Å
     2   6 C        3   6 C                                       1.3790058
     3   6 C        4   6 C                                       1.4316943
     4   6 C        5   6 C                                       1.3533155
     5   6 C        6   6 C                                       1.4346819 (max)
     3   6 C        7   7 N                                       1.3703765
     6   6 C        7   7 N                                       1.3687829
     6   6 C        8   6 C                                       1.3906503
     9   6 C       10   6 C                                       1.3946671
    10   6 C       11   6 C                                       1.3900771
    11   6 C       12   8 O                                       1.3551248
    11   6 C       13   6 C                                       1.3959614
    13   6 C       14   8 O                                       1.3700574
    13   6 C       15   6 C                                       1.3925955
    15   6 C       16   8 O                                       1.3700260
     9   6 C       17   6 C                                       1.3971959
    15   6 C       17   6 C                                       1.3894241
     8   6 C       18   6 C                                       1.3872044
    18   6 C       19   6 C                                       1.4329214
    19   6 C       20   6 C                                       1.3542741
    18   6 C       21   7 N                                       1.3754181
    20   6 C       22   6 C                                       1.4292907
    21   7 N       22   6 C                                       1.3628176
    22   6 C       23   6 C                                       1.4003833
    23   6 C       24   6 C                                       1.4000197
    24   6 C       25   6 C                                       1.4294466
    25   6 C       26   6 C                                       1.3541008
    26   6 C       27   6 C                                       1.4330524
    24   6 C       28   7 N                                       1.3629140
    27   6 C       28   7 N                                       1.3754754
    27   6 C       29   6 C                                       1.3869663
    30   6 C       31   6 C                                       1.3947054
    31   6 C       32   6 C                                       1.3901163
    32   6 C       33   8 O                                       1.3550998
    32   6 C       34   6 C                                       1.3958922
    34   6 C       35   8 O                                       1.3700948
    34   6 C       36   6 C                                       1.3926549
    36   6 C       37   8 O                                       1.3701055
    30   6 C       38   6 C                                       1.3973967
    36   6 C       38   6 C                                       1.3892766
    29   6 C       39   6 C                                       1.3910038
    39   6 C       40   6 C                                       1.4344992
    40   6 C       41   6 C                                       1.3536698
     2   6 C       42   6 C                                       1.3792345
    41   6 C       42   6 C                                       1.4314287
    39   6 C       43   7 N                                       1.3685890
    42   6 C       43   7 N                                       1.3702961
     2   6 C       44   1 H                                       1.0842850
     4   6 C       45   1 H                                       1.0784447
     5   6 C       46   1 H                                       1.0778062
    10   6 C       47   1 H                                       1.0823070
    12   8 O       48   1 H                                       0.9714912
    14   8 O       49   1 H                                       0.9704760
    16   8 O       50   1 H                                       0.9661977
    17   6 C       51   1 H                                       1.0836352
    19   6 C       52   1 H                                       1.0777532
    20   6 C       53   1 H                                       1.0780751
    25   6 C       54   1 H                                       1.0780657
    26   6 C       55   1 H                                       1.0776558
    31   6 C       56   1 H                                       1.0822792
    33   8 O       57   1 H                                       0.9714623
    35   8 O       58   1 H                                       0.9704797
    37   8 O       59   1 H                                       0.9663244
    38   6 C       60   1 H                                       1.0836986
    40   6 C       61   1 H                                       1.0779351
    41   6 C       62   1 H                                       1.0784708
    64   6 C       65   6 C                                       1.3790321
    65   6 C       66   6 C                                       1.4316505
    66   6 C       67   6 C                                       1.3533458
    67   6 C       68   6 C                                       1.4346657
    65   6 C       69   7 N                                       1.3703925
    68   6 C       69   7 N                                       1.3687203
    68   6 C       70   6 C                                       1.3907382
    71   6 C       72   6 C                                       1.3946870
    72   6 C       73   6 C                                       1.3900527
    73   6 C       74   8 O                                       1.3550888
    73   6 C       75   6 C                                       1.3959828
    75   6 C       76   8 O                                       1.3700548
    75   6 C       77   6 C                                       1.3925861
    77   6 C       78   8 O                                       1.3700577
    71   6 C       79   6 C                                       1.3971984
    77   6 C       79   6 C                                       1.3894152
    70   6 C       80   6 C                                       1.3871959
    80   6 C       81   6 C                                       1.4329129
    81   6 C       82   6 C                                       1.3542914
    80   6 C       83   7 N                                       1.3754506
    82   6 C       84   6 C                                       1.4292609
    83   7 N       84   6 C                                       1.3627610
    84   6 C       85   6 C                                       1.4004501
    85   6 C       86   6 C                                       1.4001361
    86   6 C       87   6 C                                       1.4294363
    87   6 C       88   6 C                                       1.3540797
    88   6 C       89   6 C                                       1.4330512
    86   6 C       90   7 N                                       1.3628612
    89   6 C       90   7 N                                       1.3755471
    89   6 C       91   6 C                                       1.3869240
    92   6 C       93   6 C                                       1.3947160
    93   6 C       94   6 C                                       1.3901169
    94   6 C       95   8 O                                       1.3550173
    94   6 C       96   6 C                                       1.3959442
    96   6 C       97   8 O                                       1.3699434
    96   6 C       98   6 C                                       1.3926871
    98   6 C       99   8 O                                       1.3700206
    92   6 C      100   6 C                                       1.3973904
    98   6 C      100   6 C                                       1.3892794
    91   6 C      101   6 C                                       1.3910892
   101   6 C      102   6 C                                       1.4344641
   102   6 C      103   6 C                                       1.3536886
    64   6 C      104   6 C                                       1.3792250
   103   6 C      104   6 C                                       1.4314042
   101   6 C      105   7 N                                       1.3684901
   104   6 C      105   7 N                                       1.3703285
    64   6 C      106   1 H                                       1.0842882
    66   6 C      107   1 H                                       1.0784435
    67   6 C      108   1 H                                       1.0778072
    72   6 C      109   1 H                                       1.0823035
    74   8 O      110   1 H                                       0.9714793
    76   8 O      111   1 H                                       0.9704698
    78   8 O      112   1 H                                       0.9661974
    79   6 C      113   1 H                                       1.0836374
    81   6 C      114   1 H                                       1.0777468
    82   6 C      115   1 H                                       1.0780713
    87   6 C      116   1 H                                       1.0780521
    88   6 C      117   1 H                                       1.0776371
    93   6 C      118   1 H                                       1.0822825
    95   8 O      119   1 H                                       0.9714815
    97   8 O      120   1 H                                       0.9704796
    99   8 O      121   1 H                                       0.9662659
   100   6 C      122   1 H                                       1.0836671
   102   6 C      123   1 H                                       1.0779282
   103   6 C      124   1 H                                       1.0784693
   125   6 C      126   6 C                                       1.2266979
   127   6 C      128   6 C                                       1.2331339
   129   6 C      130   6 C                                       1.2332299
   131   6 C      132   6 C                                       1.2270118
   133   6 C      134   6 C                                       1.2270933
   135   6 C      136   6 C                                       1.2332944
   137   6 C      138   6 C                                       1.2332003
   139   6 C      140   6 C                                       1.2267444
   142   6 C      143   6 C                                       1.4015806
   143   6 C      144   6 C                                       1.4284314
   144   6 C      145   6 C                                       1.3558206
   145   6 C      146   6 C                                       1.4318466
   143   6 C      147   7 N                                       1.3629103
   146   6 C      147   7 N                                       1.3732365
   146   6 C      148   6 C                                       1.3903225
   149   6 C      150   6 C                                       1.3955587
   150   6 C      151   6 C                                       1.3920025
   151   6 C      152   8 O                                       1.3579300
   151   6 C      153   6 C                                       1.3990957
   153   6 C      154   8 O                                       1.3572826
   153   6 C      155   6 C                                       1.3979159
   155   6 C      156   8 O                                       1.3705509
   149   6 C      157   6 C                                       1.3963599
   155   6 C      157   6 C                                       1.3875885
   148   6 C      158   6 C                                       1.3897797
   158   6 C      159   6 C                                       1.4320458
   159   6 C      160   6 C                                       1.3557168
   158   6 C      161   7 N                                       1.3739245
   160   6 C      162   6 C                                       1.4283859
   161   7 N      162   6 C                                       1.3623936
   162   6 C      163   6 C                                       1.4019039
   163   6 C      164   6 C                                       1.4013197
   164   6 C      165   6 C                                       1.4288851
   165   6 C      166   6 C                                       1.3553474
   166   6 C      167   6 C                                       1.4321577
   164   6 C      168   7 N                                       1.3628229
   167   6 C      168   7 N                                       1.3733805
   167   6 C      169   6 C                                       1.3895390
   170   6 C      171   6 C                                       1.3952580
   171   6 C      172   6 C                                       1.3899999
   172   6 C      173   8 O                                       1.3533253
   172   6 C      174   6 C                                       1.3965616
   174   6 C      175   8 O                                       1.3865808
   174   6 C      176   6 C                                       1.3937091
   176   6 C      177   8 O                                       1.3639995
   170   6 C      178   6 C                                       1.3952222
   176   6 C      178   6 C                                       1.3903092
   169   6 C      179   6 C                                       1.3893258
   179   6 C      180   6 C                                       1.4321551
   180   6 C      181   6 C                                       1.3554647
   142   6 C      182   6 C                                       1.4016155
   181   6 C      182   6 C                                       1.4287186
   179   6 C      183   7 N                                       1.3738315
   182   6 C      183   7 N                                       1.3624469
   144   6 C      184   1 H                                       1.0780905
   145   6 C      185   1 H                                       1.0777884
   150   6 C      186   1 H                                       1.0841398
   152   8 O      187   1 H                                       0.9662297
   154   8 O      188   1 H                                       0.9708909
   156   8 O      189   1 H                                       0.9660348 (min)
   157   6 C      190   1 H                                       1.0835869
   159   6 C      191   1 H                                       1.0777273
   160   6 C      192   1 H                                       1.0780653
   165   6 C      193   1 H                                       1.0780495
   166   6 C      194   1 H                                       1.0776845
   171   6 C      195   1 H                                       1.0822562
   173   8 O      196   1 H                                       0.9719359
   175   8 O      197   1 H                                       0.9661833
   177   8 O      198   1 H                                       0.9677756
   178   6 C      199   1 H                                       1.0822454
   180   6 C      200   1 H                                       1.0777198
   181   6 C      201   1 H                                       1.0780672

 * 5 distinct bonds (by element types)

   Z      Z             #   av. dist./Å        max./Å        min./Å
   1 H    6 C          38     1.0798991     1.0842882     1.0776371
   6 C    6 C         104     1.3847524     1.4346819     1.2266979
   6 C    7 N          24     1.3689236     1.3755471     1.3623936
   1 H    8 O          18     0.9689919     0.9719359     0.9660348
   6 C    8 O          18     1.3650200     1.3865808     1.3533253


optimized geometry written to: xtbopt.xyz


           -------------------------------------------------
          | TOTAL ENERGY             -398.539893221535 Eh   |
          | GRADIENT NORM               0.000528847117 Eh/α |
          | HOMO-LUMO GAP               0.051610965328 eV   |
           -------------------------------------------------

------------------------------------------------------------------------
 * finished run on 2022/07/29 at 22:36:23.090     
------------------------------------------------------------------------
 total:
 * wall-time:     0 d,  0 h,  6 min, 10.873 sec
 *  cpu-time:     0 d,  0 h,  6 min,  8.805 sec
 * ratio c/w:     0.994 speedup
 SCF:
 * wall-time:     0 d,  0 h,  0 min, 21.781 sec
 *  cpu-time:     0 d,  0 h,  0 min, 21.653 sec
 * ratio c/w:     0.994 speedup
 ANC optimizer:
 * wall-time:     0 d,  0 h,  5 min, 48.873 sec
 *  cpu-time:     0 d,  0 h,  5 min, 46.943 sec
 * ratio c/w:     0.994 speedup

