201
 energy: -398.539893221535 gnorm: 0.000528847117 xtb: 6.5.1 (b24c23e)
Fe          28.18360253502243        0.00213371322246       -0.02028177949323
C           24.79163070069978        0.05027250399378       -0.10576830486146
C           25.45107609446274        1.26137304237846       -0.10087387822143
C           24.77716648357401        2.52448952294328       -0.11230781069804
C           25.73817266220257        3.47634817305268       -0.06877795605925
C           26.99895732894127        2.79234026367033       -0.03933234577432
N           26.80944517770920        1.43684839478192       -0.05645336806288
C           28.22667957848946        3.43937928816829        0.04981123663964
C           28.24414028401726        4.92324142784831        0.07869157841273
C           27.79817084250438        5.64945319489596       -1.02531194806560
C           27.82059084412897        7.03911284493934       -0.99967324120295
O           27.39821099889268        7.75553994299313       -2.06957522558775
C           28.28134646377274        7.70621408652265        0.13671935758677
O           28.28798860489967        9.07625353842819        0.13456931625575
C           28.72148454535840        6.98002443431581        1.24046248533101
O           29.15472671798648        7.70433553816398        2.31964999142537
C           28.70921434696517        5.59089695760847        1.21451653683302
C           29.43490328116999        2.76099372486160        0.11557024629640
C           30.70985841268193        3.41238226344771        0.17427035336296
C           31.64795137720741        2.43572156480099        0.18744050493439
N           29.59778962442495        1.39559595777261        0.08504965827801
C           30.94480232065774        1.19284499229559        0.12652513734321
C           31.59586722978158       -0.04606835887222        0.07876290272413
C           30.91400206112863       -1.26619949817480       -0.00120376271779
C           31.58478566223525       -2.52631766406731       -0.07515444538582
C           30.62070357535199       -3.47569037529746       -0.12831388831419
C           29.36275066085974       -2.79124978003174       -0.07602337767426
N           29.56122108082968       -1.43157203490457       -0.01423124207028
C           28.13443997669634       -3.43490069282500       -0.10135371263018
C           28.11060980777066       -4.91785862401591       -0.14913740148585
C           28.63451670216810       -5.66273288878133        0.90721794245554
C           28.60768360760617       -7.05179837835364        0.86031294642113
O           29.10611102323414       -7.78618959307350        1.88429281390860
C           28.06430217710431       -7.69967666809981       -0.25031973549229
O           28.05598528625324       -9.06959114092610       -0.27092714276970
C           27.54554962166485       -6.95496517957560       -1.30662839752531
O           27.03378374348144       -7.66102724880571       -2.36339739632175
C           27.56165681656067       -5.56661926994442       -1.25840631177425
C           26.92226896841870       -2.75272584782635       -0.08831037202739
C           25.64287886558339       -3.40121755568991       -0.06813425024312
C           24.70764349880719       -2.42257349286194       -0.07161187308599
C           25.41654747709904       -1.17907570708695       -0.08410230555101
N           26.77009156467523       -1.39264856837622       -0.08010777216019
H           23.70762600986842        0.06548251871558       -0.12516454228395
H           23.70599162315361        2.64596559889900       -0.14181783544776
H           25.61679720790891        4.54708586406205       -0.04745324042630
H           27.45072745789098        5.14159778912689       -1.91567945571326
H           27.49156539383427        8.69975358606162       -1.86091143103303
H           28.63453687312324        9.37506264638003        0.99039688779319
H           29.43828341578197        7.11993637863707        3.03491989137574
H           29.04209418580959        5.03140569244307        2.08078754559567
H           30.85911987127061        4.47964880518159        0.18893209439613
H           32.72099985000430        2.53280509356860        0.22468833892308
H           32.65546994271464       -2.65150435413793       -0.08889579800954
H           30.74043602095982       -4.54399449281455       -0.20402582247059
H           29.04713698344212       -5.16997771329154        1.77800197333428
H           28.99659475731545       -8.72670061134056        1.66707395171855
H           27.64811655768735       -9.35350957109188       -1.10451217955687
H           26.70268530016955       -7.06442788073556       -3.04766756575315
H           27.16712758577054       -4.99266733223638       -2.08866430888217
H           25.49230407630385       -4.46830898370880       -0.04390682631240
H           23.63312109903096       -2.51418637080307       -0.06122769066888
Fe          65.28739658975186       -0.04232241982685        0.00533539454707
C           68.67911560624427       -0.07954029523806       -0.09965278091696
C           68.01935622216953       -1.28336110288538       -0.23103871243145
C           68.69272371998628       -2.53652576159867       -0.39159226795003
C           67.73134705674100       -3.48664520300492       -0.45921142887294
C           66.47094784700194       -2.81061872125941       -0.34675167944858
N           66.66099697318748       -1.46262991643497       -0.20461678605276
C           65.24326402769707       -3.46381246767472       -0.32993282954104
C           65.22609717449903       -4.94045747271713       -0.47824531260355
C           65.66820205683115       -5.52914521494678       -1.66278808889837
C           65.64709647700919       -6.91193395881653       -1.80313019025240
O           66.06591339251743       -7.49495792216774       -2.95245200376149
C           65.19161299637420       -7.71050372176170       -0.75261183844814
O           65.18642610973470       -9.07052073888979       -0.91807076609107
C           64.75535842922986       -7.12181757481588        0.43162895085205
O           64.32737216272628       -7.97030448079958        1.41852071880133
C           64.76631265934041       -5.73951847302421        0.57164168399827
C           64.03575745501954       -2.79870700383752       -0.17541877376474
C           62.76105782319748       -3.45317248614066       -0.18281881292743
C           61.82379926841998       -2.48588984722282       -0.04134272455406
N           63.87333808206463       -1.43957110897693       -0.04038696491225
C           62.52703979340794       -1.24426553565026        0.03994857357989
C           61.87621169974074       -0.00881352671315        0.14644381103347
C           62.55781155209218        1.21313075981428        0.19796489208451
C           61.88657960855804        2.47295179690242        0.27270746193410
C           62.85017575145985        3.42351724543306        0.31064703782007
C           64.10847491252791        2.73885603715275        0.27117946912873
N           63.91031697000418        1.38035565458642        0.18550837363385
C           65.33654907819225        3.38256977963662        0.30318240216420
C           65.36065754159047        4.86189038650953        0.41658455110294
C           64.84690588496085        5.48756772666727        1.55228679363007
C           64.87400540268214        6.87354202781294        1.65604423712972
O           64.38539537833547        7.49217697858879        2.75814336045496
C           65.40743377068442        7.63829747815736        0.61716840098770
O           65.41597696226088        9.00222387435838        0.74513901670476
C           65.91626789921642        7.01271438814976       -0.51830977345082
O           66.41864690248386        7.82940222144075       -1.49687632096045
C           65.90006338050149        5.62730531910101       -0.62066227214992
C           66.54877743889872        2.70388088707683        0.23238352118083
C           67.82821622510762        3.34700424244010        0.31673785720840
C           68.76343195770492        2.37476948638662        0.20447245458463
C           68.05444515302744        1.13971066615663        0.05995635023105
N           66.70090620518762        1.35111792746755        0.09219100128377
H           69.76306259407461       -0.09235341749556       -0.12364108578263
H           69.76379025724664       -2.65391314493530       -0.43716534972555
H           67.85232372092115       -4.55245851230832       -0.56444861259014
H           66.01169235692879       -4.91813151432296       -2.48744398179607
H           65.97393470841081       -8.45743315802349       -2.85783107533734
H           64.84365456650927       -9.46971449037103       -0.10261784427922
H           64.04610642882307       -7.47565315222964        2.19938359876574
H           64.43685247106033       -5.28792865369627        1.49996939291559
H           62.61116152183319       -4.51445412168755       -0.29573650911578
H           60.75115701473045       -2.58749970535404       -0.00457930955378
H           60.81586707852649        2.59771132289839        0.28705415176631
H           62.72975376129245        4.49352945375150        0.35393661095914
H           64.44217619476909        4.90312611375029        2.36834871240597
H           64.49202750992778        8.45088344525260        2.64287125566595
H           65.81494516882024        9.37550938273274       -0.05692878729469
H           66.74142791825777        7.31099511216485       -2.24569952635544
H           66.28683528550464        5.14689595714229       -1.51170014671978
H           67.97887291993838        4.40532020519499        0.45529810229394
H           69.83799107815672        2.46510495847993        0.22053437740159
C           32.99581873292353       -0.06296895362974        0.09731869295936
C           34.22245879287735       -0.07152522284271        0.10559108856243
C           35.56133832867065       -0.07736359543862        0.10626678722451
C           36.79445127248727       -0.07684043212184        0.09911488525446
C           38.12829314943489       -0.07232759485120        0.08690645917446
C           39.36137531443310       -0.06469051184678        0.06941724775629
C           40.69960665796756       -0.05596051888946        0.04655721627120
C           41.92632514646947       -0.04396989465877        0.02256425550870
C           51.54685570395939        0.00446857076308        0.11971696811958
C           52.77339298632867        0.01168345398569        0.15593670192450
C           54.11144536106881        0.01531725024473        0.18640810763449
C           55.34453572960165        0.01962705645987        0.20841882840923
C           56.67830930190956        0.01923475399676        0.21785153968441
C           57.91150927189135        0.01860626047523        0.21826587245960
C           59.25021002410638        0.01341130653415        0.20573835184353
C           60.47672924586156        0.00500826692290        0.18379430425445
Fe          46.73746533254752       -0.01222224941149       -0.01179961731336
C           43.32467758850497       -0.03186036599855       -0.00156107069347
C           43.99032905792276        1.17727103780109        0.24203101674691
C           43.31275015430381        2.40048471133142        0.53366622211915
C           44.26115541575908        3.36865577142936        0.57136760338830
C           45.51325221402397        2.73039824782129        0.29738730714162
N           45.33425798214002        1.37831664139243        0.13734214344936
C           46.72044686341153        3.40773654053797        0.16742519913433
C           46.71042614484899        4.88719944616316        0.24130841766829
C           47.42682477322199        5.54732168649739        1.24060581717497
C           47.41901191140428        6.93654458510549        1.32818055498896
O           48.09898090232014        7.59061487550725        2.30481135344691
C           46.69767915220434        7.68637515716660        0.39281877426113
O           46.67796254887563        9.04247042082208        0.44603986707219
C           45.98855298877394        7.01765586549093       -0.60924065039305
O           45.30887744578648        7.81183717872815       -1.49565286811551
C           45.98113058735830        5.63229874185889       -0.68754881663829
C           47.93610560067290        2.75918726028772       -0.01435731414606
C           49.18835624906955        3.43346150322570       -0.18162143745878
C           50.14850227696559        2.47640050875848       -0.19264932904143
N           48.12782346782537        1.39907573935194        0.01740802192476
C           49.47719087304247        1.22367895809992       -0.05011618477745
C           50.14906084207163       -0.00039074967337        0.07469672003645
C           49.47932403629068       -1.22963761601316        0.13873757357599
C           50.15221139952116       -2.48294761878056        0.27345498264363
C           49.20480677227533       -3.44520128604840        0.15744330459889
C           47.95782233809517       -2.77282878559795       -0.05236717874367
N           48.13807297991895       -1.41171454431218       -0.01994303402999
C           46.75586395987487       -3.42274902141162       -0.30479140896876
C           46.76585187846117       -4.90015865332606       -0.43368834436793
C           47.50824375442181       -5.50544623645242       -1.44819596150380
C           47.50623541181103       -6.88949453357352       -1.57667073211989
O           48.20577765389428       -7.48933123785335       -2.56779411148770
C           46.77042423411937       -7.66892468799217       -0.68143080219677
O           46.80087391505779       -9.04590554524736       -0.84143893370987
C           46.06214652835809       -7.06695120644319        0.35702735027661
O           45.37207080737203       -7.82601364363256        1.25597893147196
C           46.04257271362862       -5.68123373235375        0.46821724770492
C           45.54409481445558       -2.75403622857603       -0.42588926382515
C           44.29666739077518       -3.39827827597068       -0.70863447580153
C           43.33529631830342       -2.44809943871654       -0.60758976136014
C           44.00138638523568       -1.22696015008112       -0.28143127996025
N           45.34958085171429       -1.41093137096011       -0.21223942795813
H           42.24916436428686        2.49299987775305        0.68368351269905
H           44.13325257784343        4.41960372622356        0.77330044691218
H           47.97936226702694        4.97498978504249        1.97714997366635
H           48.55314404804649        6.97063189673414        2.89043638486650
H           46.12726499290539        9.36781109041607       -0.28438093890366
H           44.85139744769040        7.27747424868831       -2.15776417304191
H           45.43232644974693        5.13697916154374       -1.47978166348856
H           49.30901562819494        4.49987512443078       -0.28010655744288
H           51.21569683199744        2.59378353881199       -0.29033064860270
H           51.21266324232832       -2.59661224752144        0.43065776275973
H           49.32946231783212       -4.51425287010969        0.21215468756559
H           48.06650034964625       -4.90776948247519       -2.15700508455950
H           48.08188268768357       -8.45035419842325       -2.49200373408098
H           45.92498060760150       -9.42723015858817       -0.69682750874563
H           45.68862080625691       -8.74038041686700        1.23812108777921
H           45.48833958152765       -5.22334083262715        1.27717623471203
H           44.18042473594938       -4.44185607051056       -0.95135408037149
H           42.27033652860524       -2.54996354231129       -0.74068012173826
