201
 energy: -397.419408847101 gnorm: 1.531235863783 xtb: 6.5.1 (b24c23e)
Fe          27.26844200000000       -0.04764100000000       -0.01838700000000
C           23.93530300000000        0.10337100000000        0.08802300000000
C           24.60211500000000        1.26031600000000        0.06662300000000
C           23.95374400000000        2.56593500000000        0.06541900000000
C           24.89738400000000        3.48800500000000        0.05745800000000
C           26.20253100000000        2.81295500000000        0.05539000000000
N           26.02254900000000        1.39673000000000        0.06042500000000
C           27.39648100000000        3.43784700000000        0.08530700000000
C           27.43400500000000        4.91655000000000        0.09282200000000
C           27.22466600000000        5.63182500000000       -1.09415200000000
C           27.24632000000000        7.03016400000000       -1.09121500000000
O           27.03204300000000        7.71134200000000       -2.28960300000000
C           27.47938400000000        7.72582300000000        0.10893700000000
O           27.49501200000000        9.12135600000000        0.10487100000000
C           27.69315900000000        7.00980900000000        1.30102900000000
O           27.92600500000000        7.69250700000000        2.49367000000000
C           27.67068300000000        5.60857900000000        1.28763600000000
C           28.69468800000000        2.71374200000000        0.12366200000000
C           29.99396200000000        3.38326800000000        0.25508600000000
C           30.92828700000000        2.45609800000000        0.24043200000000
N           28.82931200000000        1.42596700000000        0.02307700000000
C           30.23518300000000        1.18219600000000        0.08890400000000
C           30.83039200000000       -0.01851200000000       -0.01949200000000
C           30.07743200000000       -1.28404300000000       -0.19964300000000
C           30.64272200000000       -2.44598500000000       -0.50477100000000
C           29.59522600000000       -3.44504500000000       -0.53496900000000
C           28.45353600000000       -2.83087700000000       -0.24891200000000
N           28.66728700000000       -1.43416000000000       -0.02262300000000
C           27.14442600000000       -3.52459200000000       -0.13044300000000
C           27.12561000000000       -5.00337300000000       -0.14904900000000
C           27.27224000000000       -5.72137500000000        1.04435900000000
C           27.25095600000000       -7.11983700000000        1.03550100000000
O           27.39268400000000       -7.80512100000000        2.24223300000000
C           27.08762900000000       -7.81180300000000       -0.17848300000000
O           27.07079800000000       -9.20723700000000       -0.17950000000000
C           26.94572500000000       -7.09202200000000       -1.37902800000000
O           26.78828500000000       -7.77142600000000       -2.58623700000000
C           26.96389700000000       -5.69071000000000       -1.35901400000000
C           25.98175200000000       -2.85941600000000       -0.00834900000000
C           24.65782200000000       -3.46758700000000        0.11036600000000
C           23.79881100000000       -2.46894400000000        0.16210100000000
C           24.56492200000000       -1.22631300000000        0.08210800000000
N           25.83965500000000       -1.44106500000000       -0.01833600000000
H           22.85241900000000        0.13615500000000        0.11264300000000
H           22.88911700000000        2.76169500000000        0.07453200000000
H           24.71370400000000        4.55465500000000        0.06401600000000
H           27.04093400000000        5.10150300000000       -2.02084400000000
H           27.03701700000000        8.72278100000000       -2.34257800000000
H           27.64538600000000        9.66161100000000        0.94787800000000
H           28.08231800000000        7.20018200000000        3.36559100000000
H           27.83340900000000        5.05798000000000        2.20629500000000
H           30.17752800000000        4.44582700000000        0.34500000000000
H           31.99207600000000        2.63927400000000        0.31518700000000
H           31.69237400000000       -2.63089300000000       -0.68674400000000
H           29.73011900000000       -4.49981000000000       -0.73791200000000
H           27.39941500000000       -5.19362000000000        1.98180800000000
H           27.37436800000000       -8.81618800000000        2.29260000000000
H           26.95690500000000       -9.74535500000000       -1.02992700000000
H           26.68844600000000       -7.27712600000000       -3.46565500000000
H           26.85355800000000       -5.13722700000000       -2.28405800000000
H           24.40593000000000       -4.51974600000000        0.14486000000000
H           22.72381300000000       -2.56674700000000        0.24554600000000
Fe          66.19040099999999        0.01030400000000       -0.01509200000000
C           69.52354099999999       -0.15179600000000        0.07351500000000
C           68.85672900000000       -1.29886000000000       -0.07888100000000
C           69.50510000000000       -2.59592800000000       -0.22806400000000
C           68.56145900000000       -3.51115400000000       -0.34048600000000
C           67.25631300000001       -2.84022000000000       -0.26602700000000
N           67.43629500000000       -1.43369200000000       -0.10050100000000
C           66.06236300000000       -3.46447500000000       -0.30713100000000
C           66.02483800000000       -4.93450100000000       -0.46726900000000
C           66.23417800000000       -5.51062800000000       -1.72766700000000
C           66.21252400000000       -6.90028900000000       -1.88324400000000
O           66.42680000000000       -7.44124500000000       -3.15111800000000
C           65.97945900000001       -7.72749600000000       -0.76967700000000
O           65.96383100000000       -9.11357500000000       -0.93189400000000
C           65.76568399999999       -7.15121600000000        0.49589000000000
O           65.53283900000000       -7.96469500000000        1.60346400000000
C           65.78816100000000       -5.75749700000000        0.64140600000000
C           64.76415500000000       -2.74938400000000       -0.18694900000000
C           63.46488200000000       -3.42949200000000       -0.13226000000000
C           62.53055600000000       -2.50663600000000       -0.04172900000000
N           64.62953200000000       -1.45850800000000       -0.14092300000000
C           63.22366099999999       -1.22376900000000       -0.04789000000000
C           62.62845200000000       -0.01851200000000       -0.01949200000000
C           63.38141100000000        1.25928300000000       -0.05504000000000
C           62.81612199999999        2.44832100000000       -0.22650100000000
C           63.86361800000000        3.44436600000000       -0.14326500000000
C           65.00530700000000        2.80173300000000        0.07133500000000
N           64.79155600000000        1.38836700000000        0.13785400000000
C           66.31441800000000        3.47754900000000        0.26767000000000
C           66.33323400000000        4.94890900000000        0.41679700000000
C           66.18660400000000        5.52701700000000        1.68389700000000
C           66.20788800000000        6.91747000000000        1.83360600000000
O           66.06615900000000        7.46156100000000        3.11023500000000
C           66.37121500000001        7.74257700000000        0.70587600000000
O           66.38804500000001        9.12913400000000        0.86303300000000
C           66.51311900000000        7.16351100000000       -0.56851600000000
O           66.67055900000000        7.97536800000000       -1.69093800000000
C           66.49494600000000        5.76896100000000       -0.70746300000000
C           67.47709200000000        2.80282100000000        0.31358300000000
C           68.80102200000000        3.39361700000000        0.50046700000000
C           69.66003200000000        2.39554600000000        0.43867700000000
C           68.89392200000000        1.16998900000000        0.21835200000000
N           67.61918900000001        1.39474300000000        0.14289600000000
H           70.60642400000000       -0.18716000000000        0.09426100000000
H           70.56972700000000       -2.79145900000000       -0.24119800000000
H           68.74514000000001       -4.57167300000000       -0.45487100000000
H           66.41790899999999       -4.87868700000000       -2.58827700000000
H           66.42182699999999       -8.44016200000000       -3.31839300000000
H           65.81345700000000       -9.74590000000000       -0.15555500000000
H           65.37652600000000       -7.57437100000000        2.52556900000000
H           65.62543500000000       -5.31457200000000        1.61655400000000
H           63.28131499999999       -4.49539500000000       -0.16336200000000
H           61.46676800000000       -2.69710500000000        0.01178200000000
H           61.76646999999999        2.65266400000000       -0.38634200000000
H           63.72872400000000        4.51533700000000       -0.22534700000000
H           66.05942899999999        4.89640700000000        2.55548600000000
H           66.08447600000000        8.46040300000000        3.27487800000000
H           66.50193800000000        9.76017500000000        0.07907900000000
H           66.77039700000000        7.58393200000000       -2.62071500000000
H           66.60528600000001        5.32389500000000       -1.68928100000000
H           69.05291400000000        4.43508600000000        0.65399500000000
H           70.73503100000001        2.48326000000000        0.53267000000000
C           33.18140400000000       -0.00382200000000       -0.00921700000000
C           34.63963000000000       -0.02565800000000       -0.02709000000000
C           35.77355799999999       -0.04641200000000       -0.02858100000000
C           37.13493999999999       -0.05900200000000       -0.03077200000000
C           38.40915900000000       -0.04869500000000       -0.03553700000000
C           39.59762099999999       -0.02989700000000       -0.04169300000000
C           40.94998200000000       -0.00511300000000       -0.02582500000000
C           42.05024900000000       -0.00382200000000       -0.00921700000000
C           51.28455799999999       -0.00382200000000       -0.00921700000000
C           52.74278400000000       -0.02565800000000       -0.02709000000000
C           53.87671199999999       -0.04641200000000       -0.02858100000000
C           55.23809399999999       -0.05900200000000       -0.03077200000000
C           56.51231299999999       -0.04869500000000       -0.03553700000000
C           57.70077499999999       -0.02989700000000       -0.04169300000000
C           59.05313600000000       -0.00511300000000       -0.02582500000000
C           60.15340300000000       -0.00382200000000       -0.00921700000000
Fe          46.68801600000000       -0.04623900000000       -0.05468600000000
C           43.27838500000000        0.03863400000000        0.04204100000000
C           43.93485199999999        1.20727100000000        0.16161200000000
C           43.29326300000000        2.50632700000000        0.37404300000000
C           44.23132199999999        3.43273900000000        0.39629300000000
C           45.53013500000000        2.78124700000000        0.19899400000000
N           45.35220300000000        1.36963800000000        0.05757500000000
C           46.71508900000000        3.42547000000000        0.14695700000000
C           46.74480899999999        4.90113400000000        0.25023000000000
C           47.20730499999999        5.51409000000000        1.42366000000000
C           47.24994000000000        6.91124400000000        1.52245000000000
O           47.70287800000000        7.52182400000000        2.69237500000000
C           46.83493500000000        7.70208100000000        0.44160700000000
O           46.88745500000000        9.09147300000000        0.55736600000000
C           46.37255000000000        7.09108800000000       -0.73948800000000
O           45.96108799999999        7.87412300000000       -1.81692000000000
C           46.32843900000000        5.69298700000000       -0.82980100000000
C           48.01614800000000        2.72703100000000       -0.00628400000000
C           49.28952700000000        3.41874300000000       -0.24134800000000
C           50.24330300000000        2.50992400000000       -0.27082800000000
N           48.18226800000000        1.44517000000000        0.09960500000000
C           49.58465799999999        1.22762900000000       -0.05892800000000
C           50.19970500000000        0.03863400000000        0.04204100000000
C           49.45075599999999       -1.22020700000000        0.24043000000000
C           49.98893600000000       -2.35177800000000        0.67680200000000
C           48.95647499999999       -3.36873400000000        0.61768100000000
C           47.85823200000000       -2.78894900000000        0.14698300000000
N           48.07991400000000       -1.40370400000000       -0.11262900000000
C           46.59953399999999       -3.50737300000000       -0.16523500000000
C           46.66146100000000       -4.97224700000000       -0.38817200000000
C           47.39623700000000       -5.48630900000000       -1.46351900000000
C           47.46760999999999       -6.86497700000000       -1.67891600000000
O           48.19884999999999       -7.33513000000000       -2.77039600000000
C           46.80890100000000       -7.75369600000000       -0.80706800000000
O           46.90316100000000       -9.12474500000000       -1.06040100000000
C           46.07671999999999       -7.23723000000000        0.29059100000000
O           45.40498099999999       -8.05452300000000        1.20319700000000
C           46.01263299999999       -5.85330100000000        0.48803900000000
C           45.42322100000000       -2.85890400000000       -0.26883900000000
C           44.14179900000000       -3.46080800000000       -0.62254000000000
C           43.25254000000000       -2.49049000000000       -0.56455000000000
C           43.95461099999999       -1.26124100000000       -0.17958700000000
N           45.22372299999999       -1.46922900000000       -0.00714300000000
H           42.23686100000000        2.70499400000000        0.49895600000000
H           44.04646100000000        4.48868300000000        0.54422100000000
H           47.53254700000000        4.90644800000000        2.26001700000000
H           47.99363500000000        6.97737000000000        3.50057800000000
H           46.59484499999999        9.70646300000000       -0.19582500000000
H           45.60124800000000        7.45990300000000       -2.66924500000000
H           45.97471800000000        5.22302300000000       -1.74118000000000
H           49.44102399999999        4.48296400000000       -0.36696600000000
H           51.29670000000000        2.70793000000000       -0.42044600000000
H           51.01399300000000       -2.50316900000000        0.98942700000000
H           49.07376599999999       -4.41358200000000        0.87460400000000
H           47.90954300000000       -4.81374300000000       -2.14141800000000
H           48.28180700000000       -8.32276800000000       -2.98109600000000
H           46.45310200000000       -9.83824500000000       -0.50329900000000
H           45.39606400000000       -9.06299800000000        1.16050900000000
H           45.45635899999999       -5.46249800000000        1.33223200000000
H           43.93458900000000       -4.48861300000000       -0.88928900000000
H           42.19763900000000       -2.60469700000000       -0.77801300000000
201
 energy: -397.891222021233 gnorm: 0.576639127911 xtb: 6.5.1 (b24c23e)
Fe          27.27893573101312       -0.04239806960267       -0.01652944543428
C           23.93613221886239        0.08986002515025        0.08825626778039
C           24.60819957265752        1.26092767154987        0.06644277174806
C           23.95323494471074        2.56008884794746        0.06547029854806
C           24.90559442328905        3.48931514385070        0.05736662085214
C           26.20187908711324        2.80535402153159        0.05484225658439
N           26.01281173722577        1.40285068371584        0.05977648488465
C           27.40910570412923        3.43428346193329        0.08553280596558
C           27.43637220386306        4.92069661300625        0.09193048928384
C           27.22448031274959        5.63725518613366       -1.09294470057071
C           27.24638537448619        7.03981692901051       -1.09067785615925
O           27.03255613907007        7.71097594063133       -2.28653067497558
C           27.48090410077616        7.73235011033978        0.11714233478258
O           27.49476723391476        9.12291960535626        0.10379035846504
C           27.69426030776503        7.00767988162513        1.30692429563689
O           27.92585472181759        7.69382028104386        2.49340608792393
C           27.67113943732231        5.61007891885458        1.28618213712406
C           28.68829653641048        2.72466377338096        0.12390688917776
C           29.98398409376536        3.39055750200943        0.25446177025156
C           30.92891384957827        2.45048977244625        0.24037561245341
N           28.83403092085003        1.41881601592778        0.02372536051374
C           30.24349136677160        1.17856749922375        0.08877298774904
C           30.83161483477353       -0.02960526761741       -0.02161195275045
C           30.07645672829617       -1.26961174956152       -0.19438080748680
C           30.64461791183079       -2.46256447057498       -0.50750350644080
C           29.61138007786194       -3.44621156651691       -0.53650472752272
C           28.44270567661816       -2.81988830106674       -0.24359394480284
N           28.66673265856065       -1.43321006411373       -0.02645482625729
C           27.15527396968717       -3.51728618487361       -0.13054610609836
C           27.12979396010574       -5.00621426995128       -0.14876859443820
C           27.27225920920890       -5.72662116742675        1.04326880319658
C           27.25048776773228       -7.12943989912281        1.03491923777588
O           27.39215439617879       -7.80462378340224        2.23907730120747
C           27.08663093609872       -7.81824686255059       -0.18678876988159
O           27.07082973779863       -9.20878450689666       -0.17842184139242
C           26.94501845708053       -7.08968219223972       -1.38488767852697
O           26.78819844231430       -7.77254160304933       -2.58582211847830
C           26.96427969426362       -5.69164804021646       -1.35754376648864
C           25.98178068359640       -2.85623770280528       -0.00819272809535
C           24.66450459812108       -3.46756987920837        0.10982548956398
C           23.79254126046808       -2.45974248804100        0.16213413818870
C           24.55168226678085       -1.21779273205287        0.08239560715428
N           25.84331369897867       -1.44440986607339       -0.01720627156014
H           22.85281241477286        0.13300930543860        0.11278195806393
H           22.88940289609355        2.75684804098752        0.07448926838471
H           24.71975875204804        4.55477915347680        0.06378249318868
H           27.04130458331883        5.10345057561578       -2.01993319814194
H           27.03903332964614        8.70737959932129       -2.33076775836075
H           27.64399937155781        9.64392752713379        0.94030408981171
H           28.07881164411167        7.20075726598357        3.34678544506935
H           27.83329529904869        5.05847384049979        2.20569857396157
H           30.17261536621021        4.44819830448516        0.34492354225122
H           31.99181560736978        2.63325772371044        0.31475946061790
H           31.69317187832464       -2.63343463474655       -0.68723603581787
H           29.73279488284426       -4.49955001531367       -0.73862292531699
H           27.39936374094184       -5.19561710673500        1.98096148784169
H           27.37331060759207       -8.80079172334566        2.28072401975133
H           26.95812157626491       -9.72762379030494       -1.02221308169417
H           26.69078290293801       -7.27773935959585       -3.44656373925590
H           26.85369153224430       -5.13765247431624       -2.28335982433566
H           24.41163140822327       -4.51913872639957        0.14447953338562
H           22.72215288481065       -2.56251482265035        0.24569106779761
Fe          66.17996567706484        0.00486937771834       -0.01390772963004
C           69.52274240166918       -0.13846020772842        0.07527863560891
C           68.85071295750821       -1.29939701397889       -0.07909612095020
C           69.50557704942369       -2.59006781344472       -0.22734196142683
C           68.55319667368616       -3.51243191829603       -0.34072937393136
C           67.25686974867756       -2.83283976912855       -0.26571650757894
N           67.44575251821952       -1.43931428593574       -0.10182008484842
C           66.05006217933946       -3.46108188834989       -0.30654404323878
C           66.02252932854907       -4.93853880358592       -0.46862933092643
C           66.23436915951903       -5.51616821372045       -1.72708489651223
C           66.21244998046561       -6.90993364978628       -1.88380070308741
O           66.42629065430215       -7.44123987680775       -3.14803459152135
C           65.97793809266820       -7.73489036547103       -0.76226452128633
O           65.96407301205714       -9.11503925796419       -0.93315003584736
C           65.76458004762655       -7.14975461348321        0.50197464929671
O           65.53298283235146       -7.96599410418203        1.60307261045397
C           65.78770638031074       -5.75882419376431        0.63978839295486
C           64.77044451781200       -2.76017910561472       -0.18795937654924
C           63.47482403488709       -3.43661120310311       -0.13368346756080
C           62.53001018711768       -2.50081795418309       -0.04119519052772
N           64.62518072465883       -1.45210066465775       -0.13939574542797
C           63.21599776285588       -1.21975998844872       -0.04755430328154
C           62.62914214688073       -0.00707755640846       -0.02021971865137
C           63.38328485816022        1.24424038897107       -0.05136598122350
C           62.81438934379875        2.46452963411397       -0.22723953096378
C           63.84785353390506        3.44577546743705       -0.14464354478911
C           65.01625109565153        2.79051250750310        0.07543553904585
N           64.79260069537833        1.38799915950266        0.13368697548592
C           66.30371644674085        3.47044238198722        0.26677146308877
C           66.32909189156591        4.95174141129880        0.41741866428959
C           66.18658673533956        5.53236460873650        1.68341802471944
C           66.20834886436072        6.92708643519299        1.83412147885799
O           66.06669944715456        7.46142020061112        3.10704093397411
C           66.37220930343794        7.74993134043286        0.69835401792913
O           66.38802757892243        9.13053486404818        0.86427776000057
C           66.51381926861428        7.16185721785031       -0.57460505058334
O           66.67065487010609        7.97642280823281       -1.69039627446682
C           66.49456769390089        5.76973227690012       -0.70589758664149
C           67.47706967285716        2.79975750991136        0.31337473858760
C           68.79434788343863        3.39367858001604        0.49992931910393
C           69.66630516411082        2.38641641451719        0.43766697205294
C           68.90714426356149        1.16155046317670        0.21768258227381
N           67.61565427557227        1.39798122547571        0.14440013990062
H           70.60604134217999       -0.18405984009411        0.09474696314316
H           70.56942735007952       -2.78662750799926       -0.24069262829582
H           68.73908822549602       -4.57176155952774       -0.45511896263111
H           66.41753952618186       -4.88072710622163       -2.58759172309463
H           66.41981062169398       -8.42619731199529       -3.30491299926900
H           65.81484725016571       -9.72746602424868       -0.16107162762098
H           65.38003564516940       -7.57279869685217        2.50681573227498
H           65.62554996900482       -5.31499701541203        1.61590412901313
H           63.28624372896615       -4.49774407617815       -0.16369991793457
H           61.46717042762847       -2.69121416983911        0.01204421443729
H           61.76580641553276        2.65515218446022       -0.38654982903244
H           63.72610186588376        4.51518962107574       -0.22610029881596
H           66.05948106816780        4.89848741137704        2.55487183779822
H           66.08552422746419        8.44645456032784        3.26133260735368
H           66.50071116585154        9.74168788035183        0.08473568739290
H           66.76805391052160        7.58238004915956       -2.60167840751333
H           66.60515351818650        5.32423722388881       -1.68853876492490
H           69.04721925099855        4.43453099486655        0.65354917449584
H           70.73669255529684        2.47903649459706        0.53233648062455
C           33.19197846383115       -0.00449125411523       -0.00980835633598
C           34.54802133178990       -0.02580909826942       -0.02685775706850
C           35.81279226925945       -0.04684091834411       -0.02841301855932
C           37.10160091330362       -0.05873223284039       -0.03070565003987
C           38.38040161876444       -0.04905333014909       -0.03581904222032
C           39.59426833437249       -0.02983932148107       -0.04236782415171
C           40.87748823102785       -0.00579045017671       -0.02627393258124
C           42.06556070857126       -0.00795700511076       -0.00979291350418
C           51.39765032585977       -0.01720811428103       -0.01276816459217
C           52.69564203323265       -0.02606219263554       -0.02743223411107
C           53.92986683364494       -0.04737771882431       -0.02897822721048
C           55.21743024429820       -0.05924415200498       -0.03090416698827
C           56.49347965622202       -0.04893668244441       -0.03547429413372
C           57.71232882372708       -0.02957689244914       -0.04174465410447
C           59.03504290373492       -0.00512674432141       -0.02650830356152
C           60.24987508826155       -0.00320462055086       -0.00881897226519
Fe          46.68946850375725       -0.04036658260366       -0.05055100931689
C           43.34007158798551        0.02727051084505        0.03893285610140
C           43.96285420818838        1.21993027424450        0.16353654614849
C           43.29390005207444        2.49822686896988        0.37322320550696
C           44.24026784664824        3.43493419499869        0.39580116975525
C           45.52936711676197        2.77624451381080        0.19848055508562
N           45.34935018665356        1.37876991265456        0.06167432799337
C           46.72699898976994        3.42401805374740        0.14521360732931
C           46.74730382892162        4.90442191521774        0.24978969010140
C           47.20749821652285        5.51684110058916        1.42157513095468
C           47.25135886469425        6.91217032287806        1.52696782077780
O           47.70219026739970        7.52022926046067        2.69111518200036
C           46.83326881325099        7.71045280487687        0.43746303407653
O           46.88694846502998        9.09178620771556        0.55619749156827
C           46.37056219498842        7.08948604570898       -0.74390753743825
O           45.96130765497264        7.87499652663389       -1.81571875314048
C           46.32840164685205        5.69419527540313       -0.82789806967393
C           48.00816931293967        2.74558310269739       -0.00562156923853
C           49.27556362305879        3.42904215723634       -0.23911561236364
C           50.23932708056855        2.50174428613107       -0.26967032053429
N           48.18179617530444        1.44302981446528        0.09421564267379
C           49.55320408608488        1.25008590268760       -0.06088263754424
C           50.13667340850197        0.02973306132271        0.04545914550575
C           49.42166291343866       -1.22368644290496        0.23746304785284
C           49.98769669546264       -2.36708463066882        0.67932988131081
C           48.97001995936061       -3.37180849023137        0.61971239433921
C           47.84808716294725       -2.78270298695055        0.13872009472483
N           48.07233153894725       -1.40723622481171       -0.10554824180336
C           46.60812277448741       -3.50379066994466       -0.16466817743139
C           46.66532302736993       -4.97519796617897       -0.38668893102917
C           47.39719462910980       -5.49138653742467       -1.46330913154403
C           47.46811519342024       -6.87417368842544       -1.68107865301182
O           48.19712170162471       -7.33533423424402       -2.76801214943290
C           46.80570820664921       -7.76010633746838       -0.80344234573829
O           46.90364259822979       -9.12682382806960       -1.06116824091769
C           46.07667632115397       -7.24368967401028        0.29026985322267
O           45.40611295835878       -8.05461497608962        1.20139951580767
C           46.01230234415159       -5.85691400542131        0.48644804239605
C           45.42364303831854       -2.85963995793247       -0.26878357784420
C           44.14823379531433       -3.46144998338252       -0.62144433793971
C           43.24676796839845       -2.48057978654009       -0.56237709620551