      -----------------------------------------------------------      
     |                   =====================                   |     
     |                           x T B                           |     
     |                   =====================                   |     
     |                         S. Grimme                         |     
     |          Mulliken Center for Theoretical Chemistry        |     
     |                    University of Bonn                     |     
      -----------------------------------------------------------      

   * xtb version 6.5.1 (b24c23e) compiled by 'conda@728c89f4b128' on 2022-07-12

   xtb is free software: you can redistribute it and/or modify it under
   the terms of the GNU Lesser General Public License as published by
   the Free Software Foundation, either version 3 of the License, or
   (at your option) any later version.
   
   xtb is distributed in the hope that it will be useful,
   but WITHOUT ANY WARRANTY; without even the implied warranty of
   MERCHANTABILITY or FITNESS FOR A PARTICULAR PURPOSE.  See the
   GNU Lesser General Public License for more details.
   
   Cite this work as:
   * C. Bannwarth, E. Caldeweyher, S. Ehlert, A. Hansen, P. Pracht,
     J. Seibert, S. Spicher, S. Grimme, WIREs Comput. Mol. Sci., 2020, 11,
     e01493. DOI: 10.1002/wcms.1493
   
   for GFN2-xTB:
   * C. Bannwarth, S. Ehlert and S. Grimme., J. Chem. Theory Comput., 2019,
     15, 1652-1671. DOI: 10.1021/acs.jctc.8b01176
   for GFN1-xTB:
   * S. Grimme, C. Bannwarth, P. Shushkov, J. Chem. Theory Comput., 2017,
     13, 1989-2009. DOI: 10.1021/acs.jctc.7b00118
   for GFN0-xTB:
   * P. Pracht, E. Caldeweyher, S. Ehlert, S. Grimme, ChemRxiv, 2019, preprint.
     DOI: 10.26434/chemrxiv.8326202.v1
   for GFN-FF:
   * S. Spicher and S. Grimme, Angew. Chem. Int. Ed., 2020, 59, 15665-15673.
     DOI: 10.1002/anie.202004239
   
   for ALPB and GBSA implicit solvation:
   * S. Ehlert, M. Stahn, S. Spicher, S. Grimme, J. Chem. Theory Comput.,
     2021, 17, 4250-4261. DOI: 10.1021/acs.jctc.1c00471
   
   for DFT-D4:
   * E. Caldeweyher, C. Bannwarth and S. Grimme, J. Chem. Phys., 2017,
     147, 034112. DOI: 10.1063/1.4993215
   * E. Caldeweyher, S. Ehlert, A. Hansen, H. Neugebauer, S. Spicher,
     C. Bannwarth and S. Grimme, J. Chem. Phys., 2019, 150, 154122.
     DOI: 10.1063/1.5090222
   * E. Caldeweyher, J.-M. Mewes, S. Ehlert and S. Grimme, Phys. Chem. Chem. Phys.
     2020, 22, 8499-8512. DOI: 10.1039/D0CP00502A
   
   for sTDA-xTB:
   * S. Grimme and C. Bannwarth, J. Chem. Phys., 2016, 145, 054103.
     DOI: 10.1063/1.4959605
   
   in the mass-spec context:
   * V. Asgeirsson, C. Bauer and S. Grimme, Chem. Sci., 2017, 8, 4879.
     DOI: 10.1039/c7sc00601b
   * J. Koopman and S. Grimme, ACS Omega 2019, 4, 12, 15120-15133.
     DOI: 10.1021/acsomega.9b02011
   
   for metadynamics refer to:
   * S. Grimme, J. Chem. Theory Comput., 2019, 155, 2847-2862
     DOI: 10.1021/acs.jctc.9b00143
   
   for SPH calculations refer to:
   * S. Spicher and S. Grimme, J. Chem. Theory Comput., 2021, 17, 1701-1714
     DOI: 10.1021/acs.jctc.0c01306
   
   with help from (in alphabetical order)
   P. Atkinson, C. Bannwarth, F. Bohle, G. Brandenburg, E. Caldeweyher
   M. Checinski, S. Dohm, S. Ehlert, S. Ehrlich, I. Gerasimov, C. Hölzer
   A. Katbashev, J. Koopman, C. Lavigne, S. Lehtola, F. März, M. Müller,
   F. Musil, H. Neugebauer, J. Pisarek, C. Plett, P. Pracht, F. Pultar,
   J. Seibert, P. Shushkov, S. Spicher, M. Stahn, M. Steiner, T. Strunk,
   J. Stückrath, T. Rose, and J. Unsleber
   
 * started run on 2022/07/28 at 22:16:06.499     

           -------------------------------------------------
          |                Calculation Setup                |
           -------------------------------------------------

          program call               : xtb PhOH_C6_9.xyz --gfn 1 --opt -T 48
          hostname                   : cx3-5-14.cx3.hpc.ic.ac.uk
          coordinate file            : PhOH_C6_9.xyz
          omp threads                :                     1

   ID    Z sym.   atoms
    1    6 C      1-5, 7-11, 13-17, 19-24, 26-30, 32-37, 60-64, 66-70, 72-76,
                  78-83, 85-89, 91-96, 119-171, 173-177, 179-183, 185-190,
                  192-196, 198-203, 225-229, 231-235, 237-241, 243-248,
                  250-254, 256-261, 283-287, 289-293, 295-299, 301-306,
                  308-312, 314-319, 341-345, 347-351, 353-357, 359-364,
                  366-370, 372-377, 399-403, 405-409, 411-415, 417-422,
                  424-428, 430-435, 457-461, 463-467, 469-473, 475-480,
                  482-486, 488-493, 515-519, 521-525, 527-531, 533-538,
                  540-544, 546-551
    2    7 N      6, 18, 25, 38, 65, 77, 84, 97, 172, 184, 191, 204, 230,
                  242, 249, 262, 288, 300, 307, 320, 346, 358, 365, 378, 404,
                  416, 423, 436, 462, 474, 481, 494, 520, 532, 539, 552
    3    8 O      12, 31, 71, 90, 178, 197, 236, 255, 294, 313, 352, 371,
                  410, 429, 468, 487, 526, 545
    4    1 H      39-59, 98-118, 205-224, 263-282, 321-340, 379-398, 437-456,
                  495-514, 553-572

molecular fragmentation (1/2 indicates fragments):
111111111111111111111111111111111111111111111111111111111112222222222222
222222222222222222222222222222222222222222222222222222222222222222222222
222222222222222222222222222222222222222222222222222222222222222222222222
222222222222222222222222222222222222222222222222222222222222222222222222
222222222222222222222222222222222222222222222222222222222222222222222222
222222222222222222222222222222222222222222222222222222222222222222222222
222222222222222222222222222222222222222222222222222222222222222222222222
22222222222222222222222222222222222222222222222222222222222222222222
# atoms in fragment 1/2:    59   513
 fragment masses (1/2) :      493.54     4517.75
CMA distance (Bohr)    : 131.485
constraining FC (au)   :  0.0500
########################################################################
[WARNING] Please study the warnings concerning your input carefully
-1- prog_main_parseArguments: Unknown option '-T' provided
########################################################################

           -------------------------------------------------
          |                 G F N 1 - x T B                 |
           -------------------------------------------------

        Reference                      10.1021/acs.jctc.7b00118
      * Hamiltonian:
        H0-scaling (s, p, d)           1.850000    2.250000    2.000000
        zeta-weighting                 0.000000
      * Dispersion:
        s8                             2.400000
        a1                             0.630000
        a2                             5.000000
        s9                             0.000000
      * Repulsion:
        kExp                           1.500000
        rExp                           1.000000
      * Coulomb:
        alpha                          2.000000
        third order                    atomic
        anisotropic                    false
      * Halogen bond correction:
        rad-scale                      1.300000
        damping                        0.440000


          ...................................................
          :                      SETUP                      :
          :.................................................:
          :  # basis functions                1924          :
          :  # atomic orbitals                1924          :
          :  # shells                         1144          :
          :  # electrons                      1814          :
          :  # halogen bonds                     0          :
          :  max. iterations                   250          :
          :  Hamiltonian                  GFN1-xTB          :
          :  restarted?                      false          :
          :  GBSA solvation                  false          :
          :  PC potential                    false          :
          :  electronic temp.          300.0000000     K    :
          :  accuracy                    1.0000000          :
          :  -> integral cutoff          0.2500000E+02      :
          :  -> integral neglect         0.1000000E-07      :
          :  -> SCF convergence          0.1000000E-05 Eh   :
          :  -> wf. convergence          0.2000000E-04 e    :
          :  Broyden damping             0.4000000          :
          ...................................................

 iter      E             dE          RMSdq      gap      omega  full diag
   1  -1020.9006469 -0.102090E+04  0.105E+01    0.01       0.0  T
   2  -1021.8874501 -0.986803E+00  0.628E+00    0.10       1.0  T
   3   -958.1894358  0.636980E+02  0.323E+00    0.08       1.0  T
   4     73.0305964  0.103122E+04  0.769E+00    0.00       1.0  T
   5   -693.9967173 -0.767027E+03  0.497E+00    0.03       1.0  T
   6  -1005.4561022 -0.311459E+03  0.178E+00    0.06       1.0  T
   7  -1016.8123969 -0.113563E+02  0.117E+00    0.12       1.0  T
   8  -1019.6725406 -0.286014E+01  0.858E-01    0.04       1.0  T
   9  -1022.0609829 -0.238844E+01  0.420E-01    0.05       1.0  T
  10  -1022.1789369 -0.117954E+00  0.329E-01    0.08       1.0  T
  11  -1022.1726160  0.632096E-02  0.355E-01    0.08       1.0  T
  12  -1022.1621908  0.104251E-01  0.308E-01    0.23       1.0  T
  13  -1022.2468138 -0.846230E-01  0.190E-01    0.11       1.0  T
  14  -1022.2491110 -0.229718E-02  0.172E-01    0.12       1.0  T
  15  -1022.2730668 -0.239558E-01  0.135E-01    0.10       1.0  T
  16  -1022.2974992 -0.244324E-01  0.865E-02    0.07       1.0  T
  17  -1022.3080132 -0.105140E-01  0.590E-02    0.06       1.0  T
  18  -1022.3206495 -0.126363E-01  0.552E-02    0.04       1.0  T
  19  -1022.3266212 -0.597173E-02  0.999E-02    0.00       1.0  T
  20  -1022.3273451 -0.723876E-03  0.968E-02    0.00       1.0  T
  21  -1022.3280635 -0.718432E-03  0.936E-02    0.00       1.0  T
  22  -1022.3355465 -0.748292E-02  0.537E-02    0.01       1.0  T
  23  -1022.3386468 -0.310038E-02  0.302E-02    0.01       1.0  T
  24  -1022.3396195 -0.972700E-03  0.240E-02    0.00       1.0  T
  25  -1022.3404308 -0.811264E-03  0.161E-02    0.00       1.0  T
  26  -1022.3407705 -0.339697E-03  0.123E-02    0.00       1.0  T
  27  -1022.3409085 -0.138011E-03  0.122E-02    0.00       1.0  T
  28  -1022.3410517 -0.143175E-03  0.927E-03    0.00       1.0  T
  29  -1022.3411878 -0.136089E-03  0.334E-03    0.00       1.3  T
  30  -1022.3412044 -0.166040E-04  0.163E-03    0.00       2.6  T
  31  -1022.3412128 -0.838481E-05  0.175E-03    0.00       2.4  T
  32  -1022.3412156 -0.288324E-05  0.110E-03    0.00       3.8  T
  33  -1022.3412181 -0.241733E-05  0.413E-04    0.00      10.1  T
  34  -1022.3412182 -0.148427E-06  0.236E-04    0.00      17.7  T
  35  -1022.3412182 -0.445124E-07  0.167E-04    0.00      25.1  T
  36  -1022.3412183 -0.287700E-07  0.219E-04    0.00      19.1  T
  37  -1022.3412183 -0.373383E-07  0.785E-05    0.00      53.3  T

   *** convergence criteria satisfied after 37 iterations ***

         #    Occupation            Energy/Eh            Energy/eV
      -------------------------------------------------------------
         1        2.0000           -0.8072206             -21.9656
       ...           ...                  ...                  ...
       901        2.0000           -0.3789158             -10.3108
       902        2.0000           -0.3781658             -10.2904
       903        2.0000           -0.3780793             -10.2881
       904        2.0000           -0.3764996             -10.2451
       905        2.0000           -0.3740178             -10.1775
       906        2.0000           -0.3719418             -10.1211
       907        1.0087           -0.3600233              -9.7967 (HOMO)
       908        0.9898           -0.3599874              -9.7958 (LUMO)
       909        0.0007           -0.3524906              -9.5918
       910        0.0007           -0.3524810              -9.5915
       911        0.0000           -0.3480578              -9.4711
       912        0.0000           -0.3463909              -9.4258
       ...           ...                  ...                  ...
      1924                          8.9683971             244.0425
      -------------------------------------------------------------
                  HL-Gap            0.0000360 Eh            0.0010 eV
             Fermi-level           -0.3600067 Eh           -9.7963 eV

 SCC (total)                   0 d,  0 h,  1 min, 43.936 sec
 SCC setup                      ...        0 min,  0.099 sec (  0.095%)
 Dispersion                     ...        0 min,  0.045 sec (  0.043%)
 classical contributions        ...        0 min,  0.010 sec (  0.010%)
 integral evaluation            ...        0 min,  1.147 sec (  1.104%)
 iterations                     ...        1 min, 40.040 sec ( 96.252%)
 molecular gradient             ...        0 min,  2.041 sec (  1.964%)
 printout                       ...        0 min,  0.553 sec (  0.532%)

         :::::::::::::::::::::::::::::::::::::::::::::::::::::
         ::                     SUMMARY                     ::
         :::::::::::::::::::::::::::::::::::::::::::::::::::::
         :: total energy            -995.051328123949 Eh    ::
         :: gradient norm             13.034713130546 Eh/a0 ::
         :: HOMO-LUMO gap              0.000978662169 eV    ::
         ::.................................................::
         :: SCC energy             -1022.341218313615 Eh    ::
         :: -> electrostatic           1.265070124641 Eh    ::
         :: repulsion energy          27.765130142702 Eh    ::
         :: dispersion energy         -0.475239953036 Eh    ::
         :: halogen bond corr.         0.000000000000 Eh    ::
         :: add. restraining           0.000000000000 Eh    ::
         :: total charge              -0.000000001826 e     ::
         :::::::::::::::::::::::::::::::::::::::::::::::::::::

      ----------------------------------------------------------- 
     |                       L-ANC optimizer                     |
      ----------------------------------------------------------- 
          low memory version by Sebastian Ehlert

          ...................................................
          :                      SETUP                      :
          :.................................................:
          :   energy convergence        0.5000000E-05 Eh    :
          :   grad. convergence         0.1000000E-02 Eh/a0 :
          :   optimization log               true           :
          :   writing optlog all                1     steps :
          :   Hessian reset                    20     steps :
          :   maximium step len.        1.0000000     a0    :
          :   LBFGS images                     20           :
          ...................................................
 * calculating model hessian...
Using Lindh-Hessian (1995)
 Shifting diagonal of input Hessian by    1.0026475625418243E-002
 Lowest  eigenvalues of input Hessian
    0.010000    0.010010    0.010013    0.010016    0.010017    0.010018
    0.010019    0.010020    0.010022    0.010023    0.010023    0.010024
    0.010024    0.010025    0.010025    0.010026    0.000000    0.000000
 Highest eigenvalues
    4.909287    4.909288    4.909291    4.909292    4.909294    4.909296


........................................................................
.............................. CYCLE    1 ..............................
........................................................................
   1  -1022.7862708 -0.102279E+04  0.234E-01    0.03       0.0  T
   2  -1022.6838290  0.102442E+00  0.227E-01    0.25       1.0  T
   3  -1022.5853165  0.985125E-01  0.257E-01    0.12       1.0  T
   4  -1022.8223498 -0.237033E+00  0.749E-02    0.03       1.0  T
   5  -1022.8232036 -0.853812E-03  0.500E-02    0.03       1.0  T
   6  -1022.8250920 -0.188834E-02  0.435E-02    0.03       1.0  T
   7  -1022.8297996 -0.470768E-02  0.181E-02    0.02       1.0  T
   8  -1022.8271216  0.267800E-02  0.299E-02    0.03       1.0  T
   9  -1022.8269502  0.171392E-03  0.302E-02    0.03       1.0  T
  10  -1022.8282254 -0.127521E-02  0.247E-02    0.02       1.0  T
  11  -1022.8304442 -0.221872E-02  0.555E-03    0.02       1.0  T
  12  -1022.8305725 -0.128325E-03  0.150E-03    0.02       2.8  T
  13  -1022.8305732 -0.671986E-06  0.125E-03    0.02       3.4  T
  14  -1022.8305748 -0.168490E-05  0.112E-03    0.02       3.7  T
  15  -1022.8305799 -0.501643E-05  0.230E-04    0.02      18.2  T
  16  -1022.8305797  0.175606E-06  0.314E-04    0.02      13.3  T
  17  -1022.8305800 -0.350334E-06  0.866E-05    0.02      48.3  T
  18  -1022.8305801 -0.191858E-07  0.489E-05    0.02      85.4  T
     SCC iter.                  ...        0 min, 47.694 sec
     gradient                   ...        0 min,  2.024 sec
 * total energy  : -1001.9035438 Eh     change       -0.6852216E+01 Eh
   gradient norm :     4.5163626 Eh/a0  converged?    E=F G=F D=F
   step length   :     0.8463314 a0

........................................................................
.............................. CYCLE    2 ..............................
........................................................................
   1  -1022.8876998 -0.102289E+04  0.452E-02    0.02       0.0  T
   2  -1022.8814109  0.628886E-02  0.622E-02    0.03       1.0  T
   3  -1022.8003952  0.810158E-01  0.152E-01    0.16       1.0  T
   4  -1022.8860091 -0.856139E-01  0.360E-02    0.03       1.0  T
   5  -1022.8860542 -0.450661E-04  0.374E-02    0.02       1.0  T
   6  -1022.8897038 -0.364964E-02  0.144E-02    0.02       1.0  T
   7  -1022.8897933 -0.894815E-04  0.114E-02    0.02       1.0  T
   8  -1022.8899730 -0.179742E-03  0.690E-03    0.02       1.0  T
   9  -1022.8901528 -0.179800E-03  0.867E-04    0.02       4.8  T
  10  -1022.8901540 -0.112694E-05  0.546E-04    0.02       7.7  T
  11  -1022.8901546 -0.692649E-06  0.239E-04    0.02      17.5  T
  12  -1022.8901547 -0.276013E-07  0.186E-04    0.02      22.5  T
  13  -1022.8901546  0.702209E-07  0.223E-04    0.02      18.7  T
  14  -1022.8901548 -0.206607E-06  0.609E-05    0.02      68.6  T
     SCC iter.                  ...        0 min, 37.430 sec
     gradient                   ...        0 min,  2.071 sec
 * total energy  : -1002.8764675 Eh     change       -0.9729238E+00 Eh
   gradient norm :     3.9120649 Eh/a0  converged?    E=F G=F D=F
   step length   :     4.1864108 a0

........................................................................
.............................. CYCLE    3 ..............................
........................................................................
   1  -1022.9986064 -0.102300E+04  0.394E-02    0.02       0.0  T
   2  -1022.9965030  0.210341E-02  0.432E-02    0.03       1.0  T
   3  -1022.9302407  0.662622E-01  0.131E-01    0.13       1.0  T
   4  -1022.9970200 -0.667792E-01  0.295E-02    0.03       1.0  T
   5  -1022.9979565 -0.936556E-03  0.269E-02    0.02       1.0  T
   6  -1022.9998422 -0.188571E-02  0.104E-02    0.02       1.0  T
   7  -1023.0000302 -0.187941E-03  0.557E-03    0.02       1.0  T
   8  -1023.0000517 -0.215302E-04  0.335E-03    0.02       1.2  T
   9  -1023.0000900 -0.383296E-04  0.890E-04    0.02       4.7  T
  10  -1023.0000929 -0.283921E-05  0.223E-04    0.02      18.7  T
  11  -1023.0000928  0.376505E-07  0.216E-04    0.02      19.4  T
  12  -1023.0000930 -0.173143E-06  0.689E-05    0.02      60.7  T
  13  -1023.0000930  0.867101E-08  0.691E-05    0.02      60.5  T
     SCC iter.                  ...        0 min, 35.644 sec
     gradient                   ...        0 min,  2.029 sec
 * total energy  : -1003.4847750 Eh     change       -0.6083074E+00 Eh
   gradient norm :     3.4442865 Eh/a0  converged?    E=F G=F D=F
   step length   :     8.2397721 a0

........................................................................
.............................. CYCLE    4 ..............................
........................................................................
   1  -1023.0681396 -0.102307E+04  0.293E-02    0.02       0.0  T
   2  -1023.0684178 -0.278189E-03  0.263E-02    0.02       1.0  T
   3  -1023.0651946  0.322324E-02  0.307E-02    0.03       1.0  T
   4  -1023.0442365  0.209581E-01  0.761E-02    0.06       1.0  T
   5  -1023.0677879 -0.235514E-01  0.199E-02    0.02       1.0  T
   6  -1023.0687618 -0.973896E-03  0.747E-03    0.02       1.0  T
   7  -1023.0688325 -0.706740E-04  0.404E-03    0.02       1.0  T
   8  -1023.0688689 -0.363920E-04  0.827E-04    0.02       5.1  T
   9  -1023.0688696 -0.761602E-06  0.403E-04    0.02      10.4  T
  10  -1023.0688700 -0.429851E-06  0.108E-04    0.02      38.7  T
  11  -1023.0688700  0.906039E-08  0.931E-05    0.02      44.9  T
     SCC iter.                  ...        0 min, 29.340 sec
     gradient                   ...        0 min,  2.026 sec
 * total energy  : -1003.8707534 Eh     change       -0.3859784E+00 Eh
   gradient norm :     3.1472228 Eh/a0  converged?    E=F G=F D=F
   step length   :    14.2356689 a0

........................................................................
.............................. CYCLE    5 ..............................
........................................................................
   1  -1023.1317220 -0.102313E+04  0.310E-02    0.02       0.0  T
   2  -1023.1290519  0.267008E-02  0.397E-02    0.03       1.0  T
   3  -1023.0841566  0.448953E-01  0.106E-01    0.10       1.0  T
   4  -1023.1304424 -0.462858E-01  0.243E-02    0.03       1.0  T
   5  -1023.1316944 -0.125205E-02  0.192E-02    0.02       1.0  T
   6  -1023.1322998 -0.605338E-03  0.740E-03    0.02       1.0  T
   7  -1023.1323893 -0.895448E-04  0.449E-03    0.02       1.0  T
   8  -1023.1324494 -0.600562E-04  0.141E-03    0.02       3.0  T
   9  -1023.1324550 -0.563301E-05  0.570E-04    0.02       7.3  T
  10  -1023.1324563 -0.131194E-05  0.112E-04    0.02      37.4  T
  11  -1023.1324563 -0.236765E-07  0.722E-05    0.02      57.9  T
  12  -1023.1324563  0.225868E-07  0.903E-05    0.02      46.3  T
     SCC iter.                  ...        0 min, 31.101 sec
     gradient                   ...        0 min,  2.019 sec
 * total energy  : -1004.2000854 Eh     change       -0.3293320E+00 Eh
   gradient norm :     2.8856857 Eh/a0  converged?    E=F G=F D=F
   step length   :    41.0305523 a0

........................................................................
.............................. CYCLE    6 ..............................
........................................................................
   1  -1023.1555070 -0.102316E+04  0.280E-02    0.03       0.0  T
   2  -1023.1556377 -0.130670E-03  0.251E-02    0.03       1.0  T
   3  -1023.1497697  0.586797E-02  0.384E-02    0.04       1.0  T
   4  -1023.1468638  0.290586E-02  0.457E-02    0.05       1.0  T
   5  -1023.1558789 -0.901512E-02  0.129E-02    0.03       1.0  T
   6  -1023.1560732 -0.194244E-03  0.434E-03    0.03       1.0  T
   7  -1023.1560902 -0.170322E-04  0.238E-03    0.03       1.8  T
   8  -1023.1561063 -0.160525E-04  0.120E-03    0.03       3.5  T
   9  -1023.1561105 -0.425691E-05  0.306E-04    0.03      13.7  T
  10  -1023.1561108 -0.234229E-06  0.117E-04    0.03      35.8  T
  11  -1023.1561108  0.235502E-08  0.108E-04    0.03      38.6  T
     SCC iter.                  ...        0 min, 27.995 sec
     gradient                   ...        0 min,  2.006 sec
 * total energy  : -1004.4941509 Eh     change       -0.2940655E+00 Eh
   gradient norm :     2.6182415 Eh/a0  converged?    E=F G=F D=F
   step length   :    34.7845261 a0

........................................................................
.............................. CYCLE    7 ..............................
........................................................................
   1  -1023.1445394 -0.102314E+04  0.288E-02    0.03       0.0  T
   2  -1023.1448187 -0.279244E-03  0.226E-02    0.03       1.0  T
   3  -1023.1451081 -0.289471E-03  0.863E-03    0.03       1.0  T
   4  -1023.1439528  0.115531E-02  0.190E-02    0.03       1.0  T
   5  -1023.1375805  0.637237E-02  0.402E-02    0.05       1.0  T
   6  -1023.1451139 -0.753340E-02  0.434E-03    0.03       1.0  T
   7  -1023.1451148 -0.926249E-06  0.338E-03    0.03       1.2  T
   8  -1023.1451526 -0.378114E-04  0.866E-04    0.03       4.8  T
   9  -1023.1451549 -0.232471E-05  0.253E-04    0.03      16.6  T
  10  -1023.1451551 -0.135635E-06  0.816E-05    0.03      51.3  T
  11  -1023.1451550  0.201759E-07  0.885E-05    0.03      47.2  T
     SCC iter.                  ...        0 min, 28.490 sec
     gradient                   ...        0 min,  2.036 sec
 * total energy  : -1004.7692223 Eh     change       -0.2750714E+00 Eh
   gradient norm :     2.3402823 Eh/a0  converged?    E=F G=F D=F
   step length   :   103.8329929 a0

........................................................................
.............................. CYCLE    8 ..............................
........................................................................
   1  -1023.1090685 -0.102311E+04  0.309E-02    0.03       0.0  T
   2  -1023.1081067  0.961862E-03  0.272E-02    0.04       1.0  T
   3  -1023.0725804  0.355263E-01  0.883E-02    0.09       1.0  T
   4  -1023.1096210 -0.370406E-01  0.874E-03    0.03       1.0  T
   5  -1023.1096141  0.684274E-05  0.895E-03    0.03       1.0  T
   6  -1023.1096540 -0.398469E-04  0.528E-03    0.03       1.0  T
   7  -1023.1097130 -0.590163E-04  0.306E-03    0.03       1.4  T
   8  -1023.1097442 -0.312249E-04  0.852E-04    0.03       4.9  T
   9  -1023.1097464 -0.216644E-05  0.254E-04    0.03      16.5  T
  10  -1023.1097465 -0.104249E-06  0.158E-04    0.03      26.5  T
  11  -1023.1097466 -0.101147E-06  0.724E-05    0.03      57.7  T
     SCC iter.                  ...        0 min, 29.101 sec
     gradient                   ...        0 min,  2.073 sec
 * total energy  : -1005.0237395 Eh     change       -0.2545172E+00 Eh
   gradient norm :     2.0596256 Eh/a0  converged?    E=F G=F D=F
   step length   :    48.6572117 a0

........................................................................
.............................. CYCLE    9 ..............................
........................................................................
   1  -1023.0806051 -0.102308E+04  0.307E-02    0.04       0.0  T
   2  -1023.0809137 -0.308572E-03  0.225E-02    0.04       1.0  T
   3  -1023.0795760  0.133769E-02  0.201E-02    0.04       1.0  T
   4  -1023.0657244  0.138516E-01  0.565E-02    0.07       1.0  T
   5  -1023.0810331 -0.153086E-01  0.102E-02    0.04       1.0  T
   6  -1023.0811881 -0.155059E-03  0.631E-03    0.04       1.0  T
   7  -1023.0813024 -0.114324E-03  0.272E-03    0.04       1.5  T
   8  -1023.0813271 -0.246989E-04  0.817E-04    0.04       5.1  T
   9  -1023.0813287 -0.158816E-05  0.472E-04    0.04       8.9  T
  10  -1023.0813299 -0.114100E-05  0.184E-04    0.04      22.7  T
  11  -1023.0813300 -0.182176E-06  0.610E-05    0.04      68.6  T
  12  -1023.0813301 -0.121411E-07  0.260E-05    0.04     160.9  T
     SCC iter.                  ...        0 min, 31.912 sec
     gradient                   ...        0 min,  2.005 sec
 * total energy  : -1005.2601537 Eh     change       -0.2364142E+00 Eh
   gradient norm :     1.7859434 Eh/a0  converged?    E=F G=F D=F
   step length   :    19.1003792 a0

........................................................................
.............................. CYCLE   10 ..............................
........................................................................
   1  -1023.0540755 -0.102305E+04  0.279E-02    0.05       0.0  T
   2  -1023.0536493  0.426271E-03  0.236E-02    0.05       1.0  T
   3  -1023.0378092  0.158401E-01  0.581E-02    0.08       1.0  T
   4  -1023.0545644 -0.167552E-01  0.812E-03    0.05       1.0  T
   5  -1023.0543409  0.223482E-03  0.106E-02    0.05       1.0  T
   6  -1023.0546016 -0.260708E-03  0.549E-03    0.05       1.0  T
   7  -1023.0547038 -0.102137E-03  0.185E-03    0.05       2.3  T
   8  -1023.0547131 -0.929586E-05  0.677E-04    0.05       6.2  T
   9  -1023.0547137 -0.632282E-06  0.423E-04    0.05       9.9  T
  10  -1023.0547147 -0.103155E-05  0.139E-04    0.05      30.0  T
  11  -1023.0547148 -0.944582E-07  0.556E-05    0.05      75.2  T
  12  -1023.0547148 -0.532577E-08  0.355E-05    0.05     117.7  T
     SCC iter.                  ...        0 min, 31.358 sec
     gradient                   ...        0 min,  2.067 sec
 * total energy  : -1005.4545296 Eh     change       -0.1943759E+00 Eh
   gradient norm :     1.5446076 Eh/a0  converged?    E=F G=F D=F
   step length   :    12.9593685 a0

........................................................................
.............................. CYCLE   11 ..............................
........................................................................
   1  -1023.0235929 -0.102302E+04  0.241E-02    0.06       0.0  T
   2  -1023.0237668 -0.173950E-03  0.185E-02    0.06       1.0  T
   3  -1023.0224588  0.130802E-02  0.187E-02    0.06       1.0  T
   4  -1023.0193750  0.308381E-02  0.307E-02    0.07       1.0  T
   5  -1023.0239552 -0.458014E-02  0.622E-03    0.06       1.0  T
   6  -1023.0238988  0.563954E-04  0.571E-03    0.06       1.0  T
   7  -1023.0240862 -0.187418E-03  0.157E-03    0.06       2.7  T
   8  -1023.0240938 -0.761694E-05  0.831E-04    0.06       5.0  T
   9  -1023.0240958 -0.197913E-05  0.462E-04    0.06       9.0  T
  10  -1023.0240969 -0.109272E-05  0.894E-05    0.06      46.8  T
  11  -1023.0240969 -0.146305E-07  0.548E-05    0.06      76.3  T
  12  -1023.0240969 -0.892112E-08  0.258E-05    0.06     162.0  T
     SCC iter.                  ...        0 min, 30.640 sec
     gradient                   ...        0 min,  1.996 sec
 * total energy  : -1005.6083200 Eh     change       -0.1537904E+00 Eh
   gradient norm :     1.3422999 Eh/a0  converged?    E=F G=F D=F
   step length   :    13.1440535 a0

........................................................................
.............................. CYCLE   12 ..............................
........................................................................
   1  -1023.0043517 -0.102300E+04  0.239E-02    0.08       0.0  T
   2  -1023.0038019  0.549816E-03  0.226E-02    0.08       1.0  T
   3  -1022.9972812  0.652071E-02  0.388E-02    0.09       1.0  T
   4  -1023.0044800 -0.719882E-02  0.970E-03    0.08       1.0  T
   5  -1023.0044063  0.736285E-04  0.106E-02    0.08       1.0  T
   6  -1023.0047850 -0.378658E-03  0.431E-03    0.08       1.0  T
   7  -1023.0048414 -0.564405E-04  0.186E-03    0.08       2.3  T
   8  -1023.0048541 -0.126246E-04  0.785E-04    0.08       5.3  T
   9  -1023.0048571 -0.308442E-05  0.318E-04    0.08      13.2  T
  10  -1023.0048576 -0.418621E-06  0.115E-04    0.08      36.4  T
  11  -1023.0048576 -0.464651E-07  0.702E-05    0.08      59.5  T
     SCC iter.                  ...        0 min, 28.500 sec
     gradient                   ...        0 min,  2.068 sec
 * total energy  : -1005.7381820 Eh     change       -0.1298620E+00 Eh
   gradient norm :     1.1656002 Eh/a0  converged?    E=F G=F D=F
   step length   :    13.8880726 a0

........................................................................
.............................. CYCLE   13 ..............................
........................................................................
   1  -1022.9732660 -0.102297E+04  0.219E-02    0.10       0.0  T
   2  -1022.9734236 -0.157601E-03  0.158E-02    0.09       1.0  T
   3  -1022.9733058  0.117849E-03  0.965E-03    0.09       1.0  T
   4  -1022.9719366  0.136916E-02  0.182E-02    0.09       1.0  T
   5  -1022.9735799 -0.164322E-02  0.579E-03    0.09       1.0  T
   6  -1022.9735876 -0.773029E-05  0.424E-03    0.09       1.0  T
   7  -1022.9736575 -0.699469E-04  0.143E-03    0.09       2.9  T
   8  -1022.9736641 -0.655729E-05  0.702E-04    0.09       6.0  T
   9  -1022.9736665 -0.241160E-05  0.291E-04    0.09      14.4  T
  10  -1022.9736669 -0.422586E-06  0.862E-05    0.09      48.5  T
  11  -1022.9736669 -0.170336E-07  0.535E-05    0.09      78.2  T
     SCC iter.                  ...        0 min, 28.404 sec
     gradient                   ...        0 min,  2.042 sec
 * total energy  : -1005.8459477 Eh     change       -0.1077657E+00 Eh
   gradient norm :     1.0049793 Eh/a0  converged?    E=F G=F D=F
   step length   :    10.9734506 a0

........................................................................
.............................. CYCLE   14 ..............................
........................................................................
   1  -1022.9562030 -0.102296E+04  0.218E-02    0.12       0.0  T
   2  -1022.9561835  0.195174E-04  0.171E-02    0.12       1.0  T
   3  -1022.9555821  0.601397E-03  0.155E-02    0.12       1.0  T
   4  -1022.9562404 -0.658283E-03  0.949E-03    0.12       1.0  T
   5  -1022.9565699 -0.329513E-03  0.429E-03    0.12       1.0  T
   6  -1022.9565655  0.442104E-05  0.364E-03    0.12       1.1  T
   7  -1022.9566115 -0.460166E-04  0.956E-04    0.12       4.4  T
   8  -1022.9566138 -0.234354E-05  0.554E-04    0.12       7.6  T
   9  -1022.9566153 -0.150909E-05  0.161E-04    0.12      26.0  T
  10  -1022.9566154 -0.797349E-07  0.699E-05    0.12      59.8  T
  11  -1022.9566154 -0.873138E-08  0.414E-05    0.12     100.9  T
     SCC iter.                  ...        0 min, 27.892 sec
     gradient                   ...        0 min,  2.058 sec
 * total energy  : -1005.9354348 Eh     change       -0.8948709E-01 Eh
   gradient norm :     0.8669750 Eh/a0  converged?    E=F G=F D=F
   step length   :     9.6378877 a0

........................................................................
.............................. CYCLE   15 ..............................
........................................................................
   1  -1022.9333996 -0.102293E+04  0.208E-02    0.15       0.0  T
   2  -1022.9335228 -0.123151E-03  0.145E-02    0.15       1.0  T
   3  -1022.9336273 -0.104528E-03  0.660E-03    0.15       1.0  T
   4  -1022.9334231  0.204221E-03  0.897E-03    0.15       1.0  T
   5  -1022.9337141 -0.291054E-03  0.350E-03    0.15       1.2  T
   6  -1022.9337314 -0.173065E-04  0.183E-03    0.15       2.3  T
   7  -1022.9337388 -0.741655E-05  0.742E-04    0.15       5.6  T
   8  -1022.9337402 -0.134449E-05  0.340E-04    0.15      12.3  T
   9  -1022.9337406 -0.385294E-06  0.127E-04    0.15      33.0  T
  10  -1022.9337406 -0.541730E-07  0.583E-05    0.15      71.7  T
     SCC iter.                  ...        0 min, 25.028 sec
     gradient                   ...        0 min,  2.004 sec
 * total energy  : -1006.0102859 Eh     change       -0.7485103E-01 Eh
   gradient norm :     0.7388414 Eh/a0  converged?    E=F G=F D=F
   step length   :     9.0468439 a0

........................................................................
.............................. CYCLE   16 ..............................
........................................................................
   1  -1022.9263684 -0.102293E+04  0.208E-02    0.19       0.0  T
   2  -1022.9265107 -0.142273E-03  0.149E-02    0.18       1.0  T
   3  -1022.9266864 -0.175731E-03  0.487E-03    0.19       1.0  T
   4  -1022.9266212  0.652130E-04  0.609E-03    0.18       1.0  T
   5  -1022.9267075 -0.862436E-04  0.281E-03    0.19       1.5  T
   6  -1022.9267183 -0.108108E-04  0.112E-03    0.19       3.7  T
   7  -1022.9267213 -0.305111E-05  0.486E-04    0.19       8.6  T
   8  -1022.9267220 -0.711033E-06  0.155E-04    0.19      26.9  T
   9  -1022.9267221 -0.497739E-07  0.567E-05    0.19      73.8  T
     SCC iter.                  ...        0 min, 22.765 sec
     gradient                   ...        0 min,  2.001 sec
 * total energy  : -1006.0723124 Eh     change       -0.6202657E-01 Eh
   gradient norm :     0.6281925 Eh/a0  converged?    E=F G=F D=F
   step length   :     7.6042315 a0

........................................................................
.............................. CYCLE   17 ..............................
........................................................................
   1  -1022.9163991 -0.102292E+04  0.188E-02    0.23       0.0  T
   2  -1022.9165272 -0.128099E-03  0.127E-02    0.22       1.0  T
   3  -1022.9166570 -0.129866E-03  0.409E-03    0.23       1.0  T
   4  -1022.9166543  0.275157E-05  0.339E-03    0.23       1.2  T
   5  -1022.9166580 -0.369119E-05  0.217E-03    0.23       1.9  T
   6  -1022.9166668 -0.882070E-05  0.671E-04    0.23       6.2  T
   7  -1022.9166678 -0.101297E-05  0.295E-04    0.23      14.2  T
   8  -1022.9166680 -0.221819E-06  0.933E-05    0.23      44.8  T
   9  -1022.9166680 -0.148034E-07  0.515E-05    0.23      81.3  T
     SCC iter.                  ...        0 min, 23.198 sec
     gradient                   ...        0 min,  2.006 sec
 * total energy  : -1006.1234349 Eh     change       -0.5112251E-01 Eh
   gradient norm :     0.5222541 Eh/a0  converged?    E=F G=F D=F
   step length   :     6.5194657 a0

........................................................................
.............................. CYCLE   18 ..............................
........................................................................
   1  -1022.9199794 -0.102292E+04  0.189E-02    0.28       0.0  T
   2  -1022.9200923 -0.112902E-03  0.145E-02    0.28       1.0  T
   3  -1022.9202576 -0.165258E-03  0.383E-03    0.28       1.1  T
   4  -1022.9202463  0.112567E-04  0.399E-03    0.28       1.0  T
   5  -1022.9202597 -0.133469E-04  0.196E-03    0.28       2.1  T
   6  -1022.9202653 -0.563761E-05  0.508E-04    0.28       8.2  T
   7  -1022.9202657 -0.371394E-06  0.228E-04    0.28      18.4  T
   8  -1022.9202658 -0.943785E-07  0.645E-05    0.28      64.8  T
   9  -1022.9202658 -0.341288E-08  0.356E-05    0.28     117.5  T
     SCC iter.                  ...        0 min, 23.572 sec
     gradient                   ...        0 min,  1.997 sec
 * total energy  : -1006.1627662 Eh     change       -0.3933123E-01 Eh
   gradient norm :     0.4375421 Eh/a0  converged?    E=F G=F D=F
   step length   :     6.5612567 a0

........................................................................
.............................. CYCLE   19 ..............................
........................................................................
   1  -1022.9195119 -0.102292E+04  0.151E-02    0.32       0.0  T
   2  -1022.9195971 -0.852426E-04  0.100E-02    0.32       1.0  T
   3  -1022.9196758 -0.786446E-04  0.306E-03    0.32       1.4  T
   4  -1022.9196769 -0.111368E-05  0.215E-03    0.32       1.9  T
   5  -1022.9196765  0.448322E-06  0.126E-03    0.32       3.3  T
   6  -1022.9196792 -0.277909E-05  0.370E-04    0.32      11.3  T
   7  -1022.9196795 -0.264274E-06  0.122E-04    0.32      34.3  T
   8  -1022.9196795 -0.236811E-07  0.495E-05    0.32      84.5  T
     SCC iter.                  ...        0 min, 20.949 sec
     gradient                   ...        0 min,  2.014 sec
 * total energy  : -1006.1947830 Eh     change       -0.3201687E-01 Eh
   gradient norm :     0.3538412 Eh/a0  converged?    E=F G=F D=F
   step length   :     5.5913113 a0

........................................................................
.............................. CYCLE   20 ..............................
........................................................................
   1  -1022.9310786 -0.102293E+04  0.153E-02    0.38       0.0  T
   2  -1022.9311485 -0.698920E-04  0.119E-02    0.37       1.0  T
   3  -1022.9312545 -0.106050E-03  0.309E-03    0.37       1.4  T
   4  -1022.9312479  0.658618E-05  0.327E-03    0.37       1.3  T
   5  -1022.9312563 -0.832245E-05  0.150E-03    0.37       2.8  T
   6  -1022.9312590 -0.278481E-05  0.345E-04    0.37      12.1  T
   7  -1022.9312592 -0.138340E-06  0.158E-04    0.37      26.4  T
   8  -1022.9312592 -0.451428E-07  0.416E-05    0.37     100.5  T
     SCC iter.                  ...        0 min, 21.058 sec
     gradient                   ...        0 min,  2.103 sec
 * total energy  : -1006.2186794 Eh     change       -0.2389638E-01 Eh
   gradient norm :     0.2865549 Eh/a0  converged?    E=F G=F D=F
   step length   :     4.5409413 a0
 * RMSD in coord.:     0.6612118 a0     energy gain  -0.1116735E+02 Eh
 * calculating model hessian...
Using Lindh-Hessian (1995)
 Shifting diagonal of input Hessian by    1.0006011819095875E-002
 Lowest  eigenvalues of input Hessian
    0.010000    0.010001    0.010002    0.010003    0.010004    0.010005
    0.010005    0.010006    0.010006    0.000000    0.000000    0.000000
    0.000000    0.000000    0.000000    0.010006    0.010006    0.010007
 Highest eigenvalues
    2.966967    2.972508    2.973001    2.973758    2.973777    2.975436


........................................................................
.............................. CYCLE   21 ..............................
........................................................................
   1  -1023.0657724 -0.102307E+04  0.289E-02    0.46       0.0  T
   2  -1023.0660134 -0.241076E-03  0.243E-02    0.46       1.0  T
   3  -1023.0663734 -0.359997E-03  0.685E-03    0.46       1.0  T
   4  -1023.0663311  0.423598E-04  0.687E-03    0.46       1.0  T
   5  -1023.0663692 -0.381454E-04  0.317E-03    0.46       1.3  T
   6  -1023.0663820 -0.127706E-04  0.616E-04    0.46       6.8  T
   7  -1023.0663824 -0.383975E-06  0.261E-04    0.46      16.0  T
   8  -1023.0663825 -0.995465E-07  0.709E-05    0.46      59.0  T
   9  -1023.0663825 -0.532123E-08  0.286E-05    0.46     146.1  T
     SCC iter.                  ...        0 min, 23.044 sec
     gradient                   ...        0 min,  2.087 sec
 * total energy  : -1006.2706865 Eh     change       -0.5200708E-01 Eh
   gradient norm :     0.1206754 Eh/a0  converged?    E=F G=F D=F
   step length   :     0.4466655 a0

........................................................................
.............................. CYCLE   22 ..............................
........................................................................
   1  -1023.1551948 -0.102316E+04  0.188E-02    0.55       0.0  T
   2  -1023.1552742 -0.794291E-04  0.138E-02    0.55       1.0  T
   3  -1023.1553878 -0.113647E-03  0.512E-03    0.55       1.0  T
   4  -1023.1553764  0.114263E-04  0.480E-03    0.55       1.0  T
   5  -1023.1554001 -0.237312E-04  0.214E-03    0.55       2.0  T
   6  -1023.1554047 -0.459683E-05  0.369E-04    0.55      11.3  T
   7  -1023.1554048 -0.573590E-07  0.230E-04    0.55      18.2  T
   8  -1023.1554049 -0.903934E-07  0.577E-05    0.55      72.5  T
   9  -1023.1554049 -0.318732E-08  0.256E-05    0.55     163.5  T
     SCC iter.                  ...        0 min, 23.904 sec
     gradient                   ...        0 min,  2.058 sec
 * total energy  : -1006.3020450 Eh     change       -0.3135847E-01 Eh
   gradient norm :     0.0638888 Eh/a0  converged?    E=F G=F D=F
   step length   :     1.5096116 a0

........................................................................
.............................. CYCLE   23 ..............................
........................................................................
   1  -1023.1788000 -0.102318E+04  0.115E-02    0.62       0.0  T
   2  -1023.1788118 -0.117315E-04  0.777E-03    0.61       1.0  T
   3  -1023.1788476 -0.358426E-04  0.408E-03    0.61       1.0  T
   4  -1023.1788612 -0.135970E-04  0.275E-03    0.61       1.5  T
   5  -1023.1788679 -0.669579E-05  0.114E-03    0.61       3.7  T
   6  -1023.1788689 -0.102056E-05  0.182E-04    0.61      23.0  T
   7  -1023.1788689 -0.128985E-07  0.121E-04    0.61      34.6  T
   8  -1023.1788689 -0.227633E-07  0.370E-05    0.61     112.9  T
     SCC iter.                  ...        0 min, 21.567 sec
     gradient                   ...        0 min,  2.086 sec
 * total energy  : -1006.3155701 Eh     change       -0.1352511E-01 Eh
   gradient norm :     0.0737918 Eh/a0  converged?    E=F G=F D=F
   step length   :     2.2115646 a0

........................................................................
.............................. CYCLE   24 ..............................
........................................................................
   1  -1023.2053727 -0.102321E+04  0.848E-03    0.66       0.0  T
   2  -1023.2053912 -0.184857E-04  0.457E-03    0.66       1.0  T
   3  -1023.2053987 -0.750679E-05  0.242E-03    0.66       1.7  T
   4  -1023.2054010 -0.228112E-05  0.175E-03    0.66       2.4  T
   5  -1023.2054039 -0.293428E-05  0.771E-04    0.66       5.4  T
   6  -1023.2054044 -0.493830E-06  0.157E-04    0.66      26.6  T
   7  -1023.2054044 -0.207201E-07  0.856E-05    0.66      48.9  T
     SCC iter.                  ...        0 min, 19.498 sec
     gradient                   ...        0 min,  2.086 sec
 * total energy  : -1006.3275531 Eh     change       -0.1198303E-01 Eh
   gradient norm :     0.0912228 Eh/a0  converged?    E=F G=F D=F
   step length   :     2.8607513 a0

........................................................................
.............................. CYCLE   25 ..............................
........................................................................
   1  -1023.2028977 -0.102320E+04  0.859E-03    0.69       0.0  T
   2  -1023.2029131 -0.154428E-04  0.524E-03    0.69       1.0  T
   3  -1023.2029230 -0.986503E-05  0.204E-03    0.69       2.0  T
   4  -1023.2029193  0.369511E-05  0.221E-03    0.69       1.9  T
   5  -1023.2029257 -0.643648E-05  0.567E-04    0.69       7.4  T
   6  -1023.2029259 -0.165024E-06  0.146E-04    0.69      28.7  T
   7  -1023.2029259 -0.200712E-07  0.453E-05    0.69      92.2  T
     SCC iter.                  ...        0 min, 19.890 sec
     gradient                   ...        0 min,  2.063 sec
 * total energy  : -1006.3375273 Eh     change       -0.9974222E-02 Eh
   gradient norm :     0.0845581 Eh/a0  converged?    E=F G=F D=F
   step length   :     1.8702178 a0

........................................................................
.............................. CYCLE   26 ..............................
........................................................................
   1  -1023.1919903 -0.102319E+04  0.912E-03    0.70       0.0  T
   2  -1023.1920045 -0.141980E-04  0.665E-03    0.70       1.0  T
   3  -1023.1920237 -0.191988E-04  0.246E-03    0.70       1.7  T
   4  -1023.1920170  0.670102E-05  0.256E-03    0.70       1.6  T
   5  -1023.1920258 -0.876158E-05  0.698E-04    0.70       6.0  T
   6  -1023.1920261 -0.357781E-06  0.147E-04    0.70      28.4  T
   7  -1023.1920261 -0.237610E-07  0.456E-05    0.70      91.7  T
     SCC iter.                  ...        0 min, 19.342 sec
     gradient                   ...        0 min,  2.049 sec
 * total energy  : -1006.3453268 Eh     change       -0.7799507E-02 Eh
   gradient norm :     0.0715395 Eh/a0  converged?    E=F G=F D=F
   step length   :     3.7731016 a0

........................................................................
.............................. CYCLE   27 ..............................
........................................................................
   1  -1023.1842161 -0.102318E+04  0.822E-03    0.70       0.0  T
   2  -1023.1842283 -0.122129E-04  0.590E-03    0.70       1.0  T
   3  -1023.1842451 -0.167523E-04  0.215E-03    0.70       1.9  T
   4  -1023.1842411  0.397532E-05  0.206E-03    0.70       2.0  T
   5  -1023.1842463 -0.522297E-05  0.667E-04    0.70       6.3  T
   6  -1023.1842468 -0.406195E-06  0.130E-04    0.70      32.2  T
   7  -1023.1842468 -0.190558E-07  0.415E-05    0.70     100.7  T
     SCC iter.                  ...        0 min, 18.341 sec
     gradient                   ...        0 min,  2.054 sec
 * total energy  : -1006.3526062 Eh     change       -0.7279403E-02 Eh
   gradient norm :     0.0542749 Eh/a0  converged?    E=F G=F D=F
   step length   :     3.9627219 a0

........................................................................
.............................. CYCLE   28 ..............................
........................................................................
   1  -1023.1788748 -0.102318E+04  0.659E-03    0.70       0.0  T
   2  -1023.1788851 -0.102848E-04  0.470E-03    0.70       1.0  T
   3  -1023.1788973 -0.122183E-04  0.156E-03    0.70       2.7  T
   4  -1023.1788957  0.158673E-05  0.136E-03    0.70       3.1  T
   5  -1023.1788976 -0.181776E-05  0.562E-04    0.70       7.4  T
   6  -1023.1788980 -0.397583E-06  0.990E-05    0.70      42.2  T
   7  -1023.1788980 -0.111494E-07  0.324E-05    0.70     129.1  T
     SCC iter.                  ...        0 min, 18.685 sec
     gradient                   ...        0 min,  2.052 sec
 * total energy  : -1006.3579471 Eh     change       -0.5340881E-02 Eh
   gradient norm :     0.0404857 Eh/a0  converged?    E=F G=F D=F
   step length   :     3.0970970 a0

........................................................................
.............................. CYCLE   29 ..............................
........................................................................
   1  -1023.1805696 -0.102318E+04  0.599E-03    0.69       0.0  T
   2  -1023.1805766 -0.701224E-05  0.447E-03    0.69       1.0  T
   3  -1023.1805889 -0.123428E-04  0.143E-03    0.69       2.9  T
   4  -1023.1805878  0.118456E-05  0.126E-03    0.69       3.3  T
   5  -1023.1805892 -0.147201E-05  0.504E-04    0.69       8.3  T
   6  -1023.1805896 -0.326258E-06  0.954E-05    0.69      43.8  T
   7  -1023.1805896 -0.100514E-07  0.397E-05    0.69     105.3  T
     SCC iter.                  ...        0 min, 18.881 sec
     gradient                   ...        0 min,  2.062 sec
 * total energy  : -1006.3625365 Eh     change       -0.4589380E-02 Eh
   gradient norm :     0.0294227 Eh/a0  converged?    E=F G=F D=F
   step length   :     3.5025660 a0

........................................................................
.............................. CYCLE   30 ..............................
........................................................................
   1  -1023.1856541 -0.102319E+04  0.514E-03    0.68       0.0  T
   2  -1023.1856592 -0.503402E-05  0.389E-03    0.68       1.1  T
   3  -1023.1856702 -0.110064E-04  0.119E-03    0.68       3.5  T
   4  -1023.1856692  0.940850E-06  0.113E-03    0.68       3.7  T
   5  -1023.1856707 -0.150525E-05  0.428E-04    0.68       9.8  T
   6  -1023.1856709 -0.159003E-06  0.789E-05    0.68      53.0  T
   7  -1023.1856709 -0.511864E-08  0.374E-05    0.68     111.8  T
     SCC iter.                  ...        0 min, 19.515 sec
     gradient                   ...        0 min,  2.050 sec
 * total energy  : -1006.3659322 Eh     change       -0.3395677E-02 Eh
   gradient norm :     0.0271092 Eh/a0  converged?    E=F G=F D=F
   step length   :     2.8592785 a0

........................................................................
.............................. CYCLE   31 ..............................
........................................................................
   1  -1023.1905224 -0.102319E+04  0.426E-03    0.67       0.0  T
   2  -1023.1905271 -0.470580E-05  0.280E-03    0.67       1.5  T
   3  -1023.1905331 -0.597604E-05  0.107E-03    0.67       3.9  T
   4  -1023.1905330  0.651028E-07  0.739E-04    0.67       5.7  T
   5  -1023.1905334 -0.312885E-06  0.377E-04    0.67      11.1  T
   6  -1023.1905336 -0.237405E-06  0.750E-05    0.67      55.7  T
   7  -1023.1905336 -0.758962E-08  0.319E-05    0.67     131.1  T
     SCC iter.                  ...        0 min, 18.578 sec
     gradient                   ...        0 min,  1.991 sec
 * total energy  : -1006.3691506 Eh     change       -0.3218385E-02 Eh
   gradient norm :     0.0287806 Eh/a0  converged?    E=F G=F D=F
   step length   :     4.2833116 a0

........................................................................
.............................. CYCLE   32 ..............................
........................................................................
   1  -1023.2014246 -0.102320E+04  0.347E-03    0.66       0.0  T
   2  -1023.2014281 -0.353851E-05  0.203E-03    0.66       2.1  T
   3  -1023.2014318 -0.370484E-05  0.888E-04    0.66       4.7  T
   4  -1023.2014321 -0.276229E-06  0.547E-04    0.66       7.6  T
   5  -1023.2014322 -0.109597E-06  0.302E-04    0.66      13.8  T
   6  -1023.2014324 -0.149926E-06  0.635E-05    0.66      65.9  T
   7  -1023.2014324 -0.542445E-08  0.294E-05    0.66     142.3  T
     SCC iter.                  ...        0 min, 19.049 sec
     gradient                   ...        0 min,  2.023 sec
 * total energy  : -1006.3720442 Eh     change       -0.2893665E-02 Eh
   gradient norm :     0.0315144 Eh/a0  converged?    E=F G=F D=F
   step length   :     2.5747316 a0

........................................................................
.............................. CYCLE   33 ..............................
........................................................................
   1  -1023.2119401 -0.102321E+04  0.302E-03    0.65       0.0  T
   2  -1023.2119430 -0.292492E-05  0.188E-03    0.65       2.2  T
   3  -1023.2119460 -0.292688E-05  0.773E-04    0.65       5.4  T
   4  -1023.2119461 -0.137819E-06  0.480E-04    0.65       8.7  T
   5  -1023.2119461 -0.365817E-07  0.274E-04    0.65      15.2  T
   6  -1023.2119463 -0.127976E-06  0.649E-05    0.65      64.5  T
   7  -1023.2119463 -0.673174E-08  0.275E-05    0.65     151.8  T
     SCC iter.                  ...        0 min, 18.753 sec
     gradient                   ...        0 min,  1.997 sec
 * total energy  : -1006.3746343 Eh     change       -0.2590115E-02 Eh
   gradient norm :     0.0344087 Eh/a0  converged?    E=F G=F D=F
   step length   :     4.2330880 a0

........................................................................
.............................. CYCLE   34 ..............................
........................................................................
   1  -1023.2191698 -0.102322E+04  0.253E-03    0.64       0.0  T
   2  -1023.2191720 -0.214000E-05  0.135E-03    0.64       3.1  T
   3  -1023.2191733 -0.138960E-05  0.819E-04    0.64       5.1  T
   4  -1023.2191737 -0.389373E-06  0.470E-04    0.64       8.9  T
   5  -1023.2191738 -0.655874E-07  0.242E-04    0.64      17.3  T
   6  -1023.2191739 -0.101026E-06  0.551E-05    0.64      75.9  T
   7  -1023.2191739 -0.360717E-08  0.238E-05    0.64     175.3  T
     SCC iter.                  ...        0 min, 18.873 sec
     gradient                   ...        0 min,  2.055 sec
 * total energy  : -1006.3772642 Eh     change       -0.2629900E-02 Eh
   gradient norm :     0.0358942 Eh/a0  converged?    E=F G=F D=F
   step length   :     6.0554365 a0

........................................................................
.............................. CYCLE   35 ..............................
........................................................................
   1  -1023.2297460 -0.102323E+04  0.210E-03    0.64       0.0  T
   2  -1023.2297474 -0.141298E-05  0.116E-03    0.64       3.6  T
   3  -1023.2297482 -0.863780E-06  0.742E-04    0.64       5.6  T
   4  -1023.2297486 -0.382570E-06  0.430E-04    0.64       9.7  T
   5  -1023.2297487 -0.810594E-07  0.201E-04    0.64      20.8  T
   6  -1023.2297488 -0.594118E-07  0.503E-05    0.64      83.1  T
   7  -1023.2297488 -0.316550E-08  0.215E-05    0.64     194.2  T
     SCC iter.                  ...        0 min, 18.664 sec
     gradient                   ...        0 min,  2.035 sec
 * total energy  : -1006.3797997 Eh     change       -0.2535439E-02 Eh
   gradient norm :     0.0359462 Eh/a0  converged?    E=F G=F D=F
   step length   :     4.0282946 a0

........................................................................
.............................. CYCLE   36 ..............................
........................................................................
   1  -1023.2396428 -0.102324E+04  0.186E-03    0.64       0.0  T
   2  -1023.2396437 -0.916641E-06  0.114E-03    0.64       3.7  T
   3  -1023.2396444 -0.709805E-06  0.674E-04    0.64       6.2  T
   4  -1023.2396446 -0.247415E-06  0.453E-04    0.64       9.2  T
   5  -1023.2396448 -0.172214E-06  0.151E-04    0.64      27.6  T
   6  -1023.2396448 -0.235570E-07  0.513E-05    0.64      81.5  T
     SCC iter.                  ...        0 min, 16.284 sec
     gradient                   ...        0 min,  2.075 sec
 * total energy  : -1006.3822488 Eh     change       -0.2449129E-02 Eh
   gradient norm :     0.0344377 Eh/a0  converged?    E=F G=F D=F
   step length   :     4.6798231 a0

........................................................................
.............................. CYCLE   37 ..............................
........................................................................
   1  -1023.2477005 -0.102325E+04  0.188E-03    0.64       0.0  T
   2  -1023.2477012 -0.744119E-06  0.126E-03    0.64       3.3  T
   3  -1023.2477022 -0.940096E-06  0.680E-04    0.64       6.1  T
   4  -1023.2477023 -0.104390E-06  0.490E-04    0.64       8.5  T
   5  -1023.2477025 -0.253084E-06  0.169E-04    0.64      24.7  T
   6  -1023.2477026 -0.256066E-07  0.463E-05    0.64      90.3  T
     SCC iter.                  ...        0 min, 17.319 sec
     gradient                   ...        0 min,  2.059 sec
 * total energy  : -1006.3845214 Eh     change       -0.2272619E-02 Eh
   gradient norm :     0.0322049 Eh/a0  converged?    E=F G=F D=F
   step length   :     5.5137206 a0

........................................................................
.............................. CYCLE   38 ..............................
........................................................................
   1  -1023.2532426 -0.102325E+04  0.182E-03    0.64       0.0  T
   2  -1023.2532433 -0.670483E-06  0.123E-03    0.64       3.4  T
   3  -1023.2532441 -0.877265E-06  0.661E-04    0.64       6.3  T
   4  -1023.2532442 -0.953147E-07  0.484E-04    0.64       8.6  T
   5  -1023.2532445 -0.254848E-06  0.168E-04    0.64      24.9  T
   6  -1023.2532445 -0.220101E-07  0.441E-05    0.64      94.9  T
     SCC iter.                  ...        0 min, 18.253 sec
     gradient                   ...        0 min,  2.050 sec
 * total energy  : -1006.3866277 Eh     change       -0.2106282E-02 Eh
   gradient norm :     0.0302470 Eh/a0  converged?    E=F G=F D=F
   step length   :     6.5542863 a0

........................................................................
.............................. CYCLE   39 ..............................
........................................................................
   1  -1023.2596787 -0.102326E+04  0.190E-03    0.64       0.0  T
   2  -1023.2596794 -0.715020E-06  0.130E-03    0.64       3.2  T
   3  -1023.2596805 -0.105363E-05  0.611E-04    0.64       6.8  T
   4  -1023.2596805 -0.397517E-07  0.498E-04    0.64       8.4  T
   5  -1023.2596808 -0.264092E-06  0.178E-04    0.64      23.5  T
   6  -1023.2596808 -0.240392E-07  0.506E-05    0.64      82.7  T
     SCC iter.                  ...        0 min, 17.654 sec
     gradient                   ...        0 min,  2.041 sec
 * total energy  : -1006.3885634 Eh     change       -0.1935674E-02 Eh
   gradient norm :     0.0261175 Eh/a0  converged?    E=F G=F D=F
   step length   :     4.6099392 a0

........................................................................
.............................. CYCLE   40 ..............................
........................................................................
   1  -1023.2708760 -0.102327E+04  0.199E-03    0.64       0.0  T
   2  -1023.2708768 -0.884059E-06  0.132E-03    0.64       3.2  T
   3  -1023.2708779 -0.109384E-05  0.613E-04    0.64       6.8  T
   4  -1023.2708780 -0.203049E-07  0.485E-04    0.64       8.6  T
   5  -1023.2708782 -0.265017E-06  0.202E-04    0.64      20.7  T
   6  -1023.2708783 -0.311788E-07  0.428E-05    0.64      97.6  T
   7  -1023.2708783 -0.224395E-08  0.194E-05    0.64     216.1  T
     SCC iter.                  ...        0 min, 21.790 sec
     gradient                   ...        0 min,  2.096 sec
 * total energy  : -1006.3903765 Eh     change       -0.1813134E-02 Eh
   gradient norm :     0.0225921 Eh/a0  converged?    E=F G=F D=F
   step length   :     3.8257885 a0

........................................................................
.............................. CYCLE   41 ..............................
........................................................................
   1  -1023.2748082 -0.102327E+04  0.193E-03    0.65       0.0  T
   2  -1023.2748092 -0.101531E-05  0.126E-03    0.64       3.3  T
   3  -1023.2748102 -0.980860E-06  0.551E-04    0.64       7.6  T
   4  -1023.2748102  0.247144E-08  0.458E-04    0.64       9.1  T
   5  -1023.2748104 -0.238314E-06  0.183E-04    0.64      22.8  T
   6  -1023.2748104 -0.258141E-07  0.480E-05    0.64      87.1  T
     SCC iter.                  ...        0 min, 17.629 sec
     gradient                   ...        0 min,  2.062 sec
 * total energy  : -1006.3919726 Eh     change       -0.1596123E-02 Eh
   gradient norm :     0.0200160 Eh/a0  converged?    E=F G=F D=F
   step length   :     3.5962863 a0

........................................................................
.............................. CYCLE   42 ..............................
........................................................................
   1  -1023.3260157 -0.102333E+04  0.630E-03    0.66       0.0  T
   2  -1023.3260259 -0.101779E-04  0.327E-03    0.66       1.3  T
   3  -1023.3260296 -0.369390E-05  0.200E-03    0.66       2.1  T
   4  -1023.3260303 -0.650285E-06  0.117E-03    0.66       3.6  T
   5  -1023.3260311 -0.853967E-06  0.511E-04    0.66       8.2  T
   6  -1023.3260316 -0.448027E-06  0.125E-04    0.66      33.5  T
   7  -1023.3260316 -0.265914E-07  0.377E-05    0.66     111.0  T
     SCC iter.                  ...        0 min, 19.442 sec
     gradient                   ...        0 min,  2.051 sec
 * total energy  : -1006.3943164 Eh     change       -0.2343766E-02 Eh
   gradient norm :     0.0227729 Eh/a0  converged?    E=F G=F D=F
   step length   :     2.6492637 a0
 * RMSD in coord.:     0.7605319 a0     energy gain  -0.1756370E+00 Eh
 * calculating model hessian...
Using Lindh-Hessian (1995)
 Shifting diagonal of input Hessian by    1.0006837550699857E-002
 Lowest  eigenvalues of input Hessian
    0.010000    0.010001    0.010002    0.010003    0.010004    0.010004
    0.010005    0.010006    0.000000    0.000000    0.000000    0.000000
    0.000000    0.000000    0.010007    0.010007    0.010008    0.010008
 Highest eigenvalues
    3.022859    3.029542    3.030244    3.030876    3.031015    3.031094


........................................................................
.............................. CYCLE   43 ..............................
........................................................................
   1  -1023.3031985 -0.102330E+04  0.239E-03    0.66       0.0  T
   2  -1023.3031999 -0.136591E-05  0.150E-03    0.66       2.8  T
   3  -1023.3032005 -0.639271E-06  0.863E-04    0.66       4.8  T
   4  -1023.3032003  0.192110E-06  0.617E-04    0.66       6.8  T
   5  -1023.3032008 -0.497554E-06  0.209E-04    0.66      20.0  T
   6  -1023.3032009 -0.570523E-07  0.459E-05    0.66      91.2  T
   7  -1023.3032009 -0.284183E-08  0.126E-05    0.66     331.8  T
     SCC iter.                  ...        0 min, 19.606 sec
     gradient                   ...        0 min,  2.043 sec
 * total energy  : -1006.3950563 Eh     change       -0.7399293E-03 Eh
   gradient norm :     0.0078322 Eh/a0  converged?    E=F G=F D=F
   step length   :     0.2248582 a0

........................................................................
.............................. CYCLE   44 ..............................
........................................................................
   1  -1023.2461254 -0.102325E+04  0.531E-03    0.65       0.0  T
   2  -1023.2461306 -0.514734E-05  0.327E-03    0.65       1.3  T
   3  -1023.2461334 -0.285097E-05  0.194E-03    0.65       2.2  T
   4  -1023.2461331  0.349620E-06  0.141E-03    0.65       3.0  T
   5  -1023.2461359 -0.283712E-05  0.417E-04    0.65      10.0  T
   6  -1023.2461361 -0.206346E-06  0.101E-04    0.65      41.2  T
   7  -1023.2461361 -0.146607E-07  0.312E-05    0.65     134.0  T
     SCC iter.                  ...        0 min, 19.163 sec
     gradient                   ...        0 min,  2.032 sec
 * total energy  : -1006.3954130 Eh     change       -0.3566325E-03 Eh
   gradient norm :     0.0382935 Eh/a0  converged?    E=F G=F D=F
   step length   :     0.6844344 a0

........................................................................
.............................. CYCLE   45 ..............................
........................................................................
   1  -1023.2509570 -0.102325E+04  0.166E-03    0.65       0.0  T
   2  -1023.2509576 -0.647014E-06  0.133E-03    0.65       3.1  T
   3  -1023.2509590 -0.134760E-05  0.644E-04    0.65       6.5  T
   4  -1023.2509589  0.781237E-07  0.482E-04    0.65       8.7  T
   5  -1023.2509592 -0.246489E-06  0.158E-04    0.65      26.4  T
   6  -1023.2509592 -0.301969E-07  0.434E-05    0.65      96.4  T
     SCC iter.                  ...        0 min, 16.581 sec
     gradient                   ...        0 min,  2.027 sec
 * total energy  : -1006.3968000 Eh     change       -0.1387004E-02 Eh
   gradient norm :     0.0250422 Eh/a0  converged?    E=F G=F D=F
   step length   :     0.4067767 a0

........................................................................
.............................. CYCLE   46 ..............................
........................................................................
   1  -1023.2712636 -0.102327E+04  0.393E-03    0.65       0.0  T
   2  -1023.2712666 -0.305022E-05  0.271E-03    0.65       1.5  T
   3  -1023.2712707 -0.412116E-05  0.145E-03    0.65       2.9  T
   4  -1023.2712705  0.204311E-06  0.103E-03    0.65       4.1  T
   5  -1023.2712719 -0.137231E-05  0.323E-04    0.65      12.9  T
   6  -1023.2712720 -0.107545E-06  0.103E-04    0.65      40.6  T
   7  -1023.2712720 -0.150336E-07  0.335E-05    0.65     124.8  T
     SCC iter.                  ...        0 min, 19.914 sec
     gradient                   ...        0 min,  2.130 sec
 * total energy  : -1006.3976948 Eh     change       -0.8947968E-03 Eh
   gradient norm :     0.0177770 Eh/a0  converged?    E=F G=F D=F
   step length   :     0.7996068 a0

........................................................................
.............................. CYCLE   47 ..............................
........................................................................
   1  -1023.2718259 -0.102327E+04  0.333E-03    0.65       0.0  T
   2  -1023.2718285 -0.259632E-05  0.258E-03    0.65       1.6  T
   3  -1023.2718328 -0.438349E-05  0.110E-03    0.65       3.8  T
   4  -1023.2718321  0.773338E-06  0.834E-04    0.65       5.0  T
   5  -1023.2718331 -0.103937E-05  0.258E-04    0.65      16.2  T
   6  -1023.2718332 -0.772786E-07  0.784E-05    0.65      53.4  T
   7  -1023.2718332 -0.868363E-08  0.329E-05    0.65     127.0  T
     SCC iter.                  ...        0 min, 20.252 sec
     gradient                   ...        0 min,  2.292 sec
 * total energy  : -1006.3994101 Eh     change       -0.1715297E-02 Eh
   gradient norm :     0.0190546 Eh/a0  converged?    E=F G=F D=F
   step length   :     1.0044010 a0

........................................................................
.............................. CYCLE   48 ..............................
........................................................................
   1  -1023.2603902 -0.102326E+04  0.228E-03    0.65       0.0  T
   2  -1023.2603911 -0.889516E-06  0.151E-03    0.65       2.8  T
   3  -1023.2603927 -0.157829E-05  0.781E-04    0.65       5.4  T
   4  -1023.2603928 -0.134557E-06  0.510E-04    0.65       8.2  T
   5  -1023.2603931 -0.329355E-06  0.181E-04    0.65      23.1  T
   6  -1023.2603932 -0.299761E-07  0.621E-05    0.65      67.3  T
     SCC iter.                  ...        0 min, 15.639 sec
     gradient                   ...        0 min,  2.118 sec
 * total energy  : -1006.4006868 Eh     change       -0.1276685E-02 Eh
   gradient norm :     0.0172156 Eh/a0  converged?    E=F G=F D=F
   step length   :     2.0840227 a0

........................................................................
.............................. CYCLE   49 ..............................
........................................................................
   1  -1023.2546583 -0.102325E+04  0.163E-03    0.65       0.0  T
   2  -1023.2546588 -0.483696E-06  0.106E-03    0.65       3.9  T
   3  -1023.2546596 -0.786424E-06  0.622E-04    0.65       6.7  T
   4  -1023.2546598 -0.232188E-06  0.370E-04    0.65      11.3  T
   5  -1023.2546600 -0.121475E-06  0.140E-04    0.65      29.9  T
   6  -1023.2546600 -0.227526E-07  0.480E-05    0.65      87.2  T
     SCC iter.                  ...        0 min, 15.697 sec
     gradient                   ...        0 min,  2.057 sec
 * total energy  : -1006.4017940 Eh     change       -0.1107272E-02 Eh
   gradient norm :     0.0160824 Eh/a0  converged?    E=F G=F D=F
   step length   :     1.9534142 a0

........................................................................
.............................. CYCLE   50 ..............................
........................................................................
   1  -1023.2559870 -0.102326E+04  0.153E-03    0.65       0.0  T
   2  -1023.2559877 -0.669186E-06  0.957E-04    0.65       4.4  T
   3  -1023.2559881 -0.407364E-06  0.550E-04    0.65       7.6  T
   4  -1023.2559881 -0.754846E-07  0.371E-04    0.65      11.3  T
   5  -1023.2559883 -0.139645E-06  0.132E-04    0.65      31.6  T
   6  -1023.2559883 -0.253199E-07  0.417E-05    0.65     100.2  T
     SCC iter.                  ...        0 min, 15.776 sec
     gradient                   ...        0 min,  2.090 sec
 * total energy  : -1006.4028627 Eh     change       -0.1068643E-02 Eh
   gradient norm :     0.0152357 Eh/a0  converged?    E=F G=F D=F
   step length   :     3.0185661 a0

........................................................................
.............................. CYCLE   51 ..............................
........................................................................
   1  -1023.2647681 -0.102326E+04  0.154E-03    0.65       0.0  T
   2  -1023.2647688 -0.683535E-06  0.877E-04    0.65       4.8  T
   3  -1023.2647689 -0.874704E-07  0.538E-04    0.65       7.8  T
   4  -1023.2647689 -0.127776E-07  0.409E-04    0.65      10.2  T
   5  -1023.2647691 -0.215552E-06  0.109E-04    0.65      38.5  T
   6  -1023.2647691 -0.169963E-07  0.358E-05    0.65     116.7  T
     SCC iter.                  ...        0 min, 17.444 sec
     gradient                   ...        0 min,  2.069 sec
 * total energy  : -1006.4039410 Eh     change       -0.1078354E-02 Eh
   gradient norm :     0.0144014 Eh/a0  converged?    E=F G=F D=F
   step length   :     2.6589618 a0

........................................................................
.............................. CYCLE   52 ..............................
........................................................................
   1  -1023.2690615 -0.102327E+04  0.152E-03    0.65       0.0  T
   2  -1023.2690622 -0.657000E-06  0.853E-04    0.65       4.9  T
   3  -1023.2690623 -0.138070E-06  0.521E-04    0.65       8.0  T
   4  -1023.2690624 -0.435183E-07  0.392E-04    0.65      10.7  T
   5  -1023.2690625 -0.183568E-06  0.112E-04    0.65      37.4  T
   6  -1023.2690626 -0.137712E-07  0.326E-05    0.65     128.2  T
     SCC iter.                  ...        0 min, 17.163 sec
     gradient                   ...        0 min,  2.071 sec
 * total energy  : -1006.4049126 Eh     change       -0.9715699E-03 Eh
   gradient norm :     0.0129834 Eh/a0  converged?    E=F G=F D=F
   step length   :     3.6354604 a0

........................................................................
.............................. CYCLE   53 ..............................
........................................................................
   1  -1023.2684652 -0.102327E+04  0.150E-03    0.65       0.0  T
   2  -1023.2684658 -0.636662E-06  0.688E-04    0.65       6.1  T
   3  -1023.2684659 -0.960291E-07  0.431E-04    0.65       9.7  T
   4  -1023.2684660 -0.863058E-07  0.306E-04    0.65      13.6  T
   5  -1023.2684661 -0.105026E-06  0.102E-04    0.65      41.1  T
   6  -1023.2684661 -0.128670E-07  0.291E-05    0.65     143.8  T
     SCC iter.                  ...        0 min, 17.017 sec
     gradient                   ...        0 min,  2.248 sec
 * total energy  : -1006.4058184 Eh     change       -0.9057803E-03 Eh
   gradient norm :     0.0122226 Eh/a0  converged?    E=F G=F D=F
   step length   :     3.2326287 a0

........................................................................
.............................. CYCLE   54 ..............................
........................................................................
   1  -1023.2722452 -0.102327E+04  0.154E-03    0.65       0.0  T
   2  -1023.2722459 -0.732355E-06  0.738E-04    0.65       5.7  T
   3  -1023.2722460 -0.145955E-06  0.451E-04    0.65       9.3  T
   4  -1023.2722461 -0.101924E-06  0.315E-04    0.65      13.3  T
   5  -1023.2722462 -0.944004E-07  0.123E-04    0.65      34.1  T
   6  -1023.2722462 -0.209186E-07  0.285E-05    0.65     146.5  T
     SCC iter.                  ...        0 min, 17.017 sec
     gradient                   ...        0 min,  2.163 sec
 * total energy  : -1006.4067169 Eh     change       -0.8984905E-03 Eh
   gradient norm :     0.0121478 Eh/a0  converged?    E=F G=F D=F
   step length   :     3.5631697 a0

........................................................................
.............................. CYCLE   55 ..............................
........................................................................
   1  -1023.2732937 -0.102327E+04  0.146E-03    0.65       0.0  T
   2  -1023.2732944 -0.619675E-06  0.626E-04    0.65       6.7  T
   3  -1023.2732944 -0.916461E-07  0.421E-04    0.65       9.9  T
   4  -1023.2732946 -0.157183E-06  0.260E-04    0.65      16.1  T
   5  -1023.2732947 -0.586111E-07  0.104E-04    0.65      40.1  T
   6  -1023.2732947 -0.148904E-07  0.260E-05    0.65     160.9  T
     SCC iter.                  ...        0 min, 17.008 sec
     gradient                   ...        0 min,  2.122 sec
 * total energy  : -1006.4075677 Eh     change       -0.8507965E-03 Eh
   gradient norm :     0.0125957 Eh/a0  converged?    E=F G=F D=F
   step length   :     3.8777673 a0

........................................................................
.............................. CYCLE   56 ..............................
........................................................................
   1  -1023.2674418 -0.102327E+04  0.128E-03    0.65       0.0  T
   2  -1023.2674423 -0.494622E-06  0.548E-04    0.65       7.6  T
   3  -1023.2674424 -0.626507E-07  0.359E-04    0.65      11.6  T
   4  -1023.2674425 -0.950373E-07  0.232E-04    0.65      18.0  T
   5  -1023.2674425 -0.514551E-07  0.918E-05    0.65      45.6  T
   6  -1023.2674425 -0.101503E-07  0.247E-05    0.65     169.4  T
     SCC iter.                  ...        0 min, 16.655 sec
     gradient                   ...        0 min,  2.159 sec
 * total energy  : -1006.4083390 Eh     change       -0.7713034E-03 Eh
   gradient norm :     0.0126839 Eh/a0  converged?    E=F G=F D=F
   step length   :     4.8717711 a0

........................................................................
.............................. CYCLE   57 ..............................
........................................................................
   1  -1023.2649130 -0.102326E+04  0.123E-03    0.65       0.0  T
   2  -1023.2649134 -0.441989E-06  0.557E-04    0.65       7.5  T
   3  -1023.2649135 -0.109134E-06  0.359E-04    0.65      11.7  T
   4  -1023.2649137 -0.132423E-06  0.214E-04    0.65      19.5  T
   5  -1023.2649137 -0.350942E-07  0.985E-05    0.65      42.4  T
   6  -1023.2649137 -0.122019E-07  0.218E-05    0.65     192.1  T
     SCC iter.                  ...        0 min, 17.955 sec
     gradient                   ...        0 min,  2.185 sec
 * total energy  : -1006.4091522 Eh     change       -0.8132601E-03 Eh
   gradient norm :     0.0137143 Eh/a0  converged?    E=F G=F D=F
   step length   :     5.5785456 a0

........................................................................
.............................. CYCLE   58 ..............................
........................................................................
   1  -1023.2633831 -0.102326E+04  0.113E-03    0.65       0.0  T
   2  -1023.2633835 -0.341471E-06  0.535E-04    0.65       7.8  T
   3  -1023.2633836 -0.111385E-06  0.357E-04    0.65      11.7  T
   4  -1023.2633837 -0.147640E-06  0.195E-04    0.65      21.5  T
   5  -1023.2633838 -0.248423E-07  0.906E-05    0.65      46.2  T
     SCC iter.                  ...        0 min, 13.649 sec
     gradient                   ...        0 min,  2.139 sec
 * total energy  : -1006.4099727 Eh     change       -0.8204301E-03 Eh
   gradient norm :     0.0148337 Eh/a0  converged?    E=F G=F D=F
   step length   :     6.0163036 a0

........................................................................
.............................. CYCLE   59 ..............................
........................................................................
   1  -1023.2548165 -0.102325E+04  0.108E-03    0.65       0.0  T
   2  -1023.2548168 -0.257277E-06  0.564E-04    0.65       7.4  T
   3  -1023.2548169 -0.571838E-07  0.371E-04    0.65      11.3  T
   4  -1023.2548169 -0.876047E-07  0.228E-04    0.65      18.3  T
   5  -1023.2548170 -0.508843E-07  0.928E-05    0.65      45.1  T
   6  -1023.2548170 -0.102925E-07  0.203E-05    0.65     205.6  T
     SCC iter.                  ...        0 min, 16.733 sec
     gradient                   ...        0 min,  2.171 sec
 * total energy  : -1006.4107424 Eh     change       -0.7697887E-03 Eh
   gradient norm :     0.0148219 Eh/a0  converged?    E=F G=F D=F
   step length   :     6.8215736 a0

........................................................................
.............................. CYCLE   60 ..............................
........................................................................
   1  -1023.2584427 -0.102326E+04  0.121E-03    0.65       0.0  T
   2  -1023.2584429 -0.214015E-06  0.689E-04    0.65       6.1  T
   3  -1023.2584430 -0.157334E-06  0.477E-04    0.65       8.8  T
   4  -1023.2584433 -0.260718E-06  0.249E-04    0.65      16.8  T
   5  -1023.2584433 -0.423902E-07  0.107E-04    0.65      39.2  T
   6  -1023.2584433 -0.124602E-07  0.244E-05    0.65     171.3  T
     SCC iter.                  ...        0 min, 18.285 sec
     gradient                   ...        0 min,  2.190 sec
 * total energy  : -1006.4116354 Eh     change       -0.8929186E-03 Eh
   gradient norm :     0.0158082 Eh/a0  converged?    E=F G=F D=F
   step length   :     6.8273111 a0

........................................................................
.............................. CYCLE   61 ..............................
........................................................................
   1  -1023.2471779 -0.102325E+04  0.113E-03    0.65       0.0  T
[...]
   345   6 C      346   7 N                                       1.3696945
   345   6 C      347   6 C                                       1.4005878
   348   6 C      349   6 C                                       1.3954035
   349   6 C      350   6 C                                       1.3860825
   350   6 C      351   6 C                                       1.3930185
   351   6 C      352   8 O                                       1.3576191
   351   6 C      353   6 C                                       1.3937511
   348   6 C      354   6 C                                       1.3970997
   353   6 C      354   6 C                                       1.3835874
   347   6 C      355   6 C                                       1.3958239
   355   6 C      356   6 C                                       1.4516913
   356   6 C      357   6 C                                       1.3492420
   355   6 C      358   7 N                                       1.3621581
   357   6 C      359   6 C                                       1.4493308
   358   7 N      359   6 C                                       1.3478516
   359   6 C      360   6 C                                       1.4099617
   360   6 C      361   6 C                                       1.4088463
   361   6 C      362   6 C                                       1.4185721
   362   6 C      363   6 C                                       1.3683869
   363   6 C      364   6 C                                       1.4210679
   361   6 C      365   7 N                                       1.3625151
   364   6 C      365   7 N                                       1.3696449
   364   6 C      366   6 C                                       1.4006336
   367   6 C      368   6 C                                       1.3971494
   368   6 C      369   6 C                                       1.3835551
   369   6 C      370   6 C                                       1.3937494
   370   6 C      371   8 O                                       1.3576163
   370   6 C      372   6 C                                       1.3930225
   367   6 C      373   6 C                                       1.3953430
   372   6 C      373   6 C                                       1.3861321
   366   6 C      374   6 C                                       1.3957832
   374   6 C      375   6 C                                       1.4516937
   375   6 C      376   6 C                                       1.3492515
   341   6 C      377   6 C                                       1.4099895
   376   6 C      377   6 C                                       1.4493572
   374   6 C      378   7 N                                       1.3622251
   377   6 C      378   7 N                                       1.3478151
   343   6 C      379   1 H                                       1.0780220
   344   6 C      380   1 H                                       1.0777191
   346   7 N      381   1 H                                       1.0145682
   349   6 C      382   1 H                                       1.0842896
   350   6 C      383   1 H                                       1.0847251
   352   8 O      384   1 H                                       0.9666436
   353   6 C      385   1 H                                       1.0829895
   354   6 C      386   1 H                                       1.0843245
   356   6 C      387   1 H                                       1.0779319
   357   6 C      388   1 H                                       1.0782795
   362   6 C      389   1 H                                       1.0780259
   363   6 C      390   1 H                                       1.0777220
   365   7 N      391   1 H                                       1.0145732
   368   6 C      392   1 H                                       1.0843293
   369   6 C      393   1 H                                       1.0829955
   371   8 O      394   1 H                                       0.9666514
   372   6 C      395   1 H                                       1.0847288
   373   6 C      396   1 H                                       1.0842818
   375   6 C      397   1 H                                       1.0779483
   376   6 C      398   1 H                                       1.0782726
   399   6 C      400   6 C                                       1.4088347
   400   6 C      401   6 C                                       1.4185796
   401   6 C      402   6 C                                       1.3683827
   402   6 C      403   6 C                                       1.4210792
   400   6 C      404   7 N                                       1.3625093
   403   6 C      404   7 N                                       1.3696768
   403   6 C      405   6 C                                       1.4005865
   406   6 C      407   6 C                                       1.3953728
   407   6 C      408   6 C                                       1.3861085
   408   6 C      409   6 C                                       1.3930268
   409   6 C      410   8 O                                       1.3576260
   409   6 C      411   6 C                                       1.3937558
   406   6 C      412   6 C                                       1.3971240
   411   6 C      412   6 C                                       1.3835786
   405   6 C      413   6 C                                       1.3958150
   413   6 C      414   6 C                                       1.4516920
   414   6 C      415   6 C                                       1.3492505
   413   6 C      416   7 N                                       1.3621658
   415   6 C      417   6 C                                       1.4493327
   416   7 N      417   6 C                                       1.3478599
   417   6 C      418   6 C                                       1.4099733
   418   6 C      419   6 C                                       1.4088507
   419   6 C      420   6 C                                       1.4185730
   420   6 C      421   6 C                                       1.3683902
   421   6 C      422   6 C                                       1.4210708
   419   6 C      423   7 N                                       1.3625308
   422   6 C      423   7 N                                       1.3696611
   422   6 C      424   6 C                                       1.4006289
   425   6 C      426   6 C                                       1.3971354
   426   6 C      427   6 C                                       1.3835722
   427   6 C      428   6 C                                       1.3937610
   428   6 C      429   8 O                                       1.3576248
   428   6 C      430   6 C                                       1.3930266
   425   6 C      431   6 C                                       1.3953731
   430   6 C      431   6 C                                       1.3861241
   424   6 C      432   6 C                                       1.3957816
   432   6 C      433   6 C                                       1.4517084
   433   6 C      434   6 C                                       1.3492420
   399   6 C      435   6 C                                       1.4099842
   434   6 C      435   6 C                                       1.4493494
   432   6 C      436   7 N                                       1.3621997
   435   6 C      436   7 N                                       1.3478254
   401   6 C      437   1 H                                       1.0780221
   402   6 C      438   1 H                                       1.0777163
   404   7 N      439   1 H                                       1.0145653
   407   6 C      440   1 H                                       1.0842957
   408   6 C      441   1 H                                       1.0847268
   410   8 O      442   1 H                                       0.9666439
   411   6 C      443   1 H                                       1.0829967
   412   6 C      444   1 H                                       1.0843353
   414   6 C      445   1 H                                       1.0779336
   415   6 C      446   1 H                                       1.0782680
   420   6 C      447   1 H                                       1.0780246
   421   6 C      448   1 H                                       1.0777196
   423   7 N      449   1 H                                       1.0145696
   426   6 C      450   1 H                                       1.0843351
   427   6 C      451   1 H                                       1.0829902
   429   8 O      452   1 H                                       0.9666323
   430   6 C      453   1 H                                       1.0847303
   431   6 C      454   1 H                                       1.0842953
   433   6 C      455   1 H                                       1.0779372
   434   6 C      456   1 H                                       1.0782706
   457   6 C      458   6 C                                       1.4088214
   458   6 C      459   6 C                                       1.4185702
   459   6 C      460   6 C                                       1.3683764
   460   6 C      461   6 C                                       1.4211153
   458   6 C      462   7 N                                       1.3625170
   461   6 C      462   7 N                                       1.3696725
   461   6 C      463   6 C                                       1.4006095
   464   6 C      465   6 C                                       1.3953706
   465   6 C      466   6 C                                       1.3861175
   466   6 C      467   6 C                                       1.3930204
   467   6 C      468   8 O                                       1.3576388
   467   6 C      469   6 C                                       1.3937508
   464   6 C      470   6 C                                       1.3971569
   469   6 C      470   6 C                                       1.3835636
   463   6 C      471   6 C                                       1.3958919
   471   6 C      472   6 C                                       1.4517001
   472   6 C      473   6 C                                       1.3492565
   471   6 C      474   7 N                                       1.3621372
   473   6 C      475   6 C                                       1.4493018
   474   7 N      475   6 C                                       1.3479178
   475   6 C      476   6 C                                       1.4099970
   476   6 C      477   6 C                                       1.4088065
   477   6 C      478   6 C                                       1.4185877
   478   6 C      479   6 C                                       1.3683898
   479   6 C      480   6 C                                       1.4210760
   477   6 C      481   7 N                                       1.3625854
   480   6 C      481   7 N                                       1.3696688
   480   6 C      482   6 C                                       1.4006489
   483   6 C      484   6 C                                       1.3971228
   484   6 C      485   6 C                                       1.3835780
   485   6 C      486   6 C                                       1.3937486
   486   6 C      487   8 O                                       1.3576253
   486   6 C      488   6 C                                       1.3930248
   483   6 C      489   6 C                                       1.3953942
   488   6 C      489   6 C                                       1.3861031
   482   6 C      490   6 C                                       1.3957899
   490   6 C      491   6 C                                       1.4517315
   491   6 C      492   6 C                                       1.3492348
   457   6 C      493   6 C                                       1.4099668
   492   6 C      493   6 C                                       1.4493286
   490   6 C      494   7 N                                       1.3621805
   493   6 C      494   7 N                                       1.3478344
   459   6 C      495   1 H                                       1.0780211
   460   6 C      496   1 H                                       1.0777198
   462   7 N      497   1 H                                       1.0145627
   465   6 C      498   1 H                                       1.0842850
   466   6 C      499   1 H                                       1.0847259
   468   8 O      500   1 H                                       0.9666487
   469   6 C      501   1 H                                       1.0829917
   470   6 C      502   1 H                                       1.0843354
   472   6 C      503   1 H                                       1.0779217
   473   6 C      504   1 H                                       1.0782725
   478   6 C      505   1 H                                       1.0780271
   479   6 C      506   1 H                                       1.0777174
   481   7 N      507   1 H                                       1.0145593
   484   6 C      508   1 H                                       1.0843292
   485   6 C      509   1 H                                       1.0829899
   487   8 O      510   1 H                                       0.9666507
   488   6 C      511   1 H                                       1.0847245
   489   6 C      512   1 H                                       1.0842930
   491   6 C      513   1 H                                       1.0779298
   492   6 C      514   1 H                                       1.0782645
   515   6 C      516   6 C                                       1.4086075
   516   6 C      517   6 C                                       1.4186979
   517   6 C      518   6 C                                       1.3682173
   518   6 C      519   6 C                                       1.4213570
   516   6 C      520   7 N                                       1.3625386
   519   6 C      520   7 N                                       1.3697267
   519   6 C      521   6 C                                       1.4002373
   522   6 C      523   6 C                                       1.3954045
   523   6 C      524   6 C                                       1.3860993
   524   6 C      525   6 C                                       1.3930114
   525   6 C      526   8 O                                       1.3577199
   525   6 C      527   6 C                                       1.3937314
   522   6 C      528   6 C                                       1.3971305
   527   6 C      528   6 C                                       1.3836012
   521   6 C      529   6 C                                       1.3963752
   529   6 C      530   6 C                                       1.4519244
   530   6 C      531   6 C                                       1.3491502
   529   6 C      532   7 N                                       1.3613118
   531   6 C      533   6 C                                       1.4494197
   532   7 N      533   6 C                                       1.3488209
   533   6 C      534   6 C                                       1.4088918
   534   6 C      535   6 C                                       1.4078728
   535   6 C      536   6 C                                       1.4189249
   536   6 C      537   6 C                                       1.3681188
   537   6 C      538   6 C                                       1.4214119
   535   6 C      539   7 N                                       1.3630037
   538   6 C      539   7 N                                       1.3694614
   538   6 C      540   6 C                                       1.4005263
   541   6 C      542   6 C                                       1.3970480
   542   6 C      543   6 C                                       1.3836281
   543   6 C      544   6 C                                       1.3937415
   544   6 C      545   8 O                                       1.3576344
   544   6 C      546   6 C                                       1.3930206
   541   6 C      547   6 C                                       1.3953858
   546   6 C      547   6 C                                       1.3861097
   540   6 C      548   6 C                                       1.3958987
   548   6 C      549   6 C                                       1.4518667
   549   6 C      550   6 C                                       1.3491852
   515   6 C      551   6 C                                       1.4099123
   550   6 C      551   6 C                                       1.4493830
   548   6 C      552   7 N                                       1.3620374
   551   6 C      552   7 N                                       1.3479145
   517   6 C      553   1 H                                       1.0780321
   518   6 C      554   1 H                                       1.0777228
   520   7 N      555   1 H                                       1.0145508
   523   6 C      556   1 H                                       1.0842895
   524   6 C      557   1 H                                       1.0847279
   526   8 O      558   1 H                                       0.9666418
   527   6 C      559   1 H                                       1.0829913
   528   6 C      560   1 H                                       1.0843345
   530   6 C      561   1 H                                       1.0779485
   531   6 C      562   1 H                                       1.0782591
   536   6 C      563   1 H                                       1.0780358
   537   6 C      564   1 H                                       1.0777252
   539   7 N      565   1 H                                       1.0145627
   542   6 C      566   1 H                                       1.0843313
   543   6 C      567   1 H                                       1.0829924
   545   8 O      568   1 H                                       0.9666506
   546   6 C      569   1 H                                       1.0847265
   547   6 C      570   1 H                                       1.0842994
   549   6 C      571   1 H                                       1.0779316
   550   6 C      572   1 H                                       1.0782698

 * 6 distinct bonds (by element types)

   Z      Z             #   av. dist./Å        max./Å        min./Å
   1 H    6 C         146     1.0811209     1.0854294     1.0777149
   6 C    6 C         310     1.3872961     1.4521208     1.2236122
   1 H    7 N          18     1.0145761     1.0147141     1.0145217
   6 C    7 N          72     1.3605910     1.3702186     1.3477982
   1 H    8 O          18     0.9666446     0.9666633     0.9666193
   6 C    8 O          18     1.3576899     1.3578947     1.3576125


optimized geometry written to: xtbopt.xyz


           -------------------------------------------------
          | TOTAL ENERGY            -1006.437203159881 Eh   |
          | GRADIENT NORM               0.000799192223 Eh/α |
          | HOMO-LUMO GAP               0.673949151936 eV   |
           -------------------------------------------------

------------------------------------------------------------------------
 * finished run on 2022/07/28 at 23:22:58.610     
------------------------------------------------------------------------
 total:
 * wall-time:     0 d,  1 h,  6 min, 52.112 sec
 *  cpu-time:     0 d,  1 h,  6 min, 26.688 sec
 * ratio c/w:     0.994 speedup
 SCF:
 * wall-time:     0 d,  0 h,  1 min, 43.940 sec
 *  cpu-time:     0 d,  0 h,  1 min, 43.332 sec
 * ratio c/w:     0.994 speedup
 ANC optimizer:
 * wall-time:     0 d,  1 h,  5 min,  7.241 sec
 *  cpu-time:     0 d,  1 h,  4 min, 42.509 sec
 * ratio c/w:     0.994 speedup

