572
 energy: -1006.437203159881 gnorm: 0.000799192223 xtb: 6.5.1 (b24c23e)
C          109.01222047369099        0.14678012560408        0.06984011058372
C          109.62596263816103        1.28307845151594       -0.44147687273132
C          108.97849326728871        2.43864602133174       -0.96160208190361
C          109.94445346853492        3.32343906126559       -1.35111027638188
C          111.21363337232553        2.74211275503995       -1.06961484481607
N          110.97033868193783        1.50918014190038       -0.53370857307741
C          112.47955608232917        3.29511930832964       -1.29567974595577
C          112.51948607503404        4.66528089258142       -1.86195492986863
C          113.14284869019421        4.90574416656882       -3.08714400807963
C          113.17880024472339        6.18236152498476       -3.62580180897568
C          112.59288393701689        7.24074611975858       -2.93517750429684
O          112.60704742251804        8.50721418299485       -3.42474470200916
C          111.97029573626553        7.01534704456454       -1.70882561829947
C          111.93329282630778        5.73618283736470       -1.18261176470644
C          113.69095467392414        2.65298592349024       -1.02655373836351
C          114.99215799290980        3.27496828297865       -1.19393633891340
C          115.90738110884224        2.34863905384612       -0.84090435889871
N          113.83781713978489        1.38196711048451       -0.56097410426605
C          115.16425080356095        1.16601119981461       -0.45156017240800
C          115.79397993558871       -0.02686559906272       -0.04215136601157
C          115.15181256201362       -1.20387545849889        0.38644531198363
C          115.78814778176027       -2.41642996378244        0.76233045238556
C          114.81735296609764       -3.30453160654531        1.13482637501299
C          113.55736412389892       -2.65670010101555        1.00761036308725
N          113.81117081919083       -1.39375187942164        0.54068706863143
C          112.29445044616190       -3.19118403508396        1.28456675168917
C          112.25514578082606       -4.57167741198837        1.82370274815571
C          112.89429900983623       -4.88520431342593        3.02610729226550
C          112.85769913012648       -6.17140383318569        3.53451918190519
C          112.18225205904751       -7.17141210203435        2.83723197907136
O          112.16986822105366       -8.42361318004158        3.36214327754715
C          111.54334922988441       -6.87499187543011        1.63541283404334
C          111.57913614053351       -5.58170770302623        1.13789036693456
C          111.08346007301834       -2.51734433876458        1.09046300314757
C          109.77993106308942       -3.05904842067996        1.44140236509401
C          108.87172306216561       -2.12363240644559        1.09733347501490
C          109.61975621412965       -1.00699217939341        0.54764436378951
N          110.94857986582647       -1.27493275961650        0.56925955862487
H          107.92733644362661        0.17170456530063        0.09349076701639
H          107.90934619626375        2.56155430946275       -1.03035948154825
H          109.79615215524238        4.29111151001159       -1.80230058893789
H          111.69339302898648        0.85637150037641       -0.25035829855916
H          113.58805522530687        4.08065970177158       -3.63189260151199
H          113.65887918067105        6.36149105490122       -4.58189133420355
H          113.06915737925809        8.55202924068198       -4.27259546488727
H          111.52361262033961        7.84837737892818       -1.18019717147743
H          111.46237551696306        5.56509139678540       -0.22094347743080
H          115.16078390800693        4.28847699925895       -1.52016017881800
H          116.98212660078082        2.43507242374103       -0.82886655409186
H          116.85342917064868       -2.58076076586720        0.74100298243144
H          114.95823782242623       -4.32255023884003        1.45952061578646
H          113.09358547117026       -0.70588395747205        0.33685676411562
H          113.40734221916543       -4.10481663331453        3.57710818644742
H          113.34561775633610       -6.41473860383520        4.47026272955252
H          111.67266833103876       -9.03540192770495        2.80280478133770
H          111.02263324313067       -7.65733367629449        1.09367212338364
H          111.09309987452566       -5.35585863014209        0.19529304441018
H          109.60848554351915       -4.01887666631773        1.90166887109360
H          107.79835704113422       -2.15360649602420        1.20168291148987
C          243.89464969138095       -0.02917644864522        0.11901477220335
C          243.27418668765984       -1.08604680417541        0.77265781073590
C          243.91481222058306       -2.18079962975129        1.41784262090990
C          242.94409921397815       -2.99063442047457        1.93687907625930
C          241.67887236459202       -2.41052557770667        1.63556625989545
N          241.92894667964211       -1.27093320891278        0.92473724816548
C          240.41055046343868       -2.89720547477677        1.97292149933058
C          240.36538373285993       -4.14313818669743        2.77638048855611
C          239.72904585322138       -5.28223235549016        2.28161875529559
C          239.68880437764946       -6.45118866484135        3.02545279320897
C          240.28366328882993       -6.49030100943399        4.28442212902380
O          240.26584914767065       -7.61333521376748        5.04754369313081
C          240.91956026749432       -5.35882488110390        4.79210090677229
C          240.96058373155100       -4.19869285639419        4.03918561588985
C          239.20230671229939       -2.29637741243437        1.61040056212893
C          237.89900714915149       -2.78009191446130        2.02946202958652
C          236.98825055797349       -1.94782723366486        1.48353739532992
N          239.06129956198831       -1.18048814567770        0.84329375462137
C          237.73626970649434       -0.95199283618125        0.74094845543170
C          237.11183257325567        0.08872684697289        0.02446409753826
C          237.75804463292761        1.11893609981559       -0.68378085195156
C          237.12455986835806        2.14283218418411       -1.43697166928942
C          238.09958587337258        2.94210580118350       -1.96618813011447
C          239.35996630554499        2.43621506165217       -1.54286855136375
N          239.10130528594397        1.32932102664911       -0.77776814860885
C          240.62696502609094        2.94131545720985       -1.85362970037959
C          240.67389343564639        4.17127595875469       -2.68028923972737
C          240.07648202150148        5.35349849179785       -2.23559283857056
C          240.12027884647651        6.50298218475760       -3.00441835403087
C          240.76078679887971        6.48300378528758       -4.24206829523476
O          240.78106729063563        7.62720161290895       -4.97295883780753
C          241.35810777607418        5.31098364050700       -4.70032204791098
C          241.31556108393980        4.16646463253771       -3.91956200673982
C          241.83625189897251        2.36923741088394       -1.44299280010541
C          243.14594650628084        2.93911061723044       -1.71832297470424
C          244.04991623591607        2.10450746096381       -1.16656456895970
C          243.29353421987486        1.03164722920910       -0.54566881920288
N          241.96414204748143        1.22915078498230       -0.72386885454041
H          244.97989680271752       -0.04282013704834        0.13348271604899
H          244.98277239277209       -2.32266021447877        1.46519294865839
H          243.08633354739538       -3.91445151474360        2.47380858382579
H          241.20960571612565       -0.65590876701620        0.55928171237926
H          239.27699081106357       -5.25726356974375        1.29636083539829
H          239.19847562146694       -7.33536368176334        2.63240940187532
H          239.79425486703158       -8.33215925798578        4.60562403841271
H          241.37334191446280       -5.40179236440815        5.77451738021171
H          241.44217641392578       -3.31449982972633        4.44183260198823
H          237.72612223891642       -3.63090727342666        2.66841922712871
H          235.91370296549329       -1.97757756317145        1.56810140569180
H          236.05798826720545        2.24216612199168       -1.55879712417590
H          237.96113342208326        3.80051505534303       -2.60304032700175
H          239.81753062440529        0.74857861275054       -0.35420704267354
H          239.59083187996578        5.37441018918871       -1.26630648417295
H          239.66476062784108        7.42251687000426       -2.65821969019784
H          241.25183449480488        7.50360191187961       -5.80810504169154
H          241.85180772905215        5.29861662269497       -5.66614630992688
H          241.76901239987913        3.25134297920839       -4.28382018508811
H          243.32433111306068        3.86079483271567       -2.24858991377205
H          245.12569730133285        2.18506623184820       -1.15626184815528
C          120.99611339293598       -0.11076441655707       -0.08444364113400
C          119.76786233028163       -0.10091655423222       -0.07872754009244
C          118.42336466672411       -0.08141378518294       -0.07053165309686
C          117.19984413490513       -0.05720062416495       -0.05828016166140
C          122.34060589910956       -0.11411675959852       -0.08692291511407
C          123.56460992614714       -0.10861103638060       -0.08533395318216
C          137.02064871248078        0.03248862635751       -0.04960750979355
C          135.79173713737785        0.02448763427021       -0.05965343071991
C          134.44878163100995        0.01859227856426       -0.07641469387446
C          133.22431346686503        0.00808341046243       -0.08793195272992
C          138.36361057803532        0.03490077311614       -0.03430909493216
C          139.58817257908541        0.03811710911434       -0.02090811698091
C          153.04054960959573        0.00899618695940        0.01326358050393
C          151.81159831050434        0.01463347831746        0.00445593138152
C          150.46876757706508        0.02056766133151       -0.00421149791217
C          149.24419558526168        0.02335439262160       -0.01177440613522
C          154.38337890430458        0.00086692383678        0.02242025269344
C          155.60794994686580       -0.00258147986285        0.03060134563740
C          169.05798915686509       -0.05038507959087        0.09694125252475
C          167.82903474106413       -0.04820693971233        0.08729411477992
C          166.48623138511124       -0.04224122249262        0.07618025307728
C          165.26167484206752       -0.03717159683122        0.06428150130683
C          170.40082402150347       -0.05447657853297        0.10452965065932
C          171.62543115335524       -0.05456780461110        0.10954118057040
C          185.07536938617855       -0.03572172291045        0.07672399188259
C          183.84641586569415       -0.03567162398804        0.07068697857113
C          182.50361446071000       -0.03147506386377        0.06439607575485
C          181.27904958574524       -0.03210516848123        0.05853132146110
C          186.41821287220117       -0.03798285226136        0.07993252574429
C          187.64279731545287       -0.03604376737545        0.08258355009732
C          201.09316819925309        0.00640186527407       -0.00458353600303
C          199.86422577809822        0.00703062955696       -0.00775246029799
C          198.52130698044539        0.01008543994373       -0.00723277010931
C          197.29668274348703        0.00724005713274       -0.01018026575253
C          202.43601944647978        0.00523491006911       -0.00110231637196
C          203.66063528202767        0.00504223202404        0.00289986694250
C          217.11252478185560        0.05626003242914       -0.06771059783217
C          215.88358091963397        0.05203146075922       -0.07330584100632
C          214.54051252822680        0.04579173353862       -0.07450994081934
C          213.31592204932230        0.04100257891840       -0.07576431272836
C          218.45554565319929        0.06139491985285       -0.06002795358327
C          219.68005951305207        0.07055138466640       -0.05284906166005
C          233.13675384204436        0.13909573301127       -0.02629140152315
C          231.90878812884796        0.14585580698002       -0.03866785013485
C          230.56382109533718        0.14944804158711       -0.05020740316936
C          229.34008742296001        0.14603063137263       -0.05908397635164
C          234.48175994026042        0.12736491551697       -0.01065926008844
C          235.70514018051270        0.11038127501438        0.00603782296088
C          124.96997592509852       -0.09992448173300       -0.07650223124780
C          125.60679567652112       -1.20763727904748       -0.66824725773912
C          124.96629399689176       -2.30526310800078       -1.29903034760254
C          125.93809892110215       -3.14203221517067       -1.77601636115125
C          127.20130033312418       -2.58338059394650       -1.44079325024871
N          126.94988975987042       -1.41371950649195       -0.77432984728387
C          128.46579492725039       -3.09738992458072       -1.75474358316604
C          128.49325503432433       -4.39432270968658       -2.47524393322137
C          129.06761655929020       -4.48614574632805       -3.74362801450886
C          129.09329919121566       -5.69342636363818       -4.42415078985510
C          128.54690665507783       -6.83105961576099       -3.83445596649189
O          128.55357908100655       -8.03410413365331       -4.46373123621626
C          127.97308237221925       -6.75385672911690       -2.56668206167368
C          127.94527422406490       -5.54264600799185       -1.89836002009157
C          129.68420074008355       -2.48987818681933       -1.44676284066410
C          130.97815734454571       -3.08549472005970       -1.72755956728899
C          131.90575104043421       -2.21930595562368       -1.26973091144372
N          129.84781418033555       -1.29175319250456       -0.81980657178641
C          131.17716176041694       -1.10161656593238       -0.70350594113771
C          131.82067105704442        0.00026552515632       -0.10372288851616
C          131.18332273156622        1.09992260849283        0.50354605938122
C          131.82364548285466        2.18722519426734        1.15186489404942
C          130.85178892660375        3.02553777849671        1.62604611964264
C          129.58901001215301        2.47808091010769        1.27137913214638
N          129.84076151310549        1.31190170707636        0.59847703908984
C          128.32452659569159        3.00046400861194        1.56972487039593
C          128.29778482247792        4.29662053483977        2.29110378146445
C          128.86922378578888        5.43944250513618        1.72596595632499
C          128.84583645570353        6.64934828682272        2.39671383924548
C          128.25290115046641        6.73076527868715        3.65541427665791
O          128.25221618976880        7.93205323585485        4.28796754275502
C          127.68222823152009        5.59886906497793        4.23305302198229
C          127.70363761232737        4.39295330360258        3.55003433156087
C          127.10589800935334        2.40025631975539        1.24679276543515
C          125.81250333345605        3.00534657963452        1.50908291771190
C          124.88484501775844        2.13901451861180        1.05171044906756
C          125.61282632714553        1.01165490428698        0.50418625601520
N          126.94269005947851        1.19840034134100        0.62818869366703
H          123.89826072827593       -2.42633820768422       -1.38167503398619
H          125.79375677892904       -4.05899003266827       -2.32360716354451
H          127.66657260789974       -0.78665968292312       -0.42431446660678
H          129.48231868467923       -3.59877850249945       -4.20871799052469
H          129.53508840401000       -5.75696418084496       -5.41280774347159
H          128.97985179564398       -7.97682442043596       -5.32941579963659
H          127.55642078985768       -7.64726857864026       -2.11825536883624
H          127.51163998092429       -5.48682554872818       -0.90607902697847
H          131.13459596117704       -4.04457084683562       -2.19408093870934
H          132.98004921669019       -2.30900757882312       -1.29226054283143
H          132.89140371705020        2.30135126334048        1.24682820934071
H          130.99586248564432        3.93638034383385        2.18378965062854
H          129.12428768103891        0.69202449654477        0.23552428169717
H          129.31824640561311        5.38041359339095        0.74073817163790
H          129.28113640146915        7.53839169264832        1.95740845079165
H          127.81194902828290        7.87805166249607        5.14684219057217
H          127.22548371676776        5.66567310051994        5.21465510821153
H          127.27056652299920        3.50979830955328        4.00629398410078
H          125.65678676474383        3.97000625013328        1.96421372885144
H          123.81088681292965        2.23425756146507        1.06375053371297
C          140.99176363545195        0.02856040038539       -0.00617217170408
C          141.61451803632772       -1.07043207589434       -0.63024832420979
C          140.95933431239217       -2.13976029272234       -1.29325202541230
C          141.91966884135681       -2.98307685005387       -1.78221456649211
C          143.18970257125773       -2.45657686999133       -1.42275418496465
N          142.95416839060567       -1.29785119945679       -0.73152010876084
C          144.44716375294720       -2.98873354890699       -1.73507775204884
C          144.45577152448843       -4.27444650702096       -2.47544809916862
C          145.04174129726599       -4.36002208609755       -3.73892900434903
C          145.04756497047424       -5.55715565044176       -4.43760609272669
C          144.46923253982874       -6.69092659038004       -3.87139039388946
O          144.45503794966294       -7.88394082946759       -4.51923062887627
C          143.88388306665473       -6.62010393502614       -2.60850211367560
C          143.87608426223849       -5.41887531179042       -1.92204261774151
C          145.67339916025387       -2.40785236637269       -1.40787554342528
C          146.95939372925375       -3.01955958539304       -1.68990964272196
C          147.89773162930155       -2.17343110580491       -1.21659217330490
N          145.85191896254497       -1.22147656228085       -0.76267508905199
C          147.18332882289738       -1.05272435242454       -0.63845652503521
C          147.84069925328893        0.03239239061519       -0.02323417779171
C          147.21812482406119        1.13048536026369        0.60234649283151
C          147.87356194256620        2.19918081802931        1.26616407573512
C          146.91332894963671        3.04020543631319        1.75917141492931
C          145.64305277595201        2.51328357077164        1.40090778738501
N          145.87849905688370        1.35639600290583        0.70644132376204
C          144.38562363144956        3.04342895280117        1.71622380811154
C          144.37672718565432        4.32559311816385        2.46273166423849
C          144.95547265193338        5.47325520590352        1.91511391573009
C          144.94787724281616        6.67066306900153        2.60825058682185
C          144.36368928750863        6.73429715364381        3.87205605873557
O          144.37822916320675        7.92365853977018        4.52656132231409
C          143.78610390956391        5.59725278425495        4.43244329199875
C          143.79168900417969        4.40403691168394        3.72711893866553
C          143.15929466691696        2.46363029719566        1.38680684346314
C          141.87344415387841        3.07528585452540        1.66957568378840
C          140.93499687433629        2.23168233706102        1.19191934084694
C          141.64915023347098        1.11215013581685        0.61137959585513
N          142.98069275189783        1.27953224518798        0.73771282888582
H          139.89007403601718       -2.23924710897338       -1.38754303768367
H          141.76306951810594       -3.88367418531657       -2.35307228474415
H          143.67941094031602       -0.69320217636307       -0.36035733603071
H          145.48086412953242       -3.47527182543173       -4.18621789540056
H          145.49824243307145       -5.61564406220688       -5.42254359792942
H          144.89081782692989       -7.82310064787399       -5.37993762393215
H          143.44232584906351       -7.51050532925722       -2.17829346749302
H          143.43304275044204       -5.36823527813554       -0.93364707277518
H          147.10356672723202       -3.97473639294936       -2.16823176874992
H          148.97064271394868       -2.27916188038956       -1.23527738034167
H          148.94293445060976        2.29951079218765        1.35841364614499
H          147.07020923967008        3.93959822817303        2.33184505008733
H          145.15316790095861        0.75172438699809        0.33549656377893
H          145.39763163824418        5.42829083955329        0.92605054878769
H          145.38877459839910        7.56358174478085        2.18260529962058
H          143.94325195192005        7.85789237438820        5.38732115296387
H          143.33625613614879        5.65013201994416        5.41807549566279
H          143.35315712591230        3.51668127681568        4.16980592801102
H          141.72954316939089        4.02890736802787        2.15108423981119
H          139.86213111541315        2.33811669212187        1.20950253240110
C          157.01142876209786       -0.01328330450666        0.04411535996088
C          157.63315039805278       -1.11231241019949       -0.58071114745761
C          156.97682747507082       -2.17839515892252       -1.24780175474034
C          157.93625692759190       -3.02161009282812       -1.73870291819524
C          159.20678398440486       -2.49881283339325       -1.37553446055470
N          158.97245952444212       -1.34185005494428       -0.68088239492934
C          160.46389668127543       -3.03275300982021       -1.68609749218468
C          160.47215670226052       -4.31487654339910       -2.43252848251042
C          161.06438934552614       -4.39562482819186       -3.69343740911267
C          161.06939760224421       -5.58879125941395       -4.39882269014501
C          160.48386687409882       -6.72353937659360       -3.84203415482450
O          160.46830287848445       -7.91273919955016       -4.49677754456938
C          159.89252669662321       -6.65766946753444       -2.58166982797252
C          159.88567203412990       -5.46032374108125       -1.88845235139135
C          161.69032255214373       -2.45617719854359       -1.35175805908290
C          162.97578310570034       -3.07135805744516       -1.62850744401732
C          163.91435275655567       -2.22932201267207       -1.14826079874508
N          161.86925048622317       -1.27174490574889       -0.70316727342698
C          163.20056751666482       -1.10722064643822       -0.57208631944669
C          163.85831629240809       -0.02406494030391        0.04607662767698
C          163.23664865302257        1.07719575927414        0.66700199889556
C          163.89289245725212        2.14574842365692        1.33024119369065
C          162.93344222368196        2.99205270007989        1.81578347228403
C          161.66299596565261        2.46818248426674        1.45387422217106
N          161.89739313411846        1.30798188368870        0.76466534027564
C          160.40593983001136        3.00341250200461        1.76222518896222
C          160.39770209337013        4.29006440046911        2.50085276621779
C          160.98208401907655        5.43241748259821        1.94810982165981
C          160.97385457135599        6.63474659426111        2.63261616415045
C          160.38327568488603        6.70882826150292        3.89286925161835
O          160.39683688363709        7.90292759306100        4.53866665090071
C          159.80055556405355        5.57706462715035        4.45858264904379
C          159.80691686595102        4.37881004137763        3.76187578973669
C          159.17945744246055        2.42438794291943        1.43226370774289
C          157.89382557481397        3.03870592072015        1.71005117199730
C          156.95527172415913        2.19352740963880        1.23544169044706
C          157.66921091167646        1.07095901992261        0.66039794503845
N          159.00062494221902        1.23760895022313        0.78795966547075
H          155.90747778725509       -2.27549519431740       -1.34379864347814
H          157.77866470455530       -3.91976592917740       -2.31312312331789
H          159.69845939998098       -0.73975263753386       -0.30704715733193
H          161.50903637634428       -3.51000834616687       -4.13349130175448
H          161.52489461748755       -5.64339536999292       -5.38176314863457
H          160.90850862149074       -7.84867297876255       -5.35498972825649
H          159.44553217489192       -7.54884681357882       -2.15874164842253
H          159.43801042269598       -5.41375203674772       -0.90194910610003
H          163.11931760941869       -4.02609348321958       -2.10794358321180
H          164.98701240228309       -2.33848250604914       -1.16145364711886
H          164.96219969669264        2.24268094793708        1.42690498025821
H          163.09085239175806        3.89297155842561        2.38591104030189
H          161.17146773765069        0.70475640057219        0.39250590498259
H          161.42902423359561        5.37936801485738        0.96160948100943
H          161.41893202401076        7.52357851333500        2.20280568897241
H          159.95651085859069        7.84462708090292        5.39721198251326
H          159.34593772796285        5.63802578213485        5.44154655362053
H          159.36433593875842        3.49563398666780        4.20884039107827
H          157.75002458105365        3.99482323451589        2.18659870542727
H          155.88251436794343        2.30119003565978        1.25109345385786
C          173.02896972416303       -0.05803783699872        0.11296036585426
C          173.65164781691544       -1.15415130692804       -0.51599728438167
C          172.99575670032172       -2.22591526484808       -1.17440333012492
C          173.95579512058228       -3.06284160985578       -1.67477211952433
C          175.22641724517206       -2.53025041318390       -1.32649265878901
N          174.99137032924270       -1.37443503508486       -0.63014039873206
C          176.48384341321685       -3.05442718797250       -1.65170620558227
C          176.49367937015771       -4.33531271825758       -2.40036088700789
C          177.06998199286150       -4.40808486630160       -3.66911227581688
C          177.07682980634314       -5.59979259907897       -4.37693294146024
C          176.50947154101655       -6.74104229768119       -3.81465721247164
O          176.49660747610935       -7.92914067944923       -4.47145695495718
C          175.93422159739254       -6.68309845579375       -2.54648070720387
C          175.92514391267889       -5.48713431440812       -1.85085063141741
C          177.70966589933337       -2.46930596999472       -1.33027749575056
C          178.99626432938049       -3.07555634679437       -1.62102195466710
C          179.93404373600771       -2.22855749837746       -1.14814112763806
N          177.88728421542339       -1.28456706543813       -0.68195676172344
C          179.21875732767882       -1.11187643691401       -0.56337771524074
C          179.87554480855314       -0.02506583817380        0.04937392930304
C          179.25276885129196        1.07413539676046        0.67287564623099
C          179.90831407164896        2.14935752023603        1.32594858278626
C          178.94804657695067        2.99153345426409        1.81697638826884
C          177.67766287376591        2.45790865926485        1.46940835747775
N          177.91301744535249        1.29678454401384        0.78214871176314
C          176.42023424178336        2.98534300751332        1.78950277440049
C          176.41140029356282        4.27507818995282        2.52288049098361
C          176.97918513403886        5.41940352658946        1.95704830314350
C          176.97085525190951        6.62477637296503        2.63618832362127
C          176.39713699767927        6.69994448901342        3.90415285142377
O          176.41032594384410        7.89702511741805        4.54442276869200
C          175.83113922341485        5.56625630097602        4.48286598280917
C          175.83724201329761        4.36489795780060        3.79144521009350
C          175.19440250955714        2.39637809678461        1.47538934166318
C          173.90749694610957        3.00160826421065        1.76691093156011
C          172.96991489321738        2.14902500487858        1.30374688229699
C          173.68559586695145        1.03095091053018        0.72207094310929
N          175.01705440855417        1.20720231666349        0.83502583665993
H          171.92615263560012       -2.33096918524620       -1.25832056642431
H          173.79846779590895       -3.96308802683897       -2.24598380919119
H          175.71705755320704       -0.76646039503968       -0.26532079094361
H          177.50063178003651       -3.51749714356912       -4.11304690014577
H          177.51978565482847       -5.64825675617101       -5.36590694062278