512
 energy: -836.514820098300 gnorm: 0.000546272201 xtb: 6.5.1 (b24c23e)
C           91.94545818933703        0.49884554417425        0.02198671424721
C           92.54893120414077        0.58049496358832       -1.22670151108983
C           91.88907798761635        0.70624343459954       -2.48073352893581
C           92.84239700593010        0.70382104748094       -3.46049034697562
C           94.11637305485419        0.59066717557028       -2.83544628272975
N           93.88822594882042        0.51716151035437       -1.49031992305121
C           95.37227382793152        0.53106601331650       -3.45304883385504
C           95.39667809324887        0.63944148619341       -4.93014260431795
C           95.93773476732022       -0.38523694569185       -5.70919978821567
C           95.95453891926886       -0.30234701599737       -7.09085794386346
C           95.42718742560420        0.82179893843412       -7.73317500815908
N           95.46689075593133        0.98191284144139       -9.11000822299119
C           95.54138297456078       -0.19077221841053       -9.97105297259338
C           94.89727750373567        1.85911386411985       -6.95581546194033
C           94.87719922272426        1.76425972207961       -5.57713123755548
C           96.58534885922522        0.37802580192082       -2.77657006767037
C           97.88325900860846        0.41541984338786       -3.42558065694880
C           98.80372486892271        0.26759346289612       -2.45007623329090
N           96.74046690206741        0.21810254060474       -1.43266615062995
C           98.06736407507618        0.14308342745982       -1.20750471050831
C           98.70576543598361       -0.01789090710520        0.03991078867061
C           98.07320818945767       -0.12872771731964        1.29360889515696
C           98.72280344409712       -0.27247159246278        2.54764014721768
C           97.76001063550353       -0.32716789782494        3.51764548031672
C           96.49131112020160       -0.22367543534330        2.88378863333405
N           96.73333585404741       -0.10333984822031        1.54006938386526
C           95.23464990896474       -0.19970819199940        3.49979017455769
C           95.20611593293299       -0.38634684758780        4.96820317738678
C           94.65433088207381        0.58652777937284        5.80409136883792
C           94.62875366130845        0.41974685779191        7.17812967201934
C           95.15767735628214       -0.73864534952330        7.75507652481747
N           95.10683765603289       -0.98414486252564        9.11870513080439
C           95.01367791416193        0.13118819509763       10.05101958082266
C           95.70150298316405       -1.72288201885580        6.92029584229489
C           95.73064265133952       -1.54420021528595        5.55040055131498
C           94.02227258957221       -0.01117149476361        2.82539701013764
C           92.71641216335988       -0.04248360712860        3.46481615611475
C           91.80782019070493        0.16597314777474        2.49032302104648
C           92.55612045695230        0.30846224570924        1.25442921149709
N           93.88593921344196        0.19421103710744        1.49401307705022
H           90.86214647245940        0.56835105612407        0.02174647464989
H           90.82010557842752        0.77631462360505       -2.60498144164319
H           92.68047647129136        0.76162044026131       -4.52464465252172
H           94.61693773478690        0.41050034384795       -0.79249056113722
H           96.33281749256565       -1.27095450618958       -5.22360419257127
H           96.37965391538690       -1.11691902120926       -7.66426151197419
H           94.79743424581170        1.66442178465684       -9.44458889075097
H           94.75603232630738       -0.91698974748510       -9.73188569693373
H           95.42332850348372        0.14095838374497      -11.00260256929121
H           96.51613663033628       -0.66920618504886       -9.86788008343178
H           94.50156174292641        2.74324223593607       -7.44457391498043
H           94.47454272970421        2.58170324059056       -4.98883602707486
H           98.04795719204192        0.55991387898222       -4.48102724550134
H           99.87840147842155        0.24846899532335       -2.53640685006053
H           99.79148617947857       -0.31994415650315        2.68178751498146
H           97.91374905602608       -0.41416573611941        4.58088231074137
H           96.00926668702412        0.00625097188048        0.83762064767169
H           94.25900148995115        1.49896142435728        5.37101043444110
H           94.19548318229734        1.19598775539660        7.79684254108981
H           95.77793307052116       -1.68174040983386        9.41684256873848
H           94.03654331467492        0.60847223127492        9.96668857220401
H           95.79621075371068        0.87637013665615        9.86754828034351
H           95.12243402343972       -0.26436344026640       11.06086975029399
H           96.10037774291578       -2.63221713406843        7.35749250493660
H           96.14429943057110       -2.32097672177779        4.91642203589879
H           92.54068786895435       -0.21970846398220        4.51366331850212
H           90.73256531720520        0.20985565831129        2.56744364679767
C          210.15162552503125        0.52472709821240       -0.05352411524115
C          209.54771378824810        0.66173402787173        1.19010787890336
C          210.20640191890556        0.86093491178896        2.43520813734750
C          209.25375586091036        0.89525885553894        3.41504108218891
C          207.98118441015441        0.73222236566971        2.79825440840725
N          208.20960596356389        0.59306581463193        1.45836253650957
C          206.72654354037343        0.68679652813188        3.41959538521606
C          206.70087969701760        0.87051613795013        4.88918332174651
C          206.17365047118597       -0.12001015907886        5.72017726998243
C          206.15485554727323        0.03383188280347        7.09570814694214
C          206.66610363953711        1.19688648610498        7.67907706484044
N          206.62286914527655        1.42754358622452        9.04572271126767
C          206.56248614331344        0.30033628271765        9.96649478538395
C          207.18237543454299        2.19979430176184        6.84915461685023
C          207.20459119662439        2.03420227333124        5.47719822728945
C          205.51544322627677        0.48267867523230        2.75314318921886
C          204.21734836825121        0.53593830854018        3.40068711247731
C          203.29864363269760        0.32631329748705        2.43491580074111
N          205.36209007609330        0.25209162168566        1.41934255447628
C          204.03623742015611        0.14817801916008        1.19962909591311
C          203.39957490950817       -0.08476092738923       -0.03724049984088
C          204.03298367380344       -0.25208264530052       -1.28421939360582
C          203.38475865892798       -0.46879893819588       -2.52843545489185
C          204.34771505623698       -0.56028248919214       -3.49549237918844
C          205.61521614681951       -0.40724963129338       -2.86929473648901
N          205.37227474678465       -0.22158063733272       -1.53321070649800
C          206.87112094298752       -0.39731411822078       -3.48723001669035
C          206.90129984590484       -0.65778827586294       -4.94432105407544
C          207.43866005986533        0.27915714251903       -5.82921129929834
C          207.46481487575781        0.04370802368495       -7.19315493524422
C          206.95105597645093       -1.14935555481314       -7.70999914923949
N          207.00315541163917       -1.46234236509517       -9.05973000689923
C          207.07872764480757       -0.39387877104215      -10.04694293670152
C          206.42210496169633       -2.09773364814980       -6.82563674919276
C          206.39222529851938       -1.85066701385057       -5.46642460119870
C          208.08102188369236       -0.15755619820435       -2.82476309050081
C          209.38689776745304       -0.20298389306594       -3.46326792865879
C          210.29286947698017        0.06789562575906       -2.50175578733798
C          209.54317188162813        0.26277713203436       -1.27388291815186
N          208.21502256708777        0.11752055023659       -1.50576582139804
H          211.23384071579423        0.60954028516059       -0.05817347714294
H          211.27434118131234        0.95242764852827        2.55433245984073
H          209.41541037949003        1.00985579887156        4.47462829911380
H          207.48203552450286        0.44060871001109        0.76787702688085
H          205.79105997512033       -1.03495317956267        5.28098062204124
H          205.74063955446923       -0.75584474315548        7.71042244400356
H          207.28262538845343        2.13546012856174        9.34486014976758
H          207.35774519690364       -0.42685955813176        9.76617039720236
H          206.67446518402232        0.68677886794888       10.97951188417088
H          205.59430101746958       -0.19570100007923        9.88742414016172
H          207.56555311040873        3.11335516808351        7.29158361848418
H          207.59624808291431        2.82570118578787        4.84745728411976
H          204.05103210500468        0.73202232822400        4.44751488688035
H          202.22434752513914        0.29737096788720        2.52317162473127
H          202.31674896032578       -0.53743952503974       -2.65869591091560
H          204.19461150057685       -0.70376544677118       -4.55267800137322
H          206.09514157142644       -0.06602792169982       -0.83823795656777
H          207.82185101415868        1.21761890206832       -5.44342095320687
H          207.88653771341558        0.79366273629162       -7.85103023957015
H          206.34114407676773       -2.18310468335501       -9.32080672801912
H          208.04920416400677        0.10064073860826       -9.98924016143598
H          206.28613794057551        0.34853559156089       -9.89886211864959
H          206.97353842596723       -0.84097563126909      -11.03544017055674
H          206.03524718262764       -3.03332031996620       -7.21570240320981
H          205.99010542331669       -2.60010325773744       -4.79332191046225
H          209.56464014207828       -0.43107066966234       -4.50190241058896
H          211.36735864777143        0.12305428579410       -2.58229494574687
C          100.10981044322529       -0.05957716229351        0.04939327917183
C          101.33469217092099       -0.08519939339193        0.06129663034980
C          102.67642433740455       -0.10404738472442        0.06896852990795
C          103.90770396274092       -0.11184077608665        0.07489308520083
C          105.24480745403893       -0.11266535182443        0.07931814159068
C          106.47616587509528       -0.10545822888671        0.08123307054657
C          107.81775758426893       -0.09210969175294        0.07991220571135
C          109.04303909588633       -0.07559979667140        0.07374979481624
C          118.70136349406869       -0.02320607355549        0.03323674912267
C          119.92681725728484       -0.01400483533811        0.02404024990011
C          121.26812668013162       -0.00109654147556        0.01957145780594
C          122.49963246835709        0.00630577799969        0.01262110693499
C          123.83633632193765        0.01768723343491        0.00684057882427
C          125.06786492570789        0.02602461831480        0.00185415434078
C          126.40922673427828        0.03566010991806       -0.00106522863507
C          127.63473349205469        0.04263422878088       -0.00571643242928
C          137.29270297467869        0.00201401762746        0.00384532828068
C          138.51821725459811        0.00742549489942        0.00014405219397
C          139.85959251386976        0.01180964432005       -0.00128971812024
C          141.09115606610987        0.01657775477913       -0.00145995651714
C          142.42788742582704        0.02215620554530       -0.00064156680274
C          143.65943200605173        0.02835980192368       -0.00241088652024
C          145.00079700256612        0.03597208452373       -0.00275892340745
C          146.22631787872831        0.04216678373855       -0.00594598425990
C          155.88409637069566        0.00479968549591        0.00586366787207
C          157.10962617475485        0.00826881954911        0.00314422740944
C          158.45099276965993        0.01354971581588        0.00299794596778
C          159.68253344805996        0.01911092166829        0.00292162922406
C          161.01925609221158        0.02465404670142        0.00019971663399
C          162.25076734684822        0.03227538716842       -0.00031418229530
C          163.59211571098339        0.03910153452024       -0.00075735406905
C          164.81764912126064        0.04538850577766       -0.00381266530763
C          174.47516862751547        0.01689643489151        0.00420909851721
C          175.70067667923070        0.01939456270272       -0.00048893518242
C          177.04205478131141        0.02306258468601       -0.00288658694777
C          178.27359601890652        0.02413024108889       -0.00677445705854
C          179.61031032882323        0.02384917555092       -0.01367991217456
C          180.84184255220265        0.02026212974552       -0.01947478338900
C          182.18319411568763        0.01612735926436       -0.02444996141294
C          183.40868116471162        0.01010285368589       -0.03340063077517
C          193.06367457610523       -0.21218326915614       -0.06368885204904
C          194.28895305139213       -0.22941065731487       -0.06868191676651
C          195.63055118806525       -0.23889788673608       -0.06801548071298
C          196.86192099952819       -0.23959203576017       -0.06626207380072
C          198.19896028265245       -0.23080502863609       -0.06438649861293
C          199.43013332523026       -0.21388887275778       -0.05978877138501
C          200.77162072118861       -0.18292774158793       -0.05250546995053
C          201.99616210883471       -0.14370446644150       -0.04306440440778
C          110.44646279817127       -0.04798686916914        0.06807655926537
C          111.07587069608830        0.01482514641004        1.32724719333111
C          110.42783361699603        0.01775604734732        2.58864844771410
C          111.39365533143845        0.06216908308477        3.55748221094331
C          112.65975486318563        0.09755089265818        2.91372192778459
N          112.41667983898833        0.06233784718561        1.56621306434980
C          113.92044901023378        0.12641032436026        3.52541411081057
C          113.93539001089442        0.19517585998591        5.00535693930764
C          114.55471792635458       -0.80470649496146        5.76093450809182
C          114.56027899507403       -0.74638044227278        7.14142619724708
C          113.95083035275796        0.32191030017103        7.81140000094665
N          114.03141729081776        0.36716027833095        9.19462316045191
C          113.04859102894162        1.13194127598603        9.95044511664992
C          113.34403402764552        1.33276317608578        7.06016442915427
C          113.33187149557872        1.25960293596483        5.67774965454286
C          115.14342274206903        0.09453306136076        2.85211853877018
C          116.43229137499894        0.19593862016394        3.51230099962630
C          117.36624318880752        0.14137158058736        2.53991558985699
N          115.31582690905466       -0.00187960596403        1.50426112612544
C          116.64633637428626        0.01894577139177        1.28832767062500
C          117.29801859085842       -0.04106746069549        0.03918535944486
C          116.66872314846697       -0.09835127147218       -1.22033888558403
C          117.31735627300429       -0.09684810761651       -2.48163855151144
C          116.35183964334975       -0.12617818124868       -3.45109972925425
C          115.08510791067903       -0.15840283224175       -2.80812422715123
N          115.32790100324362       -0.13576137310183       -1.46003944730552
C          113.82459257424175       -0.17582141394670       -3.41968026815003
C          113.80684740815774       -0.22291418743949       -4.90037954282666
C          113.19085074469248        0.79045050071324       -5.63747995703068
C          113.17223219756148        0.75941379134438       -7.02115174391325
C          113.76026095464350       -0.30716570935400       -7.70761746464985
N          113.80889545807723       -0.36669708736472       -9.09182414997464
C          112.80813049861656        0.34064989903010       -9.87963682841962
C          114.38354995504508       -1.32364306461004       -6.97302012709905
C          114.40885435176142       -1.27795105537961       -5.59205832753044
C          112.60144962300261       -0.15116122742623       -2.74553779227797
C          111.31303084142665       -0.24947378311234       -3.40691733127114
C          110.37879215990233       -0.21022651837479       -2.43396010285998
C          111.09806955339947       -0.09737459224087       -1.18128962871578
N          112.42881466364024       -0.06947721329932       -1.39712720779190
H          109.35958445465521       -0.01921413519424        2.72905076514875
H          111.24273898642309        0.05571689976248        4.62458775631650
H          113.13771841694282        0.05942443308551        0.85244326770891
H          115.01460406015991       -1.64746053958284        5.25660879903661
H          115.03739302090258       -1.53348403645011        7.71578320100974
H          114.21558752259241       -0.53953313484610        9.60674306287640
H          112.02440239642667        0.85699927515164        9.67344885098765
H          113.20335052808457        0.92554562234495       11.00944797271097
H          113.19254306811042        2.19938715063603        9.77841315077055
H          112.88284895176332        2.18224229674777        7.54880877216595
H          112.86737481666485        2.05630319961937        5.10665083598999
H          116.58168303680701        0.31311241979685        4.57333991729080
H          118.43939408212567        0.18954510144765        2.63352478257437
H          118.38586955756487       -0.06583804812233       -2.62133373142566
H          116.50341640849010       -0.11146337325959       -4.51798084613655
H          114.60656235456635       -0.13183194718370       -0.74660170712981
H          112.73928308623876        1.62794814025592       -5.11688868925883
H          112.70101710900610        1.57085200207423       -7.56202214786221
H          113.98129940370295       -1.30286921880951       -9.43795204347709
H          112.95667265907186        1.41774593335275       -9.79289009522841
H          112.93696078525292        0.05389624441305      -10.92328530647789
H          111.79103023046544        0.08978000428622       -9.55759009226181
H          114.84620565812200       -2.15347624983647       -7.49687205397885
H          114.87765060615038       -2.08313931192726       -5.03682225418825
H          111.16415817088270       -0.35491906813732       -4.46930602588133
H          109.30585040218277       -0.26152060847022       -2.52827383056454
C          129.03814008102961        0.05583479149745       -0.00524913647746
C          129.66158028180627        0.11414570517573        1.25723864346653
C          129.00666821892329        0.12459011346423        2.51508613459710
C          129.96759073696614        0.15545469375236        3.48922849844759
C          131.23758727682676        0.17536730424047        2.85249432256790
N          131.00145960562097        0.14486133978725        1.50352571560366
C          132.49514738359372        0.18759910054398        3.47094636768990
C          132.50337186831138        0.25006014772764        4.95114219735140
C          133.10828217971218       -0.76012867213179        5.70477144384885
C          133.10666974994362       -0.70929310457951        7.08552617565836
C          132.50438208749256        0.36160157445958        7.75787601288629
N          132.57705511318963        0.39827679615180        9.14167265842126
C          131.59772269902442        1.16894777121098        9.89606540677766
C          131.91271726616031        1.38293939147883        7.00869576116364
C          131.90753261294097        1.31733516094537        5.62587261624993
C          133.72131117272804        0.14439252634499        2.80390281086213
C          135.00748018550613        0.23332394683852        3.47104216808684
C          135.94601913484203        0.17310232786557        2.50340246670786
N          133.89984712821209        0.04855836226916        1.45690393957161
C          135.23168193419937        0.05835497395054        1.24795904559507
C          135.88927418849673       -0.00735409542007        0.00230028291153
C          135.26604274220117       -0.06413657250892       -1.26032781628337
C          135.92110288867431       -0.07405022964975       -2.51820445796440
C          134.96033449467578       -0.10163611420954       -3.49248726234060
C          133.69017232433140       -0.12046705660486       -2.85588753534388
N          133.92617628806317       -0.09238570799578       -1.50677954690872
C          132.43270037488659       -0.13038020199750       -3.47421583693683
C          132.42318404162401       -0.18908728005474       -4.95457454662527
C          131.82183265399973        0.82394642418223       -5.70407808090213
C          131.81171922734660        0.78134934723294       -7.08755391721871
C          132.39365530244729       -0.29665333022212       -7.76126286656666
N          132.45072259329038       -0.36833971887246       -9.14452934302831
C          131.46254027005003        0.34238902469298       -9.94504458286256
C          133.00227649073054       -1.31291819855766       -7.01415484062334
C          133.01927520735401       -1.25573204150482       -5.63352487027559
C          131.20638884517376       -0.08820639284294       -2.80703041828013
C          129.92032817902134       -0.17566243609398       -3.47451870341655
C          128.98157802326145       -0.11893405916070       -2.50676530008123
C          129.69569037359938       -0.00706498293035       -1.25102738367173
N          131.02760099683644        0.00393426566171       -1.45993079652579
H          127.93730763065092        0.10104507862793        2.64968254108800
H          129.81060877895450        0.14963137910985        4.55544722913489
H          131.72635766039289        0.13262316954249        0.79378047232568
H          133.56221391900888       -1.60489666859054        5.19841695357974
H          133.57228711194674       -1.50442365011528        7.65825285860522
H          132.74972450208523       -0.51244946119404        9.54984743219161
H          130.57245038587544        0.90622663203456        9.61139263309465
H          131.74399947726394        0.95488643464689       10.95474586583018
H          131.75376692328177        2.23579699493250        9.73104270345137
H          131.45781816663023        2.23462603375365        7.49937028027339
H          131.45487566464382        2.12206287907640        5.05653429976862
H          135.15221429970148        0.34726498484464        4.53307651689223
H          137.01903168072343        0.21210256714016        2.60267783526758
H          136.99051630992784       -0.05195030794932       -2.65256617352365
H          135.11744120166281       -0.09402959222016       -4.55864179049765
H          133.20125195337823       -0.07925252979189       -0.79709215867382
H          131.37534610687877        1.67028741612927       -5.19350660428500
H          131.35199306237180        1.59276234771175       -7.63826151568422
H          132.61627421032850       -1.30898072259796       -9.48175202651242
H          131.62133570518998        1.41862842088738       -9.86619218931319
H          131.59559267773079        0.04565089415894      -10.98536630990133
H          130.44079019398782        0.10441420352713       -9.62796674076439
H          133.46017384520005       -2.15158265743757       -7.52802480337723
H          133.47682526874962       -2.06058037765654       -5.06849878237134
H          129.77572013387189       -0.28605448488370       -4.53699643848030
H          127.90857792384914       -0.15798531136883       -2.60630274161146
C          147.62970844208397        0.05457814394657       -0.00455090127315
C          148.25274515310608        0.11284943246500        1.25813146601664
C          147.59749098325867        0.12295725425558        2.51581983026683
C          148.55814319170764        0.15411304309822        3.49021671808186
C          149.82831805613176        0.17462384009932        2.85382586348553
N          149.59253465533655        0.14402414956820        1.50477790266795
C          151.08571907220156        0.18761077122416        3.47253558140056
C          151.09377252467712        0.25027835033367        4.95271668556522
C          151.69961747943063       -0.75924073463112        5.70650763208147
C          151.69830095843818       -0.70801058443871        7.08724208791706
C          151.09539426550873        0.36264166820054        7.75943746892883
N          151.16860605032309        0.39987667814036        9.14316744508679
C          150.18927496896680        1.17032256848535        9.89777629149833
C          150.50263490311823        1.38323356814078        7.01009791682368
C          150.49716057953046        1.31722340108531        5.62729348624734
C          152.31208367732040        0.14516502073769        2.80570027214761
C          153.59806565414678        0.23505203141341        3.47306044956244
C          154.53683801257796        0.17527981562683        2.50560617515116
N          152.49093849817845        0.04927157032531        1.45877314888875
C          153.82283810232707        0.05993813600409        1.25004070830026
C          154.48066826338109       -0.00537412398012        0.00448970752170
C          153.85773623518824       -0.06240314978762       -1.25826317149044
C          154.51314723056191       -0.07169458006661       -2.51594198012029
C          153.55265554820295       -0.09959982929476       -3.49049374202001
C          152.28236140249265       -0.11933107292549       -2.85422246048500
N          152.51795243932960       -0.09143908564194       -1.50506305254591
C          151.02502274921190       -0.12989243815129       -3.47285846391307
C          151.01591920535063       -0.18808708403545       -4.95322868549454
C          150.41406719354413        0.82482468490186       -5.70249392491589
C          150.40451873046661        0.78285927853942       -7.08599119368911
C          150.98757040206797       -0.29437074621796       -7.75997269445066
N          151.04534144626999       -0.36532262027968       -9.14323960970666
C          150.05716335616918        0.34522741213709       -9.94390854177261
C          151.59662127918381       -1.31055085887341       -7.01309533289073
C          151.61304018059590       -1.25399212320793       -5.63243504223444
C          149.79861068129293       -0.08861033505589       -2.80590166379308
C          148.51272432079494       -0.17666034590829       -3.47364387685957
C          147.57377169062309       -0.12037887874071       -2.50607579959324
C          148.28760776471827       -0.00825908628431       -1.25018140737131
N          149.61951543258991        0.00328438127832       -1.45879266955630
H          146.52810008770925        0.09894438497199        2.65010503879800
H          148.40089620747398        0.14813891035882        4.55639738578293
H          150.31763315092630        0.13221130114217        0.79523064807960
H          152.15410588656593       -1.60378954034407        5.20028809378210
H          152.16470898941117       -1.50259403207631        7.66008378585198
H          151.34215811524928       -0.51053029880817        9.55166855334949
H          149.16398718669174        0.90683763600886        9.61387054213266
H          150.33633851221106        0.95687564732464       10.95647182792116
H          150.34457272338815        2.23718424859935        9.73212832539162
H          150.04716331547579        2.23469327357956        7.50063502132121
H          150.04373003071424        2.12143514783476        5.05784177676210
H          153.74254076621813        0.34930437791888        4.53509513219580
H          155.60980242456463        0.21500003792980        2.60508217494644
H          155.58258374832172       -0.04894275343416       -2.65001125872810
H          153.71005137593522       -0.09161429156043       -4.55660047422449
H          151.79281891296412       -0.07886766206053       -0.79557729125160
H          149.96675751020211        1.67059914547624       -5.19170341584548
H          149.94438385631784        1.59417710199149       -7.63649680329556
H          151.21171509856356       -1.30566410848944       -9.48088553297646
H          150.21520704966309        1.42152377552578       -9.86432272646198
H          150.19102411125689        0.04919575552659      -10.98432789782415
H          149.03538202942534        0.10639489657122       -9.62757525717011
H          152.05534757173942       -2.14863331172703       -7.52717452554295
H          152.07097201411094       -2.05875897487645       -5.06760223392146
H          148.36838387259354       -0.28709398411595       -4.53615340824721
H          146.50081463837839       -0.15995614532223       -2.60585144376145
C          166.22102098389323        0.05880054572892       -0.00298058902860
C          166.84440692114759        0.11724088527239        1.25950869988774
C          166.18948203518607        0.12605753089634        2.51739476034294