256
 energy: -470.520756203599 gnorm: 0.000803435738 xtb: 6.5.1 (b24c23e)
C           48.67355609696694        0.00773705401370       -0.11487145391211
C           49.27469918421721        1.21760364460220       -0.43636397210909
C           48.61662122337554        2.44888740440849       -0.71293007935070
C           49.57266190243536        3.38265672093926       -0.99735319218405
C           50.84582513964777        2.74941226459838       -0.91205391931506
N           50.61544095447499        1.44958681066039       -0.56153812960005
C           52.10388506756400        3.32393992667974       -1.12320373841342
C           52.12108544955615        4.75158137691232       -1.52853350445944
C           52.74317008174913        5.70586360224346       -0.72837001978291
C           52.75090591023557        7.04833968274704       -1.10480675978840
C           53.42121681482682        8.02010990908825       -0.20452991325881
O           53.35277759170551        9.28715313445203       -0.63819195909796
O           53.97795264338929        7.72483037495165        0.82190172348874
C           52.13838264998120        7.44494588663806       -2.29359481985242
C           51.52180396816160        6.49624853509345       -3.09406294650905
C           51.50909115859330        5.16108350729908       -2.71566925576297
C           53.32630990500472        2.66267055149726       -0.98145453763748
C           54.61290521732617        3.27051081760935       -1.26953642876148
C           55.54522104807729        2.33081424506967       -1.00974869944059
N           53.49809994531584        1.37383969460286       -0.57848619280085
C           54.82833722510694        1.14928777443442       -0.57097548094517
C           55.47877253742172       -0.04504885906749       -0.20202638631126
C           54.85153501693860       -1.25088315466098        0.16292138394951
C           55.50014129911200       -2.44619582703120        0.57117396463995
C           54.53851701397362       -3.38265909249221        0.83087642797950
C           53.27013117754525       -2.78718544807810        0.58671550842097
N           53.51069198131884       -1.49767063138524        0.19293124437497
C           52.01254379511686       -3.37911514419246        0.74611367213316
C           51.99544134303593       -4.80686403450904        1.14932904228794
C           52.57337943533563       -5.78182866654044        0.33298894227557
C           52.55530255483662       -7.11857465600948        0.70643853519553
C           51.96550061486546       -7.49835131888895        1.90055955964159
C           51.38867795304250       -6.53293625261570        2.72726290168635
C           50.77260111444307       -6.97889053145285        4.00249016591582
O           50.24991365854102       -5.97782825164237        4.72523221243974
O           50.73337568263937       -8.12398013938289        4.37363495271192
C           51.40275922429919       -5.19170153894617        2.35037062232904
C           50.78850197190256       -2.72816036506892        0.56451255009498
C           49.49046215105452       -3.37215717701687        0.69681602822451
C           48.56603291046267       -2.41993380989717        0.46064742787654
C           49.29791867704114       -1.19885199174259        0.17239531603625
N           50.63309893228314       -1.42437223221565        0.23378471283323
H           47.58858201958815        0.01480926451666       -0.09021854345972
H           47.54781060616373        2.58964342000510       -0.68858034478291
H           49.41597567348326        4.42205956597173       -1.23635751095230
H           51.34332095255796        0.75925303889016       -0.41058972841282
H           53.21410204389869        5.41748812437272        0.20502292566004
H           53.80820998488727        9.85781111119556        0.00188464986808
H           52.14772238994912        8.48792545662499       -2.58592969167529
H           51.04732409503838        6.79665280647334       -4.02144668682108
H           51.03484243463784        4.42307285047182       -3.35307511176706
H           54.76087977816780        4.27377531357036       -1.63489102384459
H           56.61577705392501        2.40193820173912       -1.11449719440348
H           56.56717117862319       -2.56424034147319        0.66418090916134
H           54.69104462982907       -4.39241363156363        1.17540903466712
H           52.78592995484186       -0.82211252291478       -0.02586178872125
H           53.02362381675960       -5.48894875073520       -0.60862029082960
H           53.00214101441863       -7.86426270359544        0.05943705381167
H           51.94307390500609       -8.53783353740132        2.20767128992838
H           49.87093759812625       -6.34948300960005        5.53839704345687
H           50.96591929584697       -4.44270228114538        3.00029713045373
H           49.33308412870720       -4.41353399132283        0.92728378961188
H           47.49080799636508       -2.50634999409334        0.46552984635770
C           88.15587817224753        0.09071381979211       -0.24010707906970
C           87.58483051629283       -1.15529200913511       -0.01640385402788
C           88.27375039845018       -2.37761516706570        0.22137516880395
C           87.34035041190272       -3.36230757366826        0.38350772878717
C           86.05089923842928       -2.77415938673909        0.24170644925820
N           86.24928468909546       -1.44307028464003        0.00942656439065
C           84.80615468938323       -3.40468195336545        0.34775228122320
C           84.82438925859739       -4.87011132252170        0.58313526697943
C           84.26429332029747       -5.41073996615786        1.73714910962407
C           84.28378338837661       -6.78786031128672        1.95460879475016
C           83.67182954228069       -7.30380220969330        3.20497861875766
O           83.74785732200598       -8.63689849998456        3.32777719069887
O           83.15129098473953       -6.61315762898996        4.04320515873872
C           84.86556285217712       -7.63668845235891        1.01304314976636
C           85.42418172132689       -7.10096004203945       -0.13664278409364
C           85.40658350528039       -5.72998558879906       -0.35130282568710
C           83.56807213067208       -2.76539282448197        0.25289005908034
C           82.29295269170348       -3.45355414321116        0.34411082049966
C           81.33980311657542       -2.50802087155700        0.21658137984980
N           83.36673931522178       -1.43381654729834        0.05020790586610
C           82.03111802244111       -1.24739436923911        0.02896915683790
C           81.35197591349045       -0.02399682797449       -0.14147352412327
C           81.94975203275102        1.23226471628080       -0.35687334571685
C           81.27094980403911        2.46582642691115       -0.54149262304470
C           82.20923165841994        3.44253672950201       -0.72612691758698
C           83.49310179194188        2.83233818329849       -0.67296743422846
N           83.28435038339953        1.49793865742656       -0.44342546109956
C           84.73610797572901        3.46132256324607       -0.79941094040414
C           84.72103156422180        4.92391505667082       -1.05016619311978
C           84.12213932591203        5.44208349634691       -2.20062134830725
C           84.10796902730500        6.80998479551311       -2.43587642331789
C           84.68831483461027        7.67737643273918       -1.52571270910617
C           85.28935694155618        7.17203154088247       -0.37175685770946
C           85.89919330722486        8.13433654792762        0.58004472444071
O           86.45395160795783        7.55085882189574        1.65224724895065
O           85.90909921782138        9.32883730666782        0.42557494311858
C           85.30581226208595        5.79878717256432       -0.13673457869152
C           85.97548647997897        2.82032904281073       -0.70472291332920
C           87.25706634007489        3.48558193708185       -0.88386308060706
C           88.20409413726763        2.53990607209428       -0.72257990769084
C           87.50224182101384        1.29626691087274       -0.45770147101635
N           86.16224486916161        1.50166095458691       -0.46132837059684
H           89.24088522304820        0.11493034301075       -0.24715526563406
H           89.34661875546227       -2.47595554045740        0.26661991636112
H           87.52315304064452       -4.40363828215360        0.59383368914505
H           85.50378476403695       -0.76662526560835       -0.11653133094494
H           83.81984014238168       -4.76531331431572        2.48680034061427
H           83.32905942085937       -8.89398757247245        4.16520981363158
H           84.87776681787496       -8.70644812595718        1.18275021585257
H           85.87552814768193       -7.75470584570664       -0.87437148630291
H           85.83309950529147       -5.31964960714381       -1.25990009692258
H           82.16428577224593       -4.51517502889294        0.47865827076772
H           80.26921477690338       -2.62913840119380        0.24158470472820
H           80.20009027818278        2.58418523272531       -0.53534895911988
H           82.03011073013175        4.49429834731520       -0.87815371775957
H           84.02591054813070        0.81261652228159       -0.34325883859583
H           83.67994827705094        4.76428595290854       -2.92226871445706
H           83.64283977243976        7.19687569308739       -3.33535749791212
H           84.68541669412771        8.74845081717758       -1.69350832108852
H           86.82810365004353        8.24270254981736        2.22143140061273
H           85.76061678767717        5.41018764489602        0.76672117274867
H           87.38918074310021        4.53063789691693       -1.11349965169567
H           89.27650384683717        2.64102365214388       -0.78060259084498
C           56.88881308674999       -0.04612734325177       -0.18865734571647
C           58.10572811740698       -0.05130581092542       -0.16208735747320
C           67.81061495465374       -0.01030448259925        0.11766389367848
C           69.02876811349641       -0.01177998111182        0.13567473164315
C           78.72672819413238       -0.04933380216317       -0.04498029841527
C           79.94326144621327       -0.04411950898227       -0.09414826917982
C           59.51435688974868       -0.04634277755001       -0.12302645661327
C           60.13133709866150        1.19525780223322        0.12009316892127
C           59.47931627321226        2.44143716621570        0.30745600358992
C           60.43659643631485        3.38410544559548        0.56395004946295
C           61.70253335048432        2.73694364191420        0.55471463208550
N           61.46853699375065        1.41938360194537        0.26557781845926
C           62.95194338576772        3.31807537610653        0.80272980370975
C           62.94855551330306        4.76038133850396        1.15460868006711
C           63.61860047087691        5.68205709951720        0.35485747556546
C           63.61367377824672        7.03749958346098        0.68142678259376
C           64.34489713605430        7.97084116174295       -0.21199714015018
O           64.26926189351676        9.25265156036267        0.17477141459377
O           64.95564449187700        7.63449291321409       -1.19405513298647
C           62.93716735134772        7.48050191801860        1.81798153700968
C           62.27212442083258        6.56451424894679        2.61773470587479
C           62.27487743825651        5.21585684377110        2.29047185339772
C           64.18338615052041        2.66290042933459        0.74991619057074
C           65.44576482391932        3.28981303417383        1.09872893485940
C           66.40134375827719        2.35835283827808        0.90126517668629
N           64.39102161724354        1.36984546083968        0.37782070481952
C           65.72296374501116        1.16482744271307        0.43809117880755
C           66.40347479022532       -0.01943608529820        0.08933737250321
C           65.78762334081190       -1.22813243823311       -0.29122615981923
C           66.44099078483204       -2.41968050593381       -0.69674931538615
C           65.48296746421180       -3.36619663427834       -0.93735277680984
C           64.21399664637912       -2.77848145856857       -0.68388133503051
N           64.44802562717905       -1.48188780014300       -0.31178548373444
C           62.96128002278189       -3.39320708804861       -0.80232448525781
C           62.97260561153841       -4.83793113058784       -1.14458307511498
C           62.37541285522920       -5.29595486189226       -2.32107363304511
C           62.38852091584184       -6.64653071580918       -2.64105845178390
C           62.99499196306714       -7.55633703806667       -1.79124209052820
C           63.59554116554725       -7.11107490784476       -0.61262622667233
C           64.23515997322149       -8.11696946485717        0.27242921737009
O           64.79348329269146       -7.58813567087716        1.37096125266951
O           64.26450768451372       -9.29940321081974        0.04588372874237
C           63.58496323443669       -5.75505575883476       -0.29278070905557
C           61.72514260747334       -2.76879806221180       -0.63030135655843
C           60.45107165782828       -3.45916334994688       -0.72067245350120
C           59.49644702833244       -2.52373671625410       -0.53699975126543
C           60.18710849423212       -1.26845425976797       -0.31959076524649
N           61.52316718920827       -1.44819116615335       -0.36825604223155
H           58.41363149303950        2.59151745425872        0.25291447489799
H           60.28069420406992        4.43620625543381        0.73761511235642
H           62.19006426205030        0.71178112639353        0.17683264743004
H           64.13927276576410        5.35706358887527       -0.53926492030228
H           64.76812512805108        9.79519418738569       -0.45741386350493
H           62.93545348890630        8.53378845828623        2.07090893288551
H           61.74797074762125        6.90103643151646        3.50503733337503
H           61.76422072605278        4.50365357116007        2.92900245951626
H           65.56228525344869        4.29871770673126        1.45978584882497
H           67.46362014128206        2.44291383726827        1.06267619203740
H           67.50735359236687       -2.53033932324152       -0.80200585449047
H           65.64022511937395       -4.37797608563074       -1.27351705585805
H           63.72462721492612       -0.80658029587301       -0.08878366005249
H           61.91186421315606       -4.58389686340403       -2.99454820586220
H           61.92423551445911       -6.98673345824155       -3.55966001943675
H           63.01357019321841       -8.61467449562915       -2.02561402881683
H           65.18511013776555       -8.30663956979464        1.89383003013388
H           64.04017845496139       -5.41395849359804        0.62956791610037
H           60.32427790027438       -4.51610593916286       -0.89033597612514
H           58.42576086411616       -2.64847884613286       -0.54325500317197
C           70.43596530703746       -0.01430760998163        0.14264931246763
C           71.07511813593065        1.24017598361349        0.18406571401468
C           70.44954981781440        2.51302355533953        0.17207083028467
C           71.42550032195400        3.46451508933369        0.29136115270058
C           72.67775948802232        2.79824078766802        0.38321926548992
N           72.41697793085713        1.45735849125385        0.29123730108862
C           73.93965397793723        3.38230907748373        0.55084880169282
C           73.96779387675888        4.85284984793783        0.74193481791161
C           74.68692522398227        5.66485832112361       -0.13144745050890
C           74.71766583134117        7.04675783231776        0.04966124200033
C           75.50541958730022        7.85735274546118       -0.91312128036280
O           75.46008963863926        9.17452523825838       -0.66668790219520
O           76.13437732622384        7.39982486021621       -1.83276911249865
C           74.02588506573404        7.62839806714171        1.11211023157362
C           73.30999569169397        6.82287148023674        1.98370743726275
C           73.27863936432631        5.44749757004108        1.80208822187272
C           75.15840970461633        2.70054252034936        0.54830483494877
C           76.43880046115385        3.32988735452873        0.81828881047373
C           77.37506200427197        2.37103034336545        0.66334397530707
N           75.33577638089133        1.37907387209135        0.27523659287077
C           76.66658667378805        1.15854090691263        0.30669352647209
C           77.31927688346306       -0.05375798809261        0.00664475499910
C           76.67704228908276       -1.28068038588803       -0.24779551966659
C           77.29612264882894       -2.50469596108212       -0.60813821605164
C           76.32062364233917       -3.45937480529377       -0.70345722753477
C           75.07569640857824       -2.84477371631235       -0.39896841000287
N           75.33875067727955       -1.52435772575893       -0.15256288778406
C           73.81785437287606       -3.45873978549624       -0.33873695775508
C           73.79306035481146       -4.92895405401888       -0.53450317996368
C           73.04201090875107       -5.49332892515714       -1.56861814970771
C           73.02215480344221       -6.86772169238799       -1.76012731020595
C           73.74914051953375       -7.69677324584956       -0.92218760362367
C           74.50164563048405       -7.14581660960393        0.11614699852979
C           75.26775710526982       -8.06642830132052        0.99366291919338
O           75.96188802183066       -7.43842086967424        1.95336207718096
O           75.28202718166025       -9.26470478620190        0.87310882119686
C           74.52298459532615       -5.76591652821331        0.30747144820719
C           72.60458667628524       -2.80541657636462       -0.11597408290400
C           71.33410220466685       -3.48974835017333        0.04149273648356
C           70.39722995244782       -2.52785704169018        0.17545982582786
C           71.09558201092663       -1.26055813205395        0.10476996192640
N           72.42176124937696       -1.45815763480244       -0.03868478657430
H           69.38893626969589        2.67513144579975        0.07396115022893
H           71.29151972760644        4.53384244649838        0.30036385834079
H           73.12498410470141        0.73089868464534        0.29873348773247
H           75.21901829589802        5.23182639770057       -0.97140170348211
H           75.99624541005140        9.63237372502461       -1.33433198991737
H           74.05237636519539        8.70213262750386        1.25259543617602
H           72.77374177578855        7.26745269111167        2.81444308072772
H           72.73018527109741        4.82297386429448        2.49849238463963
H           76.58067702739437        4.35926425247010        1.10469279940151
H           78.44229086772263        2.44912235037872        0.79217101844467
H           78.35195941977319       -2.63130663337411       -0.78148780934135
H           76.45038885465489       -4.49466597134453       -0.97319540234231
H           74.63436406673623       -0.82748939946873        0.06480983960797
H           72.48396603547013       -4.84526825932935       -2.23507975362431
H           72.43808575881769       -7.29017051514649       -2.56974690112641
H           73.74555845526004       -8.77229693957201       -1.05844731528113
H           76.43180357334464       -8.10390151545609        2.48174702135341
H           75.09553723522183       -5.34311770519192        1.12457350000837
H           71.20024790900149       -4.55910646552838        0.06608803888974
H           69.33675988385768       -2.64231648297351        0.32964677398166
