201
 energy: -384.609653295709 gnorm: 2.625174703014 xtb: 6.5.1 (b24c23e)
Ni          28.27493900000000        0.01376000000000       -0.35301400000000
C           24.93048400000000        0.16955600000000       -0.26458100000000
C           25.58190500000000        1.33178700000000       -0.16344900000000
C           24.91915500000000        2.62837300000000       -0.09225200000000
C           25.85083700000000        3.55539300000000        0.03115900000000
C           27.16214900000000        2.89264100000000        0.05777100000000
N           26.99814100000000        1.48022000000000       -0.07606700000000
C           28.34860800000000        3.51802500000000        0.20617300000000
C           28.38450600000000        4.98820400000000        0.38217000000000
C           27.89571700000000        5.57461400000000        1.56084600000000
C           27.94009300000000        6.96993500000000        1.73695200000000
C           27.42051400000000        7.59109600000000        2.97521400000000
O           27.47137500000000        8.97268100000000        3.14216200000000
O           26.92701300000000        6.87699400000000        3.88977000000000
C           28.48764600000000        7.76934900000000        0.71842700000000
C           28.98143200000000        7.18552400000000       -0.45114000000000
C           28.93260700000000        5.80073200000000       -0.61984300000000
C           29.64658600000000        2.79334600000000        0.21254300000000
C           30.92425100000000        3.40986700000000        0.59014500000000
C           31.86731000000000        2.50013300000000        0.45239000000000
N           29.80083300000000        1.55336700000000       -0.13815400000000
C           31.19849500000000        1.29117100000000       -0.01245900000000
C           31.80345300000000        0.13647000000000       -0.33522500000000
C           31.05083200000000       -1.05474500000000       -0.78723500000000
C           31.59058200000000       -2.07632000000000       -1.43991300000000
C           30.55692900000000       -3.08085000000000       -1.59892100000000
C           29.45517400000000       -2.60784700000000       -1.02791000000000
N           29.67712700000000       -1.30382100000000       -0.48874100000000
C           28.18360400000000       -3.36543400000000       -0.90326000000000
C           28.21951300000000       -4.84027600000000       -1.05871400000000
C           28.96418800000000       -5.62091500000000       -0.16319500000000
C           29.01580700000000       -7.00748000000000       -0.31540300000000
C           28.33006000000000       -7.62567500000000       -1.36399000000000
C           27.58512500000000       -6.85857800000000       -2.27777300000000
C           26.86042700000000       -7.50736200000000       -3.39270400000000
O           26.12287600000000       -6.74057300000000       -4.29122400000000
O           26.90300800000000       -8.75893400000000       -3.53972300000000
C           27.53934800000000       -5.46215000000000       -2.11910700000000
C           27.01581300000000       -2.74356600000000       -0.65060700000000
C           25.71433500000000       -3.38512100000000       -0.47178400000000
C           24.84351300000000       -2.40855100000000       -0.30484100000000
C           25.58026700000000       -1.14712600000000       -0.36255500000000
N           26.84694600000000       -1.33015000000000       -0.56375500000000
H           23.84689500000000        0.18687800000000       -0.27392300000000
H           23.85393900000000        2.81549000000000       -0.13761300000000
H           25.65305000000000        4.61719900000000        0.09792900000000
H           27.48380100000000        4.93902600000000        2.33588600000000
H           27.11812500000000        9.40821700000000        3.98585000000000
H           28.53656400000000        8.84571600000000        0.82468400000000
H           29.40359400000000        7.80878000000000       -1.22886800000000
H           29.31971400000000        5.36051600000000       -1.53069200000000
H           31.08558600000000        4.42584700000000        0.92581000000000
H           32.91968100000000        2.65183400000000        0.65220600000000
H           32.61693200000000       -2.16390400000000       -1.77034800000000
H           30.67438800000000       -4.04712300000000       -2.07212000000000
H           29.50107800000000       -5.15471200000000        0.65395300000000
H           29.58935300000000       -7.60533100000000        0.38112700000000
H           28.38518300000000       -8.70281000000000       -1.46027600000000
H           25.62286400000000       -7.17476600000000       -5.05783700000000
H           26.97970100000000       -4.85198900000000       -2.81803000000000
H           25.48226600000000       -4.44197500000000       -0.47087800000000
H           23.78000700000000       -2.53349200000000       -0.14902000000000
Ni          61.96557499999999        0.25827200000000       -0.31201500000000
C           65.31003100000000        0.08215100000000       -0.27923600000000
C           64.65861000000000       -1.04950000000000       -0.56273600000000
C           65.32136000000000       -2.29839500000000       -0.91835700000000
C           64.38967800000000       -3.21496900000000       -1.10407300000000
C           63.07836600000000       -2.59714500000000       -0.86273800000000
N           63.24237299999999       -1.21831800000000       -0.52854900000000
C           61.89190700000000       -3.23673100000000       -0.92644200000000
C           61.85600900000000       -4.68390800000000       -1.23961900000000
C           62.34479799999999       -5.62270900000000       -0.31668500000000
C           62.30042199999999       -6.99915800000000       -0.60534100000000
C           62.82000099999999       -7.99024600000000        0.36258400000000
O           62.76913900000000       -9.35072300000000        0.06975300000000
O           63.31350100000000       -7.61351300000000        1.46004900000000
C           61.75286900000000       -7.42262400000000       -1.82891400000000
C           61.25908200000000       -6.48923800000000       -2.74408000000000
C           61.30790799999999       -5.12515600000000       -2.45186100000000
C           60.59392900000000       -2.55376500000000       -0.68404300000000
C           59.31626400000000       -3.25973400000000       -0.52819200000000
C           58.37320499999999       -2.35482300000000       -0.36167400000000
N           60.43968199999999       -1.26721300000000       -0.61110000000000
C           59.04202000000000       -1.06035600000000       -0.40675500000000
C           58.43706099999999        0.13647000000000       -0.33522500000000
C           59.18968300000000        1.40997200000000       -0.37395900000000
C           58.64993200000000        2.58856700000000       -0.65772000000000
C           59.68358500000000        3.59002100000000       -0.48037100000000
C           60.78534100000000        2.95663400000000       -0.09487600000000
N           60.56338700000000        1.54806100000000       -0.01054700000000
C           62.05690999999999        3.63212800000000        0.27006800000000
C           62.02100099999999        5.07701200000000        0.60418500000000
C           61.27632600000000        5.52285200000000        1.70535600000000
C           61.22470800000000        6.88322900000000        2.01374600000000
C           61.91045399999999        7.80964400000000        1.22415500000000
C           62.65538900000000        7.38256200000000        0.11013600000000
C           63.38008799999999        8.35953300000000       -0.73219400000000
O           64.11763800000000        7.92776400000000       -1.83168400000000
O           63.33750700000000        9.59060800000000       -0.46293000000000
C           62.70116600000000        6.01075600000000       -0.19536700000000
C           63.22470200000000        2.96186000000000        0.30606000000000
C           64.52618000000000        3.50999700000000        0.68436800000000
C           65.39700100000000        2.53238500000000        0.52363900000000
C           64.66024800000000        1.35877700000000        0.05762600000000
N           63.39356900000000        1.59741900000000       -0.07286900000000
H           66.39362000000000        0.06882400000000       -0.29371800000000
H           66.38657600000001       -2.46048200000000       -1.02227100000000
H           64.58746499999999       -4.24048000000000       -1.38729800000000
H           62.75671300000000       -5.27468800000000        0.62328300000000
H           63.12239000000000      -10.03763500000000        0.72523200000000
H           61.70395100000000       -8.47478000000000       -2.07956100000000
H           60.83692000000000       -6.82472500000000       -3.68256700000000
H           60.92080100000000       -4.41191400000000       -3.16930200000000
H           59.15492900000000       -4.32963400000000       -0.54228100000000
H           57.32083399999999       -2.56340300000000       -0.22226800000000
H           57.62358200000000        2.77914200000000       -0.94151400000000
H           59.56612599999999        4.65779500000000       -0.61250800000000
H           60.73943599999999        4.81560800000000        2.32574400000000
H           60.65116199999999        7.22118500000000        2.86719000000000
H           61.85533200000000        8.85927400000000        1.48447800000000
H           64.61765000000000        8.58826600000000       -2.41474200000000
H           63.26081400000000        5.66194200000000       -1.05508800000000
H           64.75824799999999        4.50875300000000        1.02995100000000
H           66.46050800000000        2.59966700000000        0.71169100000000
C           32.75256600000000        0.15209000000000       -0.32430000000000
C           34.21079300000000        0.13025300000000       -0.34217300000000
C           35.34472100000000        0.10950000000000       -0.34366400000000
C           36.70610200000000        0.09691000000000       -0.34585500000000
C           37.98032100000000        0.10721600000000       -0.35062000000000
C           39.16878400000000        0.12601400000000       -0.35677600000000
C           40.52114399999999        0.15079900000000       -0.34090800000000
C           41.62141199999999        0.15209000000000       -0.32430000000000
C           48.48722200000000        0.15209000000000       -0.32430000000000
C           49.94544800000000        0.13025300000000       -0.34217300000000
C           51.07937600000000        0.10950000000000       -0.34366400000000
C           52.44075800000000        0.09691000000000       -0.34585500000000
C           53.71497699999999        0.10721600000000       -0.35062000000000
C           54.90343899999999        0.12601400000000       -0.35677600000000
C           56.25579999999999        0.15079900000000       -0.34090800000000
C           57.35606700000000        0.15209000000000       -0.32430000000000
Ni          44.89937400000000       -0.25401300000000        0.11111200000000
C           41.97739800000000       -0.31730800000000        0.76650400000000
C           42.31430400000000       -1.32788600000000       -0.03577700000000
C           42.01082100000000       -1.38464100000000       -1.46748700000000
C           42.85337599999999       -2.22675000000000       -2.04613800000000
C           43.82609600000000       -2.64984800000000       -1.03598500000000
N           43.46547899999999       -2.11866200000000        0.23634500000000
C           45.05065400000000       -3.13475700000000       -1.30993000000000
C           45.33482800000000       -3.82889300000000       -2.59416700000000
C           44.46842100000000       -4.83248000000000       -3.06521900000000
C           44.73158900000000       -5.50232900000000       -4.27429700000000
C           43.81589800000000       -6.55399100000000       -4.76951600000000
O           44.09029799999999       -7.21904200000000       -5.96191300000000
O           42.77932900000000       -6.85719500000000       -4.11853400000000
C           45.87993600000000       -5.16086800000000       -5.00769800000000
C           46.74729100000000       -4.17080800000000       -4.54206000000000
C           46.48002000000000       -3.50853800000000       -3.34304300000000
C           46.18174499999999       -2.73489200000000       -0.44738600000000
C           47.31507800000000       -3.58496100000000       -0.07826600000000
C           48.22217299999999       -2.80974700000000        0.49741000000000
N           46.39659000000000       -1.49467900000000       -0.14334000000000
C           47.68184600000000       -1.45177200000000        0.46419700000000
C           48.33918100000000       -0.31730800000000        0.76650400000000
C           47.73017100000000        1.01883700000000        0.54478300000000
C           48.40192100000000        2.15565500000000        0.40877400000000
C           47.42402700000000        3.21365700000000        0.18238500000000
C           46.21809000000000        2.65370500000000        0.20850000000000
N           46.32922599999999        1.24787800000000        0.43184300000000
C           44.91754200000000        3.37699400000000        0.06048800000000
C           44.90983300000000        4.85568300000000       -0.02862600000000
C           44.42184600000000        5.49096500000000       -1.17975400000000
C           44.41294299999999        6.88432800000000       -1.26207000000000
C           44.89027000000000        7.65437700000000       -0.19860800000000
C           45.38283400000000        7.03496100000000        0.96420200000000
C           45.88928199999999        7.84550900000000        2.09364400000000
O           46.37768800000000        7.22426100000000        3.24018100000000
O           45.88397400000000        9.10477900000000        2.02903900000000
C           45.38706200000000        5.63087100000000        1.04042700000000
C           43.74865999999999        2.70333200000000        0.07271300000000
C           42.39720600000000        3.26251100000000        0.16121800000000
C           41.58054700000000        2.23531900000000        0.36179500000000
C           42.40006600000000        1.02405200000000        0.36011600000000
N           43.65212500000000        1.29521300000000        0.20506400000000
H           41.23805200000000       -0.82744800000000       -1.98109500000000
H           42.88934199999999       -2.42658100000000       -3.10915500000000
H           43.59357299999999       -5.09415600000000       -2.48196000000000
H           43.46979300000000       -7.94006500000000       -6.31027100000000
H           46.10975500000000       -5.65842900000000       -5.94144600000000
H           47.62946200000000       -3.91412100000000       -5.11426800000000
H           47.16174899999999       -2.73683500000000       -3.00776500000000
H           47.41410700000000       -4.64755100000000       -0.25629400000000
H           49.18725900000000       -3.13540000000000        0.86199000000000
H           49.47652200000000        2.27626800000000        0.43707900000000
H           47.64615100000000        4.26090600000000        0.02720000000000
H           44.05140100000000        4.90600000000000       -2.01276200000000
H           44.03584500000000        7.36948500000000       -2.15312400000000
H           44.87342200000000        8.73348500000000       -0.28689200000000
H           46.72650700000000        7.77001200000000        4.01908100000000
H           45.75640100000000        5.13412900000000        1.92967700000000
H           42.10560800000000        4.30439500000000        0.13838800000000
H           40.51174399999999        2.29753900000000        0.51764100000000
201
 energy: -385.459717441066 gnorm: 0.807342406678 xtb: 6.5.1 (b24c23e)
Ni          28.27807043493868        0.01976317735070       -0.35135067479804
C           24.93096899033818        0.15886703369578       -0.26524316800132
C           25.58783958191250        1.33427869957040       -0.16341969527641
C           24.91816349756169        2.62439505885971       -0.09269269924624
C           25.85626285420733        3.55692968964884        0.03142299877959
C           27.16013212186454        2.88775626480627        0.05676572079805
N           26.98980825521518        1.48514064730697       -0.07585605955147
C           28.35672973063133        3.51637959743783        0.20736052681211
C           28.38559438631660        4.98970659673991        0.38378508859441
C           27.89585899658792        5.57686481174654        1.55981535982325
C           27.94042685228631        6.97327032687800        1.73668654726860
C           27.41483617855079        7.58996619918857        2.98733661476753
O           27.47145977025176        8.96722681731280        3.14084765852409
O           26.93151289926184        6.88495884818750        3.88162160062540
C           28.48800686334084        7.76829556553040        0.71744689094877
C           28.98037215649347        7.18458332727627       -0.44926119185199
C           28.93236172850659        5.80202308091758       -0.61810521717708
C           29.64179558124290        2.80764051605808        0.21500091375605
C           30.91323811211418        3.41696705212316        0.58966203009718
C           31.86615675062119        2.49146175379472        0.44949511684073
N           29.80050943353250        1.54943207983403       -0.13817222932567
C           31.16442681601965        1.31391045741820       -0.00454213703435
C           31.67643092908365        0.12550285343700       -0.33844414599288
C           31.02028098163406       -1.06097504064488       -0.78727368311963
C           31.59040582972488       -2.08689823064402       -1.44395884208331
C           30.56794952406318       -3.08201151086027       -1.60148956778949
C           29.44688408751565       -2.60447914664382       -1.02211833356491
N           29.67319313056462       -1.30768002483579       -0.49257739753473
C           28.18950256705079       -3.36208482727445       -0.90341893110144
C           28.22121995982755       -4.84021518649908       -1.06015335925317
C           28.96371374859448       -5.62200258459357       -0.16480874566523
C           29.01394522093624       -7.00645909164468       -0.31756623325808
C           28.32948293777986       -7.62393855031111       -1.36452562754753
C           27.58352233284456       -6.85612174657055       -2.27943535274598
C           26.85688608705607       -7.51833229418910       -3.39959264080166
O           26.12598506054395       -6.74304737552797       -4.28723296493834
O           26.90183419307282       -8.74664324723215       -3.53926467819043
C           27.53991914830918       -5.46226756427155       -2.11742357240083
C           27.01489586007450       -2.74282913498340       -0.65030415825366
C           25.71908683208787       -3.38584582382310       -0.47250806748792
C           24.83922748905574       -2.40226045279512       -0.30431902574006
C           25.56959009955723       -1.14045753988848       -0.36168748782199
N           26.85223148935154       -1.33351349037936       -0.56298507942965
H           23.84712196592339        0.18539655195881       -0.27366660442469
H           23.85405319290409        2.81307276253700       -0.13778901433511
H           25.65593543661269        4.61734340509766        0.09816892190466
H           27.48388409281227        4.93989859845505        2.33599875269706
H           27.12053156045324        9.39886638341784        3.97883858170037
H           28.53627603682998        8.84554085071882        0.82530460209628
H           29.40341703048971        7.80864196128782       -1.22858881763411
H           29.31947113913746        5.36028166972142       -1.53019779620601
H           31.08314610358587        4.42689193830193        0.92588347212176
H           32.91903382491060        2.64783981074024        0.65108044432488
H           32.61680520405951       -2.16397489299041       -1.77052285601431
H           30.67574919256361       -4.04678305578325       -2.07259690242356
H           29.50077301937898       -5.15449202057636        0.65352390475436
H           29.58897454935637       -7.60516912894280        0.38068347271443
H           28.38449852166566       -8.70254860222832       -1.46123491657029
H           25.62984967430754       -7.17491623142341       -5.04818190065038
H           26.97986221221422       -4.85237766416585       -2.81795733326950
H           25.48496170751195       -4.44171900061442       -0.47123751520076
H           23.77937008680273       -2.53141525641149       -0.14882465739815
Ni          61.96193199030823        0.25235265775585       -0.31234801401187
C           65.30938582848096        0.09198260839318       -0.27647729525260
C           64.65302590288816       -1.05168844713106       -0.56336741670135
C           65.32241103678989       -2.29463191068841       -0.91754118817499
C           64.38448669059831       -3.21650126951284       -1.10416034576970
C           63.08059605538556       -2.59125911679331       -0.86194590361944
N           63.25032393096268       -1.22356161918599       -0.53038604134498
C           61.88290571578189       -3.23537855669375       -0.92508044001462
C           61.85490253718147       -4.68594741984630       -1.23863280719502
C           62.34466189250800       -5.62450670172043       -0.31839551924665
C           62.30007826884954       -7.00222106161419       -0.60669527877415
C           62.82569602159251       -7.99320701998120        0.37445460788882
O           62.76905495146673       -9.34508189100326        0.07029048983031
O           63.30899024831110       -7.61835166676322        1.44971257334282
C           61.75251183301106       -7.42130254192221       -1.82949129212422
C           61.26012791527219       -6.48897411302628       -2.74199817923490
C           61.30815684657420       -5.12696513933583       -2.45066675124074
C           60.60030066342924       -2.56585807530004       -0.68629806108792
C           59.32465930260317       -3.26561611669832       -0.53028261876395
C           58.37391739976033       -2.34834108662724       -0.36139313035742
N           60.44049609289097       -1.26389869510900       -0.60785512582449
C           59.06793183651171       -1.07502542700167       -0.40727256837449
C           58.53207304977697        0.14322876291832       -0.33581945803441
C           59.21238119012542        1.40852852455502       -0.37109827357366
C           58.65039128816318        2.60094771691633       -0.65811600044522
C           59.67142285866211        3.59182012332250       -0.48259809902320
C           60.79469070328513        2.95116158556025       -0.09032333953470
N           60.56691561251510        1.55268840037430       -0.01414719023164
C           62.04996275957754        3.62893399341082        0.26865483952204
C           62.01931128139061        5.07745135613478        0.60281827433707
C           61.27681139255425        5.52438531477333        1.70418673569621
C           61.22657639407331        6.88297000217564        2.01136201656755
C           61.91103126532246        7.80816936410398        1.22308118301113
C           62.65697255616073        7.38078043223437        0.10776085064824
C           63.38363668718015        8.37217534762499       -0.73515068732647
O           64.11452874143548        7.92879383452068       -1.82708862641049
O           63.33867810588653        9.57881473082430       -0.46649706732046
C           62.70060131879583        6.01030537554709       -0.19373599299959
C           63.22602551159004        2.96072790557213        0.30616440325246
C           64.52117759599339        3.51091198724575        0.68386725765145
C           65.40135082461440        2.52605335962191        0.52199853292580
C           64.67085302586031        1.35258846196139        0.05636751467455
N           63.38827019888767        1.60054130819004       -0.07072607085293
H           66.39336661102111        0.07010757685508       -0.29304737370044
H           66.38647245842162       -2.45816910869338       -1.02166576105969
H           64.58457750321351       -4.24068304938441       -1.38711882270095
H           62.75663121951855       -5.27555245040474        0.62311032910615
H           63.11998078562100      -10.02651902508744        0.72165231413133
H           61.70424267589303       -8.47481175215244       -2.07891443606602
H           60.83709639456096       -6.82468112811182       -3.68225385092261
H           60.92105222040742       -4.41185507821584       -3.16876437318342
H           59.15722801216820       -4.33064921420717       -0.54270500716723
H           57.32143559017265       -2.55996006041838       -0.22211570962985
H           57.62389427116698        2.77976580379190       -0.94169050600223
H           59.56478665338594        4.65773340650599       -0.61299667042190
H           60.73974431864156        4.81553348570448        2.32525963833630
H           60.65154007507753        7.22117156307292        2.86671205425689
H           61.85601974018776        8.85933802834461        1.48348561973621
H           64.61066194663246        8.58526180877640       -2.40557103867439
H           63.26065255287570        5.66228810005161       -1.05489780678490
H           64.75552234561552        4.50860928384666        1.02950728276315
H           66.46115107156943        2.59761397560553        0.71118839254242
C           32.91462465912685        0.14593157318312       -0.32455720561697
C           34.19358606495947        0.13047443853865       -0.34192833162500
C           35.38617468601615        0.10893434732253       -0.34385800904415
C           36.70346612879764        0.09702991728896       -0.34579527436124
C           37.95287884269715        0.10717281317113       -0.34943914942288
C           39.18613186234921        0.12402106887097       -0.35964948166077
C           40.43438694097351        0.15530275906120       -0.35782342412496
C           41.64740054250320        0.16718011018358       -0.35386400097447
C           48.51058462046250        0.16628479269598       -0.36656649090695
C           49.91312558741115        0.13648262179965       -0.35641556265825
C           51.11663723515962        0.10735228450202       -0.34398760568447
C           52.43102634157957        0.09544024308416       -0.34557897512605
C           53.69300369213769        0.10732312090069       -0.35062340923103
C           54.90832978787030        0.12609299233152       -0.35681826872208
C           56.17699106940724        0.15235753003539       -0.34107815409350
C           57.32377867632540        0.15963766271017       -0.32232635837699
Ni          44.90666260098829       -0.25104472425152        0.11359401134559
C           41.99075646318811       -0.33026364800124        0.81281292945320
C           42.33042983023887       -1.35166509629307       -0.03658463052629
C           42.00844144167890       -1.39132673014413       -1.46953333221049
C           42.85977361221067       -2.23379986338273       -2.04805885469126
C           43.82133077329119       -2.64670792185507       -1.03665770299983
N           43.47039894400243       -2.10970923706434        0.22472176670038
C           45.05816375347440       -3.13814630409259       -1.31061214622722
C           45.33535684371333       -3.83081233937546       -2.59303260584160
C           44.46928781098077       -4.83248261169085       -3.06731345527579
C           44.73252518465844       -5.50332733338464       -4.27693876479401
C           43.80470979253631       -6.56155181231603       -4.76808568014642
O           44.08976312159077       -7.21587436090584       -5.95713395181683
O           42.78905385738189       -6.85502724503279       -4.12573882325435
C           45.88050873742488       -5.15996456111194       -5.00701037118415
C           46.74527563864755       -4.17132163996634       -4.54086137932356
C           46.47936836532844       -3.51026704181222       -3.34370981821369
C           46.18143515521930       -2.75132399367660       -0.45374421345728
C           47.30620625641701       -3.58884667886549       -0.08576718220738
C           48.22333327055055       -2.80270535876189        0.49900006870681
N           46.40008012967500       -1.49161880296365       -0.13762227279055
C           47.66953195814052       -1.47657530446760        0.47333409659901
C           48.32703143046263       -0.32697980543721        0.80985077859183
C           47.71526950081624        1.01996354086435        0.54758932583241
C           48.40330376359692        2.18151785285638        0.41269962528080
C           47.43771784917680        3.21389110018601        0.18351014964528
C           46.20710688234911        2.64523492846500        0.21030678828254
N           46.32618928725608        1.25221474324946        0.42659880957432
C           44.92547030586318        3.37404599227495        0.06172144964037
C           44.91195010330805        4.85582854946559       -0.02861069252772
C           44.42213620573555        5.49227173060586       -1.17812948188727
C           44.41392674725984        6.88369288278792       -1.25930350224041
C           44.89064509502376        7.65280183279625       -0.19770600377546
C           45.38378722923990        7.03283700657546        0.96662675609175
C           45.89190161197767        7.85743493872203        2.09933860420422
O           46.37560444940662        7.22610316703015        3.23527580168095
O           45.88452973534305        9.09255471095282        2.03078810442111
C           45.38706176456132        5.63111379007737        1.03882167069476
C           43.74905286779610        2.70134982255859        0.07525670190841
C           42.40173767571979        3.26495145481308        0.16120584689402
C           41.57970359534184        2.24302736417338        0.37199761558211