250
 energy: -482.952765485572 gnorm: 4.089658861205 xtb: 6.5.1 (b24c23e)
Zn          48.25770199999999        0.04602500000000       -0.01957300000000
C           44.92095599999999       -0.07897300000000       -0.09726900000000
C           45.58415200000000       -1.23030600000000       -0.23998800000000
C           44.93344500000000       -2.52883700000000       -0.36602100000000
C           45.87393500000000       -3.44194500000000       -0.52045200000000
C           47.17935199999999       -2.76731200000000       -0.51162300000000
N           47.00234600000000       -1.36254600000000       -0.32426600000000
C           48.37182100000000       -3.37737100000000       -0.67423700000000
C           48.41920400000000       -4.83926500000000       -0.90349100000000
C           48.93450500000000       -5.68870400000000        0.08460900000000
C           48.99326499999999       -7.06778700000000       -0.13283400000000
C           48.54047800000000       -7.61994800000000       -1.34557400000000
N           48.59634300000000       -9.04013800000000       -1.57221500000000
O           48.15189200000000       -9.57742400000000       -2.75911200000000
O           49.03597800000000       -9.80837800000000       -0.69110200000000
C           48.03123500000000       -6.76140200000000       -2.33590900000000
C           47.97319900000000       -5.38220800000000       -2.11717800000000
C           49.66483300000000       -2.64418100000000       -0.64512400000000
C           50.95141400000000       -3.24327300000000       -1.02168300000000
C           51.88575700000000       -2.32875700000000       -0.85746200000000
N           49.80558400000000       -1.41023800000000       -0.26751600000000
C           51.20277500000000       -1.13486300000000       -0.37383000000000
C           51.79619300000000        0.01716000000000       -0.02148300000000
C           51.03289899999999        1.19209800000000        0.45620800000000
C           51.56532899999999        2.20497200000000        1.12821200000000
C           50.52174000000000        3.19398700000000        1.31634200000000
C           49.42125500000000        2.72153000000000        0.74219000000000
N           49.65415900000000        1.43261300000000        0.17128900000000
C           48.13931600000000        3.46670000000000        0.64813900000000
C           48.15681200000000        4.93439700000000        0.85998500000000
C           47.49466799999999        5.50289900000000        1.95824400000000
C           47.53175999999999        6.88425300000000        2.16674000000000
C           48.23612100000000        7.72085200000000        1.28330000000000
N           48.27089000000000        9.14334100000000        1.49997200000000
O           47.66578699999999        9.69705200000000        2.60545400000000
O           48.85461299999999        9.89650600000000        0.69276000000000
C           48.90668200000000        7.14437100000000        0.18851100000000
C           48.86972700000000        5.76248200000000       -0.01835200000000
C           46.97719600000000        2.84058000000000        0.38094300000000
C           45.66703200000000        3.47349600000000        0.23789800000000
C           44.80557900000000        2.49395200000000        0.04472900000000
C           45.55699099999999        1.23981800000000        0.04937500000000
N           46.82350500000000        1.42957000000000        0.24370100000000
H           43.83747400000000       -0.10715200000000       -0.09142200000000
H           43.86930200000000       -2.72671400000000       -0.33687800000000
H           45.68606400000000       -4.50193200000000       -0.63218500000000
H           49.28846100000000       -5.28190300000000        1.02411400000000
H           49.39383200000000       -7.70174700000000        0.64725900000000
H           47.67878899999999       -7.15507900000000       -3.28065500000000
H           47.58190099999999       -4.73631400000000       -2.89351400000000
H           51.12427900000000       -4.25135500000000       -1.37561000000000
H           52.94135000000000       -2.46802200000000       -1.05043900000000
H           52.59193100000000        2.29622400000000        1.45563300000000
H           50.63189400000000        4.15049400000000        1.81149700000000
H           46.95363700000000        4.87438800000000        2.65535100000000
H           47.00981899999999        7.29728800000000        3.02041500000000
H           49.46495100000000        7.76064300000000       -0.50379800000000
H           49.39661400000000        5.33669500000000       -0.86382500000000
H           45.42366199999999        4.52706000000000        0.27823300000000
H           43.73905300000000        2.61222400000000       -0.09545500000000
Zn          89.01433099999998       -0.01031500000000       -0.03053600000000
C           92.35107700000000        0.13469500000000       -0.05569400000000
C           91.68787999999999        1.25554300000000        0.24370200000000
C           92.33858700000000        2.50659300000000        0.61376000000000
C           91.39809800000000        3.41098600000000        0.81297400000000
C           90.09268000000000        2.78226400000000        0.56819900000000
N           90.26968700000000        1.40973600000000        0.21515800000000
C           88.90021199999998        3.40878700000000        0.64619700000000
C           88.85282800000000        4.84998400000000        0.98181900000000
C           88.33752800000001        5.26695200000000        2.21633300000000
C           88.27876699999999        6.62695100000000        2.53185300000000
C           88.73155499999999        7.59355500000000        1.61463100000000
N           88.67569000000000        8.99511100000000        1.93703800000000
O           89.12014000000001        9.93823500000000        1.03819500000000
O           88.23605400000000        9.37692000000000        3.04192500000000
C           89.24079800000000        7.16898200000000        0.37462900000000
C           89.29883400000000        5.80839700000000        0.06026200000000
C           87.60719899999999        2.71817300000000        0.39827000000000
C           86.32061899999999        3.41475000000000        0.27381800000000
C           85.38627500000000        2.50538000000000        0.08315200000000
N           87.46644899999998        1.43267000000000        0.28564900000000
C           86.06925800000000        1.21724900000000        0.08383800000000
C           85.47584000000001        0.01716000000000       -0.02148300000000
C           86.23913399999999       -1.25117100000000       -0.01919700000000
C           85.70670299999999       -2.44212100000000        0.22399300000000
C           86.75029300000000       -3.42952000000000        0.02755600000000
C           87.85077699999998       -2.77624900000000       -0.32755400000000
N           87.61787400000000       -1.36730500000000       -0.37351200000000
C           89.13271599999999       -3.43178800000000       -0.69415100000000
C           89.11522100000001       -4.87183700000000       -1.04808700000000
C           89.77736400000001       -5.81066400000000       -0.24312100000000
C           89.74027200000000       -7.16941300000000       -0.56778700000000
C           89.03591200000000       -7.61372200000000       -1.70046200000000
N           89.00114200000000       -9.01367200000000       -2.03297300000000
O           89.60624600000000       -9.94149400000000       -1.21576400000000
O           88.41741900000000       -9.40921500000000       -3.06369800000000
C           88.36535000000001       -6.66879900000000       -2.49922000000000
C           88.40230599999998       -5.31016600000000       -2.17284000000000
C           90.29483700000000       -2.75116000000000       -0.70708400000000
C           91.60499999999999       -3.28426400000000       -1.07701000000000
C           92.46645399999998       -2.30375600000000       -0.88879700000000
C           91.71504199999998       -1.14286300000000       -0.41424100000000
N           90.44852699999998       -1.39163600000000       -0.30524200000000
H           93.43455899999999        0.15862700000000       -0.03970800000000
H           93.40273100000000        2.67910500000000        0.71497200000000
H           91.58596900000001        4.43553300000000        1.10684400000000
H           87.98357100000000        4.53755600000000        2.93475900000000
H           87.87820100000000        6.92215600000000        3.49274100000000
H           89.59324299999999        7.88817800000000       -0.35357700000000
H           89.69013199999999        5.50072000000000       -0.90161800000000
H           86.14775400000001        4.48199200000000        0.32370200000000
H           84.33068299999999        2.70684300000000       -0.04352700000000
H           84.68010200000001       -2.64948500000000        0.49331000000000
H           86.64013900000000       -4.50190400000000        0.12793500000000
H           90.31839600000001       -5.48939400000000        0.63879200000000
H           90.26221400000000       -7.87240700000000        0.06873400000000
H           87.80708199999999       -6.98052100000000       -3.37209700000000
H           87.87541800000000       -4.59842600000000       -2.79697500000000
H           91.84836999999999       -4.27608600000000       -1.43466100000000
H           93.53297999999998       -2.36083600000000       -1.06310100000000
C           54.97475099999999        0.02959600000000       -0.01904100000000
C           53.72248000000000        0.01041500000000       -0.02339000000000
C           56.28841899999999        0.02883000000000       -0.01710900000000
C           57.79155300000000        0.01041500000000       -0.02339000000000
C           67.89875400000000        0.02959600000000       -0.01904100000000
C           66.64648300000000        0.01041500000000       -0.02339000000000
C           69.21242200000000        0.02883000000000       -0.01710900000000
C           70.71555499999999        0.01041500000000       -0.02339000000000
C           80.82275600000000        0.02959600000000       -0.01904100000000
C           79.57048600000000        0.01041500000000       -0.02339000000000
C           82.13642500000000        0.02883000000000       -0.01710900000000
C           83.63955799999999        0.01041500000000       -0.02339000000000
Zn          62.08732000000000        0.06106000000000       -0.03861000000000
C           58.72012500000000       -0.01851000000000        0.02422600000000
C           59.37624399999999       -1.19004600000000        0.11292900000000
C           58.73514899999999       -2.49303200000000        0.30092000000000
C           59.67234200000000       -3.42048300000000        0.29351500000000
C           60.97027500000000       -2.76564500000000        0.10209200000000
N           60.79247500000000       -1.35141300000000       -0.00706800000000
C           62.15509800000000       -3.40788800000000        0.03213800000000
C           62.18664900000000       -4.88546100000000        0.10607300000000
C           62.66513499999999       -5.52199900000000        1.25912000000000
C           62.70470400000000       -6.91748000000000        1.32862000000000
C           62.26982500000000       -7.69838500000000        0.24123000000000
N           62.30922500000000       -9.13578100000000        0.30829600000000
O           61.93465399999999       -9.89591600000000       -0.77588200000000
O           62.66472000000000       -9.71645400000000        1.35600700000000
C           61.79616600000000       -7.05235500000000       -0.91570300000000
C           61.75674000000000       -5.65699200000000       -0.98219300000000
C           63.45464900000000       -2.70441100000000       -0.10966500000000
C           64.72720000000000       -3.38692400000000       -0.37587000000000
C           65.67959100000000       -2.47644300000000       -0.38174900000000
N           63.62028000000000       -1.42672600000000        0.03875000000000
C           65.02135800000001       -1.20274900000000       -0.12064500000000
C           65.63624400000000       -0.01851000000000        0.02422600000000
C           64.88637300000001        1.23154100000000        0.27067900000000
C           65.42237900000001        2.34476900000000        0.75412500000000
C           64.38983600000000        3.36328300000000        0.73201200000000
C           63.29429199999999        2.80348800000000        0.23206300000000
N           63.51768400000000        1.42966200000000       -0.08173700000000
C           62.03708400000000        3.53380400000000       -0.06138000000000
C           62.09426400000000        5.00883800000000       -0.21166300000000
C           62.87694600000000        5.58222100000000       -1.22355900000000
C           62.94841000000000        6.97141400000000       -1.35967400000000
C           62.24147499999999        7.81212100000000       -0.48203900000000
N           62.31339600000000        9.24235400000000       -0.62772600000000
O           63.04780599999999        9.80536900000000       -1.64689100000000
O           61.70398400000000        9.99489500000000        0.16137100000000
C           61.46556200000000        7.23251900000000        0.53832500000000
C           61.39587999999999        5.84333000000000        0.67383600000000
C           60.86472799999999        2.88616500000000       -0.20604300000000
C           59.58637499999999        3.49497400000000       -0.55977200000000
C           58.69765199999999        2.52236800000000       -0.53316500000000
C           59.39738400000000        1.28480500000000       -0.17044300000000
N           60.66423399999999        1.48975700000000        0.01870300000000
H           57.67972700000000       -2.69431800000000        0.42703400000000
H           59.48668200000000       -4.47934600000000        0.41824200000000
H           63.00395499999999       -4.93710500000000        2.10508700000000
H           63.07878500000000       -7.38550300000000        2.23131800000000
H           61.45635600000000       -7.62529700000000       -1.76936200000000
H           61.39337600000000       -5.17644600000000       -1.88176600000000
H           64.87905100000000       -4.44618300000000       -0.53769000000000
H           66.73159000000000       -2.66832800000000       -0.54627600000000
H           66.44595900000000        2.48400200000000        1.07536100000000
H           64.50624800000000        4.39679000000000        1.03143800000000
H           63.42879700000000        4.95187200000000       -1.91010100000000
H           63.55770200000000        7.38743200000000       -2.15130300000000
H           60.91355000000000        7.85300200000000        1.23264700000000
H           60.79969699999999        5.41663600000000        1.47095300000000
H           59.38120899999999        4.52839100000000       -0.80760100000000
H           57.64545499999999        2.64002000000000       -0.75469200000000
Zn          75.01132300000000        0.06106000000000       -0.03861000000000
C           71.64412799999999       -0.01851000000000        0.02422600000000
C           72.30024700000000       -1.19004600000000        0.11292900000000
C           71.65915199999999       -2.49303200000000        0.30092000000000
C           72.59634499999999       -3.42048300000000        0.29351500000000
C           73.89427800000000       -2.76564500000000        0.10209200000000
N           73.71647799999998       -1.35141300000000       -0.00706800000000
C           75.07910099999999       -3.40788800000000        0.03213800000000
C           75.11065200000000       -4.88546100000000        0.10607300000000
C           75.58913800000001       -5.52199900000000        1.25912000000000
C           75.62870599999999       -6.91748000000000        1.32862000000000
C           75.19382800000000       -7.69838500000000        0.24123000000000
N           75.23322800000000       -9.13578100000000        0.30829600000000
O           74.85865699999999       -9.89591600000000       -0.77588200000000
O           75.58872200000000       -9.71645400000000        1.35600700000000
C           74.72016900000000       -7.05235500000000       -0.91570300000000
C           74.68074300000001       -5.65699200000000       -0.98219300000000
C           76.37865199999999       -2.70441100000000       -0.10966500000000
C           77.65120300000000       -3.38692400000000       -0.37587000000000
C           78.60359400000000       -2.47644300000000       -0.38174900000000
N           76.54428299999998       -1.42672600000000        0.03875000000000
C           77.94536100000001       -1.20274900000000       -0.12064500000000
C           78.56024599999999       -0.01851000000000        0.02422600000000
C           77.81037499999999        1.23154100000000        0.27067900000000
C           78.34638200000001        2.34476900000000        0.75412500000000
C           77.31383900000000        3.36328300000000        0.73201200000000
C           76.21829500000000        2.80348800000000        0.23206300000000
N           76.44168700000000        1.42966200000000       -0.08173700000000
C           74.96108700000001        3.53380400000000       -0.06138000000000
C           75.01826699999999        5.00883800000000       -0.21166300000000
C           75.80094800000001        5.58222100000000       -1.22355900000000
C           75.87241299999999        6.97141400000000       -1.35967400000000
C           75.16547799999999        7.81212100000000       -0.48203900000000
N           75.23739900000000        9.24235400000000       -0.62772600000000
O           75.97180899999998        9.80536900000000       -1.64689100000000
O           74.62798700000000        9.99489500000000        0.16137100000000
C           74.38956499999999        7.23251900000000        0.53832500000000
C           74.31988300000000        5.84333000000000        0.67383600000000
C           73.78873100000000        2.88616500000000       -0.20604300000000
C           72.51037700000001        3.49497400000000       -0.55977200000000
C           71.62165500000000        2.52236800000000       -0.53316500000000
C           72.32138700000000        1.28480500000000       -0.17044300000000
N           73.58823599999999        1.48975700000000        0.01870300000000
H           70.60372900000000       -2.69431800000000        0.42703400000000
H           72.41068500000000       -4.47934600000000        0.41824200000000
H           75.92795799999999       -4.93710500000000        2.10508700000000
H           76.00278800000000       -7.38550300000000        2.23131800000000
H           74.38035900000000       -7.62529700000000       -1.76936200000000
H           74.31737799999999       -5.17644600000000       -1.88176600000000
H           77.80305300000001       -4.44618300000000       -0.53769000000000
H           79.65559300000000       -2.66832800000000       -0.54627600000000
H           79.36996199999999        2.48400200000000        1.07536100000000
H           77.43025100000000        4.39679000000000        1.03143800000000
H           76.35280000000000        4.95187200000000       -1.91010100000000
H           76.48170399999999        7.38743200000000       -2.15130300000000
H           73.83755300000000        7.85300200000000        1.23264700000000
H           73.72369999999999        5.41663600000000        1.47095300000000
H           72.30521200000000        4.52839100000000       -0.80760100000000
H           70.56945800000000        2.64002000000000       -0.75469200000000
250
 energy: -484.400783003988 gnorm: 1.104758400549 xtb: 6.5.1 (b24c23e)
Zn          48.25942542658728        0.04612281824648       -0.01959324304476
C           44.92141461793963       -0.07186413962910       -0.09652089113138
C           45.58806572771069       -1.23223038212531       -0.24029226217383
C           44.93232688077819       -2.52636540099357       -0.36567259891216
C           45.87721336465734       -3.44330166445984       -0.52082335221168
C           47.17715021633996       -2.76354841172315       -0.51118224490763
N           46.99507644285507       -1.37012231721787       -0.32477893107742
C           48.37806856929566       -3.37591625407615       -0.67451224302612
C           48.41997982168594       -4.83946664281691       -0.90387225574563
C           48.93444171996673       -5.69062160592352        0.08318489689510
C           48.99298598782872       -7.06756740637624       -0.13343595944070
C           48.54009190681039       -7.62106924237540       -1.34689518487321
N           48.59411339160083       -9.04982608317044       -1.57909864294083
O           48.15765411329727       -9.56791095387289       -2.74326653642354
O           49.03276977482381       -9.80176714957735       -0.69752286334518
C           48.03129050434984       -6.76084917807425       -2.33547157708175
C           47.97337452120338       -5.38427309438454       -2.11631409940166
C           49.66182026325647       -2.65089370564830       -0.64612044518786
C           50.94697016970135       -3.24707309190309       -1.02211751069617
C           51.88672245809809       -2.32589642036897       -0.85658894544786
N           49.81020765001845       -1.40783180523894       -0.26813052820165
C           51.20494063637486       -1.13569710625322       -0.37424639764183
C           51.80616682141287        0.02139464575847       -0.01908826341660
C           51.03171809359829        1.18557970973485        0.45055829703136
C           51.56563457981373        2.21416086565313        1.13237305572293
C           50.53117844666723        3.19422362716544        1.31864880110482
C           49.41479307265485        2.71775898896496        0.73728568870027
N           49.65765754105498        1.43492126034279        0.17398717423331
C           48.14424348689521        3.46427330375781        0.64827083955575
C           48.15791825675108        4.93396450927800        0.86049845818737
C           47.49507328049066        5.50472358462939        1.95738070789357
C           47.53191429869177        6.88366962127420        2.16631313113286
C           48.23549538258728        7.72196394264940        1.28446733398090
N           48.26821847573668        9.15311941602252        1.50665546451289
O           47.67354511780472        9.68733501467457        2.59060900461007
O           48.85025420850178        9.88999029070480        0.69860440172006
C           48.90621494551672        7.14405816594916        0.18905092808817
C           48.86939508151985        5.76428276092370       -0.01702432685488
C           46.97546150452808        2.83973816951688        0.38075481420764
C           45.67025705958666        3.47464285125906        0.23851332149097
C           44.80235479760722        2.48990820900963        0.04404807782357
C           45.54948528004988        1.23563163289131        0.04862224592537
N           46.82472743687078        1.43463860338368        0.24377710071320
H           43.83759873884145       -0.10645891454026       -0.09148934959076
H           43.86937823248831       -2.72543424191792       -0.33671895639809
H           45.68758078141023       -4.50199486591864       -0.63228468047103
H           49.28834022094792       -5.28202967508040        1.02378790124122
H           49.39373782071050       -7.70229405307614        0.64701333777016
H           47.67893985141458       -7.15567636551629       -3.28055522715488
H           47.58204410374572       -4.73646727131912       -2.89324238656167
H           51.12304874026688       -4.25181541443079       -1.37556856311316
H           52.94120707703016       -2.46653449917789       -1.04995458205552
H           52.59184383103545        2.29673464369362        1.45597787429034
H           50.63249172559397        4.15022709289273        1.81171714055702
H           46.95383874174060        4.87454613773841        2.65510074227108
H           47.00999646140436        7.29785853919843        3.02033913012511
H           49.46481084486028        7.76116537041855       -0.50359215465179
H           49.39642626229871        5.33682462796968       -0.86352798311934
H           45.42510030193203        4.52697658647122        0.27840313791347
H           43.73877959830010        2.61114363839207       -0.09557511771523
Zn          89.01259564616414       -0.01041038944442       -0.03059617142090
C           92.35061574403372        0.12783825036092       -0.05766126781593
C           91.68398642327782        1.25745870754494        0.24414470297898
C           92.33971351548340        2.50415764973872        0.61315318505084
C           91.39480109894956        3.41238282523510        0.81313963748732
C           90.09493965631211        2.77856830068922        0.56720343895889
N           90.27695246685198        1.41698052473926        0.21752519025380
C           88.89384954121631        3.40752324155522        0.64538040942492
C           88.85205111481078        4.85033316934145        0.98154111541210
C           88.33759876754458        5.26925350980508        2.21572962681874
C           88.27905073005419        6.62698085166925        2.53120841820923
C           88.73194126191922        7.59507712097162        1.61382192973377
N           88.67791592386693        9.00669953331023        1.93427948473209
O           89.11438037458856        9.92346097564314        1.04933101812744
O           88.23926440785246        9.37319302079662        3.03349915697908
C           89.24073848759967        7.16831071676907        0.37483311663663
C           89.29865409023041        5.80997872403360        0.06183423403791
C           87.61027656819790        2.72492956957866        0.39988242614874
C           86.32512192356673        3.41847907171402        0.27486585404994
C           85.38533698076841        2.50238129592069        0.08287294972112
N           87.46160908155386        1.43048123018058        0.28413745823233
C           86.06739817880815        1.21869232347644        0.08381095843701
C           85.46371255833256        0.01207450554309       -0.02091022175858
C           86.24042419060447       -1.24327953272043       -0.02199337644585
C           85.70642484656945       -2.45218308338935        0.22441630653792
C           86.74088931590818       -3.43061622596382        0.02958840630487
C           87.85724465224432       -2.77095267014075       -0.33068266429153
N           87.61430907130556       -1.37040090034679       -0.37185171077244
C           89.12777797076878       -3.42958475357972       -0.69311618012846
C           89.11411483440146       -4.87164372214233       -1.04745254470630
C           89.77695765775505       -5.81202452140640       -0.24460331155874
C           89.74011330043018       -7.16871664714871       -0.56796941766654
C           89.03653706256121       -7.61518043242953       -1.69979321490123
N           89.00380842587884       -9.02526158376705       -2.03043674020210
O           89.59849588593816       -9.92691247733767       -1.22588420215237
O           88.42177806314518       -9.40536034925735       -3.05584905796869
C           88.36582158797941       -6.66871782014450       -2.49859905326801
C           88.40263940293880       -5.31232492556825       -2.17228250769251
C           90.29657694535007       -2.75030878545726       -0.70695183365397
C           91.60177077883590       -3.28555752899203       -1.07686849299593
C           92.46967876616013       -2.29974912058312       -0.88791350892823
C           91.72253525109187       -1.13872820418371       -0.41337853281378
N           90.44731695785246       -1.39635873933435       -0.30706156962947
H           93.43443322606745        0.15801055735308       -0.04002869789808
H           93.40265362709130        2.67785789427643        0.71463904416470
H           91.58444960090488        4.43562658325730        1.10677405060742
H           87.98369131936371        4.53779430741445        2.93450417103581
H           87.87829347634235        6.92275452986192        3.49271680409158
H           89.59309213032169        7.88869441619250       -0.35326056117546
H           89.68998765761472        5.50076047169861       -0.90130963644305
H           86.14898207513890        4.48240105049386        0.32391130280189
H           84.33081397545705        2.70524890363668       -0.04363842249680
H           84.68017538239239       -2.65006498449045        0.49343529062216
H           86.63954053023325       -4.50173438758283        0.12823866890594
H           90.31819346046451       -5.48944658000094        0.63850208569575
H           90.26203599640500       -7.87290751859707        0.06844970026271
H           87.80722118373153       -6.98108212868093       -3.37210052400478
H           87.87560559231602       -4.59865681428613       -2.79674869473782
H           91.84693088781567       -4.27607028818500       -1.43447084237930
H           93.53325159397902       -2.35978811197030       -1.06280694571972
C           54.97007915902838        0.02967507411945       -0.01921504513712
C           53.71016170163284        0.01126676497530       -0.02317157064105
C           56.29075805774277        0.02887321539900       -0.01716046063074
C           57.62856217595020        0.01776164636491       -0.02927540329930
C           67.92904505851251        0.03057734427841       -0.01971683249654
C           66.73258842555090        0.01688420096789       -0.02695500102202
C           69.21449304594876        0.02888142806419       -0.01733375239672
C           70.55350610284223        0.01762001478890       -0.02914334787066
C           80.85328800463132        0.03048004963856       -0.01949693523522
C           79.65865320338652        0.01688096826787       -0.02688024791919
C           82.16780756994565        0.02829992982474       -0.01738495862015
C           83.62607519246157        0.01008514319208       -0.02333130458318