198
 energy: -346.253792919196 gnorm: 5.747785225702 xtb: 6.5.1 (b24c23e)
C           23.29357600000000        0.02452800000000       -0.11673200000000
C           24.02833200000000       -1.25770900000000       -0.61422000000000
C           23.43324800000000       -2.35068000000000       -1.20102400000000
C           24.45870700000000       -3.30107200000000       -1.44533400000000
C           25.64487400000000       -2.75666400000000       -0.99233800000000
N           25.37838500000000       -1.48868800000000       -0.54062800000000
C           27.06267500000000       -3.46366400000000       -0.96791000000000
C           27.09186500000000       -4.93448300000000       -1.13629600000000
C           27.38575000000000       -5.50557800000000       -2.38181700000000
C           27.40135400000000       -6.89362200000000       -2.53335300000000
C           27.12130500000000       -7.70929200000000       -1.43371000000000
C           27.13253400000000       -9.17954600000000       -1.57024200000000
O           27.37055100000000       -9.75306100000000       -2.62693500000000
C           26.82662200000000       -7.15021800000000       -0.18627100000000
C           26.81197999999999       -5.76266200000000       -0.04178900000000
C           28.19260600000000       -2.74655900000000       -0.72563700000000
C           29.49341200000000       -3.37706400000000       -0.63046600000000
C           30.39467400000000       -2.44014900000000       -0.36000900000000
N           28.39017900000000       -1.40842500000000       -0.51011000000000
C           29.71805100000000       -1.16092600000000       -0.27642300000000
C           30.38374600000000       -0.00683000000000       -0.00513500000000
C           29.60564200000000        1.37453800000000        0.06096600000000
C           30.14774299999999        2.62711300000000       -0.15023900000000
C           29.12118000000000        3.57945200000000        0.06732600000000
C           27.97794700000000        2.88113100000000        0.39328700000000
N           28.26942300000000        1.53848100000000        0.33449200000000
C           26.56557300000000        3.50728500000000        0.74933800000000
C           26.52541099999999        4.91322200000000        1.20609900000000
C           26.82226600000000        5.23672500000000        2.53586800000000
C           26.79380600000000        6.56735400000000        2.95973500000000
C           26.46985800000000        7.57461300000000        2.04670600000000
C           26.43568400000000        8.98830800000000        2.47171000000000
O           26.67500600000000        9.35065100000000        3.61793600000000
C           26.17260800000000        7.26362100000000        0.71586200000000
C           26.20197000000000        5.93248200000000        0.29929700000000
C           25.44080900000000        2.75701400000000        0.62138100000000
C           24.11615800000000        3.26464900000000        0.93316400000000
C           23.23161800000000        2.30344000000000        0.68452400000000
C           23.95633800000000        1.14814000000000        0.21561600000000
N           25.27883300000000        1.46419300000000        0.20935100000000
H           22.21409500000000       -0.00942900000000       -0.02988000000000
H           22.38076500000000       -2.45895100000000       -1.41397300000000
H           24.33957200000000       -4.28197700000000       -1.88003000000000
H           26.07260700000000       -0.82500900000000       -0.20540600000000
H           27.60540400000000       -4.85373900000000       -3.22523500000000
H           27.63286800000000       -7.32661100000000       -3.50238400000000
H           26.90973300000000       -9.75138500000000       -0.65406600000000
H           26.60838200000000       -7.76988700000000        0.67720800000000
H           26.58674500000000       -5.30650600000000        0.92049500000000
H           29.70597800000000       -4.42450300000000       -0.74774300000000
H           31.44594600000000       -2.62252700000000       -0.23181600000000
H           31.17219100000000        2.83723400000000       -0.41765400000000
H           29.20918100000000        4.65304100000000       -0.00158600000000
H           27.58621300000000        0.79079500000000        0.42455200000000
H           27.07212100000000        4.43925600000000        3.23304000000000
H           27.02380000000000        6.80720800000000        3.99382300000000
H           26.17867800000000        9.72193000000000        1.68893800000000
H           25.91754100000000        8.03415900000000       -0.00491600000000
H           25.97096200000000        5.66707900000000       -0.73131600000000
H           23.88406400000000        4.24637200000000        1.30454300000000
H           22.16674300000000        2.36675700000000        0.81413300000000
C           68.59273999999999        0.02898300000000       -0.11538300000000
C           67.85798399999999        1.37182000000000        0.18195800000000
C           68.45306800000000        2.60672700000000        0.29999600000000
C           67.42760900000000        3.53301400000000        0.62391400000000
C           66.24144200000001        2.82876100000000        0.69883600000000
N           66.50793100000000        1.52318200000000        0.37131600000000
C           64.82364099999999        3.40346500000000        1.11134300000000
C           64.79445100000000        4.72065500000000        1.78711900000000
C           64.50056600000001        5.88673500000000        1.06758700000000
C           64.48496200000000        7.12570500000000        1.71146700000000
C           64.76501100000000        7.19439200000000        3.07887900000000
C           64.75378200000000        8.49344100000000        3.78084600000000
O           64.51576500000000        9.55679100000000        3.21976900000000
C           65.05969399999999        6.03724900000000        3.80667600000000
C           65.07433600000000        4.80259800000000        3.15719600000000
C           63.69371000000000        2.67241200000000        0.91513800000000
C           62.39290400000000        3.14422600000000        1.34407300000000
C           61.49164199999999        2.21464700000000        1.04938600000000
N           63.49613700000000        1.43947200000000        0.35218600000000
C           62.16826500000000        1.10391300000000        0.40933300000000
C           61.50257000000000       -0.00683000000000       -0.00513500000000
C           62.28067400000000       -1.19285400000000       -0.71639700000000
C           61.73857300000000       -2.11789200000000       -1.58694800000000
C           62.76513600000000       -3.03096400000000       -1.93419900000000
C           63.90836899999999       -2.63074600000000       -1.27561800000000
N           63.61689300000000       -1.48099000000000       -0.57975400000000
C           65.32074299999999       -3.34923800000000       -1.32670400000000
C           65.36090500000000       -4.77240900000000       -1.72655000000000
C           65.06404999999999       -5.77921600000000       -0.79957600000000
C           65.09251000000000       -7.12147900000000       -1.18501700000000
C           65.41645800000001       -7.45309400000000       -2.50343500000000
C           65.45063200000000       -8.86510300000000       -2.93400700000000
O           65.21131000000000       -9.80241200000000       -2.18129500000000
C           65.71370800000000       -6.45609900000000       -3.43824200000000
C           65.68434600000001       -5.11746200000000       -3.04644300000000
C           66.44550700000001       -2.65400200000000       -1.01698500000000
C           67.77015800000000       -3.24932600000000       -1.03915900000000
C           68.65469800000000       -2.31163600000000       -0.71284400000000
C           67.92997799999999       -1.09026700000000       -0.46213700000000
N           66.60748300000000       -1.34976200000000       -0.64266800000000
H           69.67222099999999        0.00905800000000       -0.02428200000000
H           69.50555100000000        2.81493800000000        0.18287300000000
H           67.54674400000000        4.59030000000000        0.80634900000000
H           65.81370900000000        0.78502200000000        0.28208400000000
H           64.28091200000000        5.81223100000000        0.00424400000000
H           64.25344800000001        8.02350400000000        1.14537600000000
H           64.97658300000001        8.46102200000000        4.86035000000000
H           65.27793400000000        6.07385800000000        4.86886500000000
H           65.29957100000000        3.88926600000000        3.70482300000000
H           62.18033800000000        4.08079400000000        1.82752100000000
H           60.44037000000000        2.29528300000000        1.25721600000000
H           60.71412500000000       -2.14438300000000       -1.92600500000000
H           62.67713499999999       -3.88600900000000       -2.58706900000000
H           64.30010299999999       -0.90884100000000       -0.09007000000000
H           64.81419500000000       -5.50241700000000        0.22286600000000
H           64.86251600000000       -7.89466900000000       -0.45766200000000
H           65.70763800000000       -9.04129400000000       -3.99225600000000
H           65.96877499999999       -6.69739600000000       -4.46538700000000
H           65.91535399999999       -4.32494100000000       -3.75673400000000
H           68.00225200000000       -4.27216900000000       -1.27473000000000
H           69.71957300000000       -2.43621300000000       -0.64012700000000
C           32.54778500000000        0.00786000000000        0.00514100000000
C           34.00601100000000       -0.01397700000000       -0.01273200000000
C           35.13993900000000       -0.03473000000000       -0.01422300000000
C           36.50132100000000       -0.04732000000000       -0.01641400000000
C           37.77554000000000       -0.03701400000000       -0.02117900000000
C           38.96400200000000       -0.01821600000000       -0.02733600000000
C           40.31636300000000        0.00656900000000       -0.01146800000000
C           41.41663000000000        0.00786000000000        0.00514100000000
C           50.34564900000000        0.00786000000000        0.00514100000000
C           51.80387499999999       -0.01397700000000       -0.01273200000000
C           52.93780300000000       -0.03473000000000       -0.01422300000000
C           54.29918500000000       -0.04732000000000       -0.01641400000000
C           55.57340400000000       -0.03701400000000       -0.02117900000000
C           56.76186600000000       -0.01821600000000       -0.02733600000000
C           58.11422700000000        0.00656900000000       -0.01146800000000
C           59.21449399999999        0.00786000000000        0.00514100000000
C           42.34514999999999        0.01179200000000        0.00907000000000
C           43.12985800000000        0.88118400000000       -1.05782400000000
C           42.58832500000000        1.47802000000000       -2.17116700000000
C           43.62737299999999        2.17549200000000       -2.83357200000000
C           44.77855700000000        1.97994200000000       -2.10966100000000
N           44.47679899999999        1.15370900000000       -1.05315400000000
C           46.19690800000000        2.59644500000000       -2.44566700000000
C           46.23458299999999        3.77697700000000       -3.34469700000000
C           46.45957000000000        3.62169600000000       -4.71769200000000
C           46.50226499999999        4.73624500000000       -5.55904300000000
C           46.31468900000000        6.01146000000000       -5.02289600000000
C           46.35769800000000        7.20474600000000       -5.89277500000000
O           46.51899400000000        7.14278100000000       -7.10603900000000
C           46.08295499999999        6.18018000000000       -3.65521900000000
C           46.04336900000000        5.06167100000000       -2.81985600000000
C           47.32774700000000        2.07625700000000       -1.89883500000000
C           48.63396500000000        2.62608700000000       -2.19334200000000
C           49.54546400000000        1.92376500000000       -1.53085600000000
N           47.52691900000000        1.03346700000000       -1.03240600000000
C           48.86733600000000        0.89074800000000       -0.77334400000000
C           49.54943000000000        0.01179200000000        0.00907000000000
C           48.77332999999999       -1.09719100000000        0.84455600000000
C           49.35247400000000       -2.10937300000000        1.58803600000000
C           48.31127899999999       -2.83418300000000        2.21237600000000
C           47.11899999999999       -2.24614200000000        1.83509400000000
N           47.40815599999999       -1.21080700000000        0.97596500000000
C           45.68500700000000       -2.67974900000000        2.34276400000000
C           45.62213700000000       -3.77601100000000        3.33691600000000
C           45.49791400000000       -5.09831500000000        2.88996300000000
C           45.46510200000000       -6.14723400000000        3.80752000000000
C           45.54269200000000       -5.86690900000000        5.17668400000000
C           45.49630100000000       -6.99131300000000        6.13126700000000
O           45.56462999999999       -6.84121200000000        7.34507100000000
C           45.65697999999999       -4.55122300000000        5.63430600000000
C           45.70169599999999       -3.50576400000000        4.70995400000000
C           44.55618400000000       -2.08656100000000        1.87795100000000
C           43.24818200000000       -2.45096600000000        2.38087500000000
C           42.34095100000000       -1.70370500000000        1.76642000000000
C           43.02070600000000       -0.84494700000000        0.81882000000000
N           44.36000600000000       -1.11045200000000        0.94092800000000
H           41.55706200000000        1.42455000000000       -2.47575700000000
H           43.54163500000000        2.75782300000000       -3.73629900000000
H           45.14945400000000        0.76615700000000       -0.40210400000000
H           46.60831200000000        2.62348800000000       -5.11833500000000
H           46.68489100000000        4.60258300000000       -6.62028500000000
H           46.22941800000000        8.17886300000000       -5.38954500000000
H           45.93261200000000        7.16414100000000       -3.22471900000000
H           45.87004000000000        5.17350000000000       -1.75025900000000
H           48.84642900000000        3.45769500000000       -2.83948800000000
H           50.60239400000000        2.11031600000000       -1.56865500000000
H           50.40864400000000       -2.30124900000000        1.69225500000000
H           48.42325800000000       -3.67885300000000        2.87977700000000
H           46.71929099999999       -0.61303000000000        0.52289200000000
H           45.42716600000000       -5.28848700000000        1.81914200000000
H           45.37971800000000       -7.16409300000000        3.43811600000000
H           45.39511000000000       -7.99666100000000        5.68959700000000
H           45.71246600000000       -4.33468800000000        6.69789700000000
H           45.79479400000000       -2.47501800000000        5.04266600000000
H           43.03564899999999       -3.19029400000000        3.13168900000000
H           41.28367099999999       -1.75562700000000        1.94871800000000
198
 energy: -347.840571572424 gnorm: 1.018594283861 xtb: 6.5.1 (b24c23e)
C           23.29821465003112        0.01617127008993       -0.11989453908183
C           24.02583303591514       -1.25121422626086       -0.61188144605668
C           23.43416611531375       -2.35320874779833       -1.20152844886471
C           24.45663784543957       -3.30062776910161       -1.44489870300239
C           25.65143942862731       -2.75892584926182       -0.99211293742115
N           25.37849400174751       -1.48876398578134       -0.54036450849172
C           27.05430843071793       -3.45901279305565       -0.96786719596422
C           27.09121337893581       -4.93414150160073       -1.13662492281927
C           27.38579318234305       -5.50612712259557       -2.38158964223703
C           27.40133929762294       -6.89228217845121       -2.53298683671922
C           27.12120447941683       -7.71011696792111       -1.43334720695146
C           27.13316986039934       -9.18050062040345       -1.57312879244084
O           27.37005542951762       -9.75172773222740       -2.62467598639380
C           26.82671188589044       -7.14861333983662       -0.18637503339674
C           26.81192456578630       -5.76291349639692       -0.04209283715980
C           28.19474683365969       -2.74512804942210       -0.72500897384783
C           29.49376051404547       -3.37899096126078       -0.63070346081219
C           30.39667846840090       -2.44061800635184       -0.35988877066234
N           28.38843344688697       -1.40644264273130       -0.50956439553064
C           29.71943725767915       -1.16218735813133       -0.27634293130293
C           30.38536133604302        0.00110800172759       -0.00566409213191
C           29.61004011456082        1.36809636148885        0.06030365444179
C           30.14722119688534        2.62903015820196       -0.14955567982003
C           29.12312601030467        3.57880036454074        0.06731510348299
C           27.97158388389289        2.88291782925967        0.39469607005517
N           28.26967094612727        1.53816730453090        0.33489142015692
C           26.57376538310221        3.50325346999624        0.74729241531643
C           26.52615170254762        4.91311332648764        1.20563893556786
C           26.82231732880340        5.23733540562323        2.53575455001613
C           26.79373517264483        6.56608341206532        2.95910367863835
C           26.46972954978273        7.57548370070347        2.04650231915695
C           26.43637319784615        8.98872330766842        2.47470376424790
O           26.67450013970504        9.34975519031071        3.61545725542975
C           26.17266379047518        7.26203891162695        0.71565347028048
C           26.20189055893229        5.93268871865048        0.29962122881439
C           25.43877112781249        2.75551581163224        0.62142242406388
C           24.11570264748121        3.26659603870703        0.93381701885600
C           23.22994160307551        2.30428392829304        0.68497377190876
C           23.95762674986254        1.15004474358797        0.21649337495160
N           25.28101824485000        1.46277858372189        0.20872894811972
H           22.21497067238808       -0.01015610264938       -0.03048320620408
H           22.38102895617084       -2.45917951772480       -1.41404367000295
H           24.33943017130053       -4.28178797615516       -1.87998663294125
H           26.07235657412275       -0.82528813141638       -0.20550731409190
H           27.60528966360242       -4.85408452533358       -3.22496633710081
H           27.63275311181681       -7.32676245535815       -3.50199677463068
H           26.90969303779305       -9.75124301804273       -0.65387429428156
H           26.60846128612089       -7.76999375982354        0.67690125908159
H           26.58678841992164       -5.30678890529801        0.92017940782179
H           29.70560270924234       -4.42523264431922       -0.74790915381110
H           31.44678707832686       -2.62188376747152       -0.23161237633449
H           31.17202574636515        2.83729492836599       -0.41752514472032
H           29.20933654113024        4.65282109768417       -0.00160263263815
H           27.58651212383295        0.79107306466779        0.42455226940095
H           27.07205786219649        4.43963832586735        3.23283482267223
H           27.02368718971278        6.80742885536068        3.99348003372457
H           26.17863581189076        9.72180480371363        1.68874127144207
H           25.91763956024459        8.03417961801044       -0.00457143604710
H           25.97107845810904        5.66731473448499       -0.73091929785041
H           23.88440233456432        4.24715607200244        1.30473647932047
H           22.16605862495848        2.36653550750535        0.81410290001590
C           68.58808839724372        0.03773459939405       -0.11336993322014
C           67.86048244754407        1.36506325709622        0.18029410751058
C           68.45213694092106        2.60915925275919        0.30099351617690
C           67.42973579318696        3.53239551338394        0.62402407926161
C           66.23479318728640        2.83052194355288        0.70029764339300
N           66.50781860592723        1.52309407213513        0.37156644752088
C           64.83214740564983        3.39960018686686        1.10879630205922
C           64.79510703697747        4.72055533520687        1.78665185109994
C           64.50052080309321        5.88706691230703        1.06807981410739
C           64.48497634258675        7.12438702001176        1.71102894252782
C           64.76511148180562        7.19487548795751        3.07963765433164
C           64.75314629335868        8.49584075997497        3.77897461529171
O           64.51626039245079        9.55442542330100        3.22090952105020
C           65.05960325472188        6.03597242918353        3.80569864455687
C           65.07439158992062        4.80297444503373        3.15708305179498
C           63.69150413231187        2.67076317853073        0.91483707744954
C           62.39254775585026        3.14594461615588        1.34493495404870
C           61.48963454026320        2.21493757018719        1.04973193012142
N           63.49810866331308        1.43775748930713        0.35160237587677
C           62.16688677349499        1.10467131507978        0.40997135257872
C           61.50256420293243       -0.01294238602854       -0.00990182231835
C           62.27634927092690       -1.18690694312489       -0.71320520219487
C           61.73910326226682       -2.11993935725634       -1.58746358205187
C           62.76309801115899       -3.03039837737709       -1.93386012628524
C           63.91481597841241       -2.63300508101918       -1.27539415127132
N           63.61670557197780       -1.48099703752043       -0.57928792772494
C           65.31248506909213       -3.34473853314492       -1.32617391310428
C           65.36016531468721       -4.77206609731716       -1.72687924865053
C           65.06400025710985       -5.77965731266780       -0.80000792561943
C           65.09258192502902       -7.12007230694396       -1.18483934983093
C           65.41658626860875       -7.45370091313687       -2.50408554481294
C           65.44994236264543       -8.86711821132171       -2.93174686814382
O           65.21181676506752       -9.80028566063459       -2.18286252739173
C           65.71365147101662       -6.45466902711262       -3.43753730691017
C           65.68442438005384       -5.11781241930178       -3.04628843070814
C           66.44756243336683       -2.65275634291091       -1.01610208710648
C           67.77060745549018       -3.25130870291306       -1.03969685860168
C           68.65637645058246       -2.31258160057615       -0.71293638401497
C           67.92867530793234       -1.09235431122115       -0.46246626878476
N           66.60530903437731       -1.34825417961932       -0.64240422867592
H           69.67134415864973        0.00999979195589       -0.02438225573705
H           69.50528605514585        2.81516936339602        0.18294043629524
H           67.54688821216384        4.59011827999449        0.80627818860334
H           65.81395680889557        0.78530923370407        0.28215375999669
H           64.28102668370774        5.81236969660247        0.00465925317903
H           64.25356319262573        8.02341508881345        1.14578214179435
H           64.97662290359779        8.46079752122491        4.86043043939011
H           65.27785483182780        6.07411667167047        4.86866861953860
H           65.29952777677759        3.88967637870717        3.70471717907298
H           62.18071757131388        4.08149503897053        1.82778716557000
H           60.43955516223097        2.29465743989951        1.25703975462208
H           60.71430778226809       -2.14452039833251       -1.92595050662636
H           62.67697914182474       -3.88581655679511       -2.58696563753766
H           64.29980016758834       -0.90908022248100       -0.09022498896034
H           64.81425803944460       -5.50262101442402        0.22248331263804
H           64.86262851014145       -7.89466216192807       -0.45807001690685
H           65.70768002948610       -9.04108068018164       -3.99234958943689
H           65.96867654600737       -6.69760392781092       -4.46511124459974
H           65.91523732600407       -4.32535718801846       -3.75653488721743
H           68.00191298872582       -4.27292782296585       -1.27500387210242
H           69.72025687021539       -2.43601146645756       -0.64002902776744
C           32.55228073706697        0.00770243331682        0.00491244773282
C           33.96556937076910       -0.01342375670516       -0.01249978133475
C           35.16816396476655       -0.03512457985162       -0.01426085989528
C           36.49151020005850       -0.04726760273998       -0.01642878156297
C           37.76505654919959       -0.03720103011261       -0.02114996820279
C           38.97112872871364       -0.01826461428272       -0.02729746936053
C           40.25591735131002        0.00700666809651       -0.01246293381639
C           41.33575336569936        0.01173451424841        0.00204863527136
C           50.57534173879392        0.00161623924593        0.00912713474175
C           51.79566773603726       -0.01403092284335       -0.01209339865834
C           52.96704889856696       -0.03503564048790       -0.01451811632592
C           54.29188986810615       -0.04733112436847       -0.01646733566015
C           55.56512537495995       -0.03715823537810       -0.02111421459241
C           56.76897775811468       -0.01802507720783       -0.02737411485659
C           58.09382149078035        0.00644619587136       -0.01184810196173
C           59.25241506700853        0.00769668929202        0.00537048369557
C           42.47155836631191        0.01623168008176        0.00414808614517
C           43.13655199216146        0.88071952781572       -1.05749866699602
C           42.58857035451067        1.47886715651485       -2.17174438504575
C           43.62595924349769        2.17550379739605       -2.83334170561722
C           44.78474050889292        1.98221480935663       -2.11084625625991
N           44.47767827802826        1.15458225133241       -1.05363661827092
C           46.18950137733315        2.59273414691751       -2.44321246516375
C           46.23398499313570        3.77653189279863       -3.34463339398058
C           46.45962542126579        3.62228360216640       -4.71785079745308
C           46.50220454741562        4.73522326759110       -5.55800973455490
C           46.31463257835857        6.01236836020154       -5.02295224462712
C           46.35805142729917        7.20416111574378       -5.89585397685475
O           46.51869161972361        7.14279383156956       -7.10332243245419
C           46.08298826896542        6.17866049500441       -3.65438765930685
C           46.04332691022925        5.06176045997724       -2.82010861865199
C           47.32956080085090        2.07729126093552       -1.89933784549481
C           48.63334398102543        2.62804171243147       -2.19503548658453
C           49.54718408123442        1.92237739216728       -1.52957660504699
N           47.52511276848115        1.03260180354258       -1.03196207984733
C           48.83997315430960        0.90294233135263       -0.78378816388821
C           49.33806922342848        0.00839248818512        0.01337786540028
C           48.76184560602159       -1.10059809896934        0.84692810396547
C           49.35220994367205       -2.10902093532393        1.58805884241290
C           48.31170748558502       -2.83366207071200        2.21221940522010
C           47.11362583481137       -2.24801476082955        1.83696538866936
N           47.40656355781260       -1.21172146332495        0.97730912338369
C           45.69192411606448       -2.67693532682257        2.33951348973101
C           45.62293951530889       -3.77583518921984        3.33671146224131
C           45.49797199420302       -5.09830557979479        2.89031006980687
C           45.46509003823604       -6.14588455809468        3.80678835843819
C           45.54261751298564       -5.86782536050682        5.17671360031749
C           45.49654152739029       -6.99044080200123        6.13423840870215
O           45.56448167373635       -6.84145403020121        7.34252324704484
C           45.65696644988783       -4.55041101457276        5.63320608365412
C           45.70169963655377       -3.50641230311425        4.70995714833771
C           44.55489147553722       -2.08687007256583        1.87835676091195
C           43.24821443720618       -2.45275202436929        2.38263954163810
C           42.33914038973024       -1.70319102976538        1.76593115777964
C           43.03970194813274       -0.85274442798023        0.82656590321721
N           44.36177838319940       -1.10938875147861        0.93990440168392
H           41.55697048210531        1.42461521388669       -2.47577233118147
H           43.54141440086344        2.75781890202467       -3.73627033533821
H           45.14935436562394        0.76622035362750       -0.40209874122853
H           46.60826645695140        2.62374221026386       -5.11836803409300
H           46.68481659001502        4.60286377351923       -6.62011114024725
H           46.22940282466985        8.17874075797249       -5.38930592701958