492
 energy: -818.007437089784 gnorm: 0.000237097789 xtb: 6.5.1 (b24c23e)
C           87.68777021067025       -0.01251366262556        0.09487569914735
C           88.29675410137607       -1.10793338808335        0.69336848728065
C           87.64551786341606       -2.22359603568598        1.29054312009500
C           88.60857366723164       -3.07156529003145        1.76032645324755
C           89.87962451104842       -2.49574137256849        1.47509738224747
N           89.64038742666141       -1.31879211745195        0.82418612025912
C           91.14272723099448       -3.01851410229103        1.77391871097493
C           92.35870072165316       -2.41880468500982        1.43836819960512
C           93.65533054535607       -2.95109320842910        1.81774849830571
C           94.57777990138682       -2.10047676938588        1.32241035575010
N           92.51549658823625       -1.25940975817104        0.74193177755840
C           93.84375338765645       -1.04686256619299        0.64835290468703
C           94.48207006465185        0.02776909364860       -0.00322272556529
C           93.84647828671096        1.10240191287677       -0.65304221469640
C           94.48974055776934        2.16263577182830       -1.34529627915739
C           93.52210988122110        2.99565588502142       -1.83440443400661
C           92.25664838017410        2.47462342122347       -1.44577166938540
C           90.99490348587373        3.00407685859806       -1.73484959570656
C           90.96104236395929        4.27304430011073       -2.50257762912736
C           90.34379310684974        4.32329928083380       -3.75340654443219
C           90.31437004644700        5.50768412409089       -4.47389099553117
C           90.89539653946996        6.65618954180273       -3.95353160082248
C           91.50874092267343        6.61516712551053       -2.70881632183297
C           91.54481349115825        5.43124199083398       -1.98742926841371
C           89.77834079842833        2.42678274709479       -1.35581527289491
C           88.47631683557640        3.02368454059334       -1.61035908005445
C           87.56092245109905        2.17789602166801       -1.09615609410872
C           88.30261762437061        1.06964340679570       -0.52098027302013
N           89.63480632008962        1.25801316602432       -0.68753525344675
N           92.50494124115603        1.32599186536184       -0.74120545906560
C           91.17251266439544       -4.30930287989945        2.50581379670916
C           90.61050167373328       -4.41550131283473        3.77870842094299
C           90.63879449627319       -5.62369718320821        4.45907825006802
C           91.22243844433281       -6.74001872835900        3.87570332269337
C           91.78155711571820       -6.64289889783386        2.60867987377429
C           91.75975707637451       -5.43535830042425        1.92730950135435
H           86.60253670597278       -0.01199539798089        0.11268176650534
H           86.57600746671568       -2.35196359918599        1.34121401731579
H           88.45805345710460       -4.01763575826451        2.25455463537607
H           90.36487870522303       -0.69588920485748        0.48314483284339
H           93.81530780502871       -3.84586335603824        2.39720891573597
H           95.65204558929769       -2.15387095401737        1.39825442600879
H           95.55749748704964        2.26208825015469       -1.45609522860129
H           93.66814267638662        3.88793955602152       -2.42102001729164
H           89.90083082809988        3.42405610659555       -4.16679757170615
H           89.83651368223188        5.53358735346818       -5.44697067535176
H           90.86989424252017        7.58194592184303       -4.51708871648139
H           91.96057767296990        7.51037530138652       -2.29605418680418
H           92.01165657485240        5.40531932932352       -1.00898454818831
H           88.31125846586215        3.96819519513957       -2.10337873572164
H           86.48615223884551        2.27062355962379       -1.08519621229148
H           91.78381757559028        0.72742605109182       -0.35220588743738
H           90.16655770186725       -3.54134735610769        4.24216118241390
H           90.20408122298275       -5.69314386060878        5.45011281584946
H           91.24181688857261       -7.68429383676690        4.40791367041596
H           92.23623204097946       -7.51261756759645        2.14745610653852
H           92.18577843351845       -5.36404188169962        0.93276520629450
C          206.75480224498395        0.05202602183092        0.00147699002893
C          206.15109092669437        1.08972181512330       -0.69691092863691
C          206.80726711208888        2.12445740123693       -1.42090767337465
C          205.84836018201437        2.94186172404543       -1.94970777236048
C          204.57521081167437        2.43906015789369       -1.55633381120949
N          204.80879104967886        1.31730596166812       -0.81252472914125
C          203.31486060296615        2.96160212318608       -1.86709968015741
C          202.09629937275167        2.40076425732829       -1.47785361086681
C          200.80365575897824        3.00090776288979       -1.75587721404976
C          199.87676826581486        2.17296837956212       -1.23114105407514
N          201.93318402183570        1.24274270551170       -0.78056848215250
C          200.60430007077886        1.07326678905578       -0.62747141120887
C          199.95995993104802       -0.00996249386392        0.00384865513969
C          200.59024627010137       -1.09498118397437        0.64166292478464
C          199.94194815698330       -2.20076878020896        1.25309738275090
C          200.90531686098782       -3.01953545463524        1.77386356653460
C          202.17295429919091       -2.43312530912290        1.50367660555338
C          203.43159040557006       -2.93261958318500        1.85366225920764
C          203.45724179036358       -4.19074735180835        2.63919785179525
C          204.07902079150173       -5.33071101580651        2.12748893207084
C          204.10157191799155       -6.50665593984893        2.86198985156105
C          203.50904435952765       -6.55807033093168        4.11645657205583
C          202.89047096096087       -5.42788632673322        4.63343845982594
C          202.86119570848402       -4.25145167788906        3.89971094459086
C          204.65133308428983       -2.33512644623104        1.51883537281210
C          205.95049247828177       -2.83776707002322        1.93821488356503
C          206.87049276987491       -2.00167843930689        1.41639815913388
C          206.13438859288203       -0.98337113145152        0.68814822752001
N          204.80100352302421       -1.21024444191649        0.78017277100480
N          201.93049928477885       -1.27753574832621        0.80863636426348
C          203.29071255459789        4.20761013024056       -2.67281641286651
C          203.87704433664430        5.37750563376076       -2.18807332958852
C          203.85366082155605        6.53927720601152       -2.94516304171022
C          203.25069706004086        6.54586232054202       -4.19557919243680
C          202.66725961361260        5.38536348284371       -4.68573614335044
C          202.68412037135084        4.22312896269943       -3.92960406630842
H          207.84015492585945        0.05853361781370        0.00492337611437
H          207.87697573652059        2.21623118484284       -1.52189174806615
H          206.00298870392899        3.81318605496670       -2.56521593615723
H          204.08149632707512        0.73667051251210       -0.40867985109567
H          200.64929528138038        3.93584609773126       -2.26973499890896
H          198.80352039411150        2.27682856126326       -1.23262493514202
H          198.87391278553935       -2.34498466320598        1.28106231227638
H          200.75519408227510       -3.95266826255444        2.29190072031217
H          204.53098820511420       -5.29599536195567        1.14247628366621
H          204.58327788242127       -7.38755723157028        2.45226547548586
H          203.52957156235274       -7.47749240022942        4.69048876827456
H          202.42939890097506       -5.46152884629829        5.61435723589558
H          202.39016747623299       -3.36581879712942        4.31174121625580
H          206.11091286571994       -3.70515483570433        2.55813807533175
H          207.94502058630263       -2.03919899485904        1.50490037902404
H          202.65435366543457       -0.65444315950812        0.46601206232526
H          204.33609975533631        5.37854546325333       -1.20558558908614
H          204.30738104772007        7.44404066675530       -2.55595340055457
H          203.23517745227019        7.45424156495702       -4.78708750772302
H          202.19737012928070        5.38449861824861       -5.66301409083104
H          202.23901849574125        3.31426976971080       -4.31892186943944
C           99.68594516435898        0.05899814169262       -0.03681936130684
C           98.45771223698037        0.05451324020668       -0.03177396244169
C           97.11257155664319        0.04841600006594       -0.02498995937203
C           95.88886137172001        0.03840064762701       -0.01485154974571
C          101.03096396866465        0.06070811605609       -0.03835174349266
C          102.25493063525343        0.05662556670633       -0.03920563099895
C          115.73311044755570        0.02467139002287       -0.04756147970167
C          114.50395776528021        0.02539403314548       -0.04182822119399
C          113.16035895980174        0.02592088149231       -0.03653941545559
C          111.93562683410811        0.02965478707978       -0.02959867411514
C          117.07667955097102        0.02560986682242       -0.05310167506032
C          118.30146111600331        0.02385417435923       -0.05787398324729
C          131.78384124123764        0.01267669722953       -0.01900923673170
C          130.55459758145196        0.01555594294012       -0.02454034883706
C          129.21101154538118        0.01746973221150       -0.03069077123215
C          127.98616680771337        0.02193483173658       -0.03590646937425
C          133.12743806048712        0.01064187148912       -0.01398896083025
C          134.35230385702664        0.00661371402059       -0.01125494163825
C          147.83670185127215        0.00385288676007       -0.00257584712140
C          146.60743211283287        0.00260914588355       -0.00203383093364
C          145.26381532261891        0.00006718433882       -0.00192893799643
C          144.03892874795389        0.00048530802668       -0.00210703178373
C          149.18031859395563        0.00644238800149       -0.00371950462229
C          150.40519999965440        0.00636626129935       -0.00672029691260
C          163.88937672640390        0.01027086671044       -0.03117837619174
C          162.66013843957720        0.00600623206460       -0.02711513326446
C          161.31655472281807        0.00133239969270       -0.02415420478834
C          160.09169299881577       -0.00007666089200       -0.02003668727286
C          165.23295632426610        0.01516175268348       -0.03505255485591
C          166.45782211527418        0.01637282340704       -0.04001018221366
C          179.93955680335023       -0.00191589806598       -0.05005145489743
C          178.71037610998670        0.00064463893652       -0.05150720950158
C          177.36683560639170        0.00232682961340       -0.05370017323477
C          176.14207235288032        0.00549994378346       -0.05400657113511
C          181.28312084326680       -0.00382011783676       -0.04618315627872
C          182.50787327687505       -0.00933470618002       -0.04292962067639
C          195.98459821686714       -0.03477235139119       -0.00479993253144
C          194.75628344035482       -0.03650893001699       -0.00903943229984
C          193.41147397620463       -0.03742734046890       -0.01391592405984
C          192.18741484738993       -0.03332274652381       -0.01735819437964
C          197.32955353556505       -0.02973269181344       -0.00068169875068
C          198.55340793399560       -0.02075918643579        0.00201964447295
C          103.66076470030782        0.05331641716842       -0.03550927381593
C          104.28941543032253        1.21463234373589        0.45293733740376
C          103.64361892634564        2.36742850889855        0.96979194121536
C          104.61107672562711        3.26351651525347        1.33432343373217
C          105.87667136827349        2.68661335178701        1.04046698737597
N          105.63124534319361        1.44517650278313        0.51742972792935
C          107.13728068626206        3.25731353104989        1.25385885504036
C          108.36233090760324        2.64533589699465        0.98545998019399
C          109.64687044542946        3.29921241411445        1.16114181585016
C          110.58632135796880        2.39996544663081        0.80204279346328
N          108.54261280242486        1.38098106557833        0.51223137448580
C          109.87424414602155        1.20238650768521        0.40225570852564
C          110.53145378707123        0.03035573362921       -0.02520359810332
C          109.90165123276013       -1.15557703441021       -0.45126538147877
C          110.54673562100396       -2.35535005722920       -0.84779666839438
C          109.57903245419908       -3.25880024841328       -1.19325906643053
C          108.31403261952106       -2.63195056983705       -1.02700196077417
C          107.05379963334218       -3.19207186368012       -1.26735076242791
C          107.03789617741360       -4.58054149980893       -1.79317889915196
C          107.61355855207582       -4.87705003986331       -3.02923695792907
C          107.59414960246627       -6.17476480399084       -3.51810984511653
C          107.00634350714874       -7.19118345534485       -2.77751108886361
C          106.43426264701813       -6.90445177625341       -1.54550229624062
C          106.44667113681516       -5.60719564538137       -1.05572830662401
C          105.82862688222819       -2.55738720230570       -1.05600092992267
C          104.54431942600051       -3.15360523853167       -1.37841875402116
C          103.60503202711597       -2.24857813252382       -1.03407246954655
C          104.31689624376432       -1.09961038944470       -0.51050538250226
N          105.64895807887690       -1.30843483451322       -0.54506811640533
N          108.56021506347659       -1.36530910879241       -0.56772789290951
C          107.15178642247973        4.63195988778235        1.81520004556111
C          106.58552184699360        5.69316050259293        1.10792049615349
C          106.60049127894717        6.97511725710749        1.63692729060873
C          107.17433747024759        7.21139332724418        2.87869949023602
C          107.73758459256783        6.16016491007584        3.58933088998656
C          107.72975766962213        4.87796578244113        3.06128252667624
H          102.57535142422972        2.48483221627246        1.05465441219042
H          104.46321371743946        4.23538440806585        1.77605399120540
H          106.34993379899377        0.78969610020471        0.22919910397797
H          109.78778183015460        4.31294613964050        1.49941248421810
H          111.65862956270024        2.51288134224193        0.79331255476994
H          111.61468072543367       -2.50213651820424       -0.85815109946393
H          109.72623515447275       -4.27329790227627       -1.52589605858023
H          108.06126987477501       -4.08208174420403       -3.61534418355927
H          108.03908200550505       -6.39270803790216       -4.48268811044646
H          106.99371674512606       -8.20540517411512       -3.16019524563635
H          105.97623189625703       -7.69530324535937       -0.96189797400347
H          106.00951156644574       -5.38645294059656       -0.08834106882633
H          104.40327277735854       -4.12628895825018       -1.82100411405988
H          102.53300538340788       -2.32314904221663       -1.12258465089981
H          107.84193602698463       -0.68562375929100       -0.34111129378920
H          106.14815106997551        5.51289319218857        0.13213640694959
H          106.16261841267936        7.79342236525129        1.07609592719369
H          107.18283344987519        8.21358312782498        3.29198515717563
H          108.18466056089810        6.33898518883143        4.56092001393061
H          108.15973675796782        4.05565023733073        3.62217050667100
C          119.70549790965981        0.02631082208744       -0.05924024429007
C          120.33228758300366        1.17911753691950        0.45366448033535
C          119.68467255014049        2.31952447540132        0.99428425472473
C          120.65050218369456        3.21514526419780        1.36503495700090
C          121.91654239228174        2.64962281528182        1.05248446221638
N          121.67325268893755        1.41474661012453        0.51274808478041
C          123.17551242404367        3.22505539129580        1.26399481003313
C          124.40283362299617        2.62213468750354        0.98580262075084
C          125.68481070112000        3.27964021354217        1.16647625351078
C          126.62796322830864        2.38597445515433        0.80300918982394
N          124.58821723866478        1.36224900222343        0.50243705797451
C          125.92064586804769        1.18912157785146        0.39319017901478
C          126.58211851888171        0.02251556564407       -0.04279601646777
C          125.95505675189446       -1.15736719686949       -0.48975899283840
C          126.60220698665346       -2.35029628762214       -0.90258847196192
C          125.63631755111251       -3.24650029358920       -1.27176963546208
C          124.37066732231617       -2.62191250470866       -1.10319280829903
C          123.11188022176263       -3.17737853216107       -1.36315924727774
C          123.10141408287585       -4.55431531660934       -1.91876839135028
C          123.68498827811469       -4.82309088932359       -3.15745809634078
C          123.67134715939466       -6.11008378548037       -3.67406098125673
C          123.08160500550197       -7.14336323476862       -2.95875740393506
C          122.50171353209589       -6.88426430127643       -1.72428574429062
C          122.50825394493025       -5.59773258538722       -1.20687434787444
C          121.88466939283498       -2.55003538825414       -1.14419633767826
C          120.60313294120490       -3.14191888319048       -1.48450417895114
C          119.66000221207167       -2.24889574382301       -1.11938823591609
C          120.36697808512777       -1.11111907103174       -0.56607382492566
N          121.69926927140195       -1.31377001386594       -0.60359069538126
N          124.61426867659968       -1.36410648150451       -0.61916136782176
C          123.18463688633302        4.59542762715978        1.83570692720920
C          122.60651083219597        5.65738831312092        1.13913467565012
C          122.61653635468070        6.93598793779804        1.67621853911627
C          123.19717372427834        7.16809535777763        2.91562254507884
C          123.77193910597454        6.11606660826410        3.61575933189944
C          123.76906844390950        4.83720774341470        3.07958182727725
H          118.61652921209220        2.43025141245038        1.08893555606013
H          120.50105944951740        4.17923990639235        1.82295421031129
H          122.39258928719842        0.76752723357298        0.20796285884086
H          125.82190728258765        4.29162162766389        1.51146396291418
H          127.69987245771134        2.50276733992774        0.79624956059464
H          127.67009932659859       -2.49770341956885       -0.90798607740470
H          125.78533764223333       -4.25483957967313       -1.62185466040648
H          124.13454477878608       -4.01484195830255       -3.72364883378144
H          124.12245390025724       -6.30642838846047       -4.64040506109814
H          123.07365953290588       -8.14923158826694       -3.36300574240670
H          122.04224379390701       -7.68842004530848       -1.16032644775221
H          122.06507975654129       -5.39865043615087       -0.23752772733150
H          120.46620555548213       -4.10371973332219       -1.95150546116167
H          118.58838143323713       -2.32484893452840       -1.21177969972180
H          123.89515357378029       -0.68783157473559       -0.38514794253601
H          122.16371645498856        5.48037221218592        0.16520333094130
H          122.16946752387898        7.75489661688775        1.12359679987146
H          123.20189310154541        8.16766304525770        3.33525812905723
H          124.22423610788672        6.29162723591896        4.58551856517414
H          124.20792405400212        4.01418313321143        3.63248473607126
C          135.75635513334794        0.00604715224364       -0.00770765963227
C          136.38464413771300        1.15709584678174        0.50747976395799
C          135.73879408335242        2.29741415887554        1.05037374352664
C          136.70598995519958        3.19118041836513        1.42211722090192
C          137.97114480533565        2.62474786841572        1.10760958188542
N          137.72596010992763        1.39080665255346        0.56649718574660
C          139.23078799747901        3.19937094058981        1.31718475894293
C          140.45749948659358        2.59682365415205        1.03535449482314
C          141.73971600933081        3.25479567020496        1.21272191301972
C          142.68218503535871        2.36210449071576        0.84514733384750
N          140.64202168674291        1.33753246395581        0.55018843326069
C          141.97421945915343        1.16530447697369        0.43639018040430
C          142.63486460685584       -0.00043433301033       -0.00317030724080
C          142.00652146264176       -1.18020096742337       -0.44858553421123
C          142.65225196634975       -2.37279107912554       -0.86449450051520
C          141.68506256388977       -3.26871299861617       -1.23102175719130
C          140.42000492438456       -2.64419003917992       -1.05776283909245
C          139.16039336656343       -3.19921194748434       -1.31489481087784
C          139.14867613873281       -4.57524341180339       -1.87289253023080
C          139.72791527313231       -4.84102069291846       -3.11426851368177
C          139.71314475931987       -6.12688760640094       -3.63361395380863
C          139.12663344414469       -7.16204421354405       -2.91836871162552
C          138.55112071057977       -6.90593459929693       -1.68123020115220
C          138.55872550734773       -5.62049504903860       -1.16107547739428
C          137.93370003756218       -2.57196719909627       -1.09299260381822
C          136.65160826826772       -3.16344584002051       -1.43195880711328
C          135.70916274744278       -2.26974172384635       -1.06678359710459
C          136.41701652239547       -1.13216393583742       -0.51413755766018
N          137.74916160401841       -1.33563211642217       -0.55208755756167
N          140.66526864133166       -1.38686417701596       -0.57342514436848
C          139.24211548503411        4.56981218722926        1.88879772190192
C          138.66453027877671        5.63223049206027        1.19249499917227
C          138.67826684481199        6.91132142764171        1.72832470168865
C          139.26205742499002        7.14344904694152        2.96623809703187
C          139.83601059764831        6.09089792522619        3.66625842595765
C          139.82948183886776        4.81153847978872        3.13129514839993
H          134.67084588200879        2.40923461306459        1.14595872157675
H          136.55811067817464        4.15469288904881        1.88177837240842
H          138.44421911253738        0.74334572133509        0.25968333284244
H          141.87744758073984        4.26645753867903        1.55837447905335
H          143.75399027171565        2.47956121328715        0.83501796640499
H          143.72012860947157       -2.52015547036020       -0.87364422218656
H          141.83285994868834       -4.27677539510647       -1.58242518026596
H          140.17498910314239       -4.03128053072699       -3.68029501576296
H          140.16081860063352       -6.32086332533610       -4.60203023771344
H          139.11779311642260       -8.16704335956029       -3.32475620945579
H          138.09422128997792       -7.71159762059771       -1.11733414809375
H          138.11888492783649       -5.42375634971859       -0.18973598488374
H          136.51390546002602       -4.12546934618750       -1.89827362656317
H          134.63744708808454       -2.34530602836765       -1.15836142833741
H          139.94706059848988       -0.71054041205558       -0.33678040983614
H          138.21946756324400        5.45517890734775        0.21960606642785
H          138.23183884060592        7.73062559143614        1.17577545055881
H          139.26995756689524        8.14346365834339        3.38475881979398
H          140.29076549437656        6.26649979992307        4.63485989187943
H          140.26803897021236        3.98819788438897        3.68396389434226
C          151.80926247548217        0.00729503086628       -0.00892371211312
C          152.43878790878566        1.15923566382682        0.50269690198943
C          151.79429078130579        2.30097543058120        1.04427226599441
C          152.76243661352845        3.19527812634790        1.41223307116320
C          154.02685938810336        2.62762318540602        1.09696693524114
N          153.78027624517529        1.39270464778147        0.55866729614794
C          155.28709491551280        3.20167910754846        1.30423464793277
C          156.51310371107434        2.59790133348270        1.02188328916091
C          157.79593253290659        3.25522728350808        1.19721342282910
C          158.73740046239354        2.36171913300125        0.82909549607869
N          156.69624582331755        1.33808049934771        0.53765613905839
C          158.02820785611328        1.16503574856239        0.42216260264283
C          158.68765341673270       -0.00128690811675       -0.01756302608883
C          158.05817591649941       -1.18145049986606       -0.46025362194109
C          158.70273704007857       -2.37499515173393       -0.87515699739130
C          157.73458741931250       -3.27085240762436       -1.23935225311816
C          156.47012091607149       -2.64526264820373       -1.06569169008201
C          155.20986076045136       -3.19954979101552       -1.32143714111977
C          155.19691761390217       -4.57571386799909       -1.87902796262441
C          155.77601656351908       -4.84218441657566       -3.12033878642606
C          155.76055022455975       -6.12817579660159       -3.63933165787963
C          155.17343437454420       -7.16280102253130       -2.92380799277067
C          154.59798188516106       -6.90600168363487       -1.68678536262680
C          154.60631263611668       -5.62042658283477       -1.16696402665632
C          153.98385521467463       -2.57140284407577       -1.09844715420671
C          152.70097133093205       -3.16222236412167       -1.43553577349616
C          151.75948759726592       -2.26834432466517       -1.06832137866019
C          152.46871567241928       -1.13108828486167       -0.51672882150597
N          153.80069623043596       -1.33496223606290       -0.55720511606362
N          156.71665220190420       -1.38753067476457       -0.58314343850564
C          155.30053856089958        4.57294820923253        1.87386272831077
C          154.72466789050972        5.63530240017611        1.17608801757658
C          154.74159268231330        6.91533495747381        1.70960019130436
C          155.32679939015193        7.14844613687954        2.94665712808946
C          155.89880181506885        6.09589215635898        3.64827224155396
C          155.88913322348131        4.81560062723516        3.11560517609728
H          150.72653669379741        2.41342219481702        1.14132116970542
H          152.61575766090752        4.15998595871261        1.86977903985511
H          154.49779258920540        0.74431009305301        0.25207798123946
H          157.93476237064826        4.26701381623749        1.54204622076723
H          159.80925961076844        2.47852340825771        0.81763096780005
H          159.77051318003811       -2.52304045766159       -0.88515431019054
H          157.88138399945834       -4.27955566526164       -1.58933070412786
H          156.22358513078237       -4.03285399631818       -3.68656239858193
H          156.20819646224425       -6.32267449915377       -4.60765608767367
H          155.16410257249089       -8.16792155770397       -3.32988403252340
H          154.14060853874219       -7.71125430085429       -1.12268585463245
H          154.16660694260207       -5.42320742261786       -0.19566110023274
H          152.56211666795886       -4.12397160320559       -1.90207586537868
H          150.68760205084126       -2.34346312274350       -1.15823063755125
H          155.99911759205898       -0.71042469439995       -0.34669141437771
H          154.27860555122678        5.45746626985677        0.20380130912745
H          154.29668437427742        7.73463925964867        1.15582759520566
H          155.33737742302398        8.14923840271366        3.36325638605470
H          156.35462930795654        6.27225078564308        4.61623287598920
H          156.32636630410954        3.99231190214977        3.66940153337367
C          167.86186998371412        0.01775254408541       -0.04373676916116
C          168.49165123449060        1.16927894410568        0.46847636280929
C          167.84733695924524        2.30975709219856        1.01298803623050