205
 energy: -342.193953495208 gnorm: 0.000588396600 xtb: 6.5.1 (b24c23e)
Ni          36.09266954435385        0.05888112555294       -0.06054562243919
C           32.70731896403746        0.16789244978591       -0.18148933975806
C           33.34742298240436        0.94001426217442        0.76633642421598
C           32.66326204889512        1.74246673618578        1.73286099973090
C           33.61466919576462        2.41758536197085        2.42075300902715
C           34.87882388901119        2.04371050374788        1.85810599031038
N           34.70626733123116        1.10142452398171        0.87481608093278
C           36.09131772847915        2.62350728181627        2.21337664630552
C           36.09864457493736        3.72248882822392        3.20471240221684
C           35.37846279431929        4.89855355017332        2.97729435864714
C           35.39989983155910        5.92937555994032        3.89753020119387
C           36.13926382604352        5.81171061535890        5.08094994738536
N           36.08818684746457        6.85016291559589        5.99873648956694
C           37.16807581826973        7.01103586313022        6.96346334485533
C           36.84668588179937        4.63023847143361        5.32158139555241
C           36.83022189687763        3.60797287532466        4.38828878033512
C           37.29992500128709        2.21849487660512        1.65931112599854
C           38.55259103784390        2.85774283348421        1.92450566889496
C           39.50524260173799        2.13472139955432        1.28665560140323
N           37.48065274533501        1.13689685846678        0.82712997905303
C           38.83256463048365        1.05960312634443        0.63119433784896
C           39.50071208270737        0.02113943447876       -0.02383742799565
C           38.82464354391902       -1.01941366612322       -0.66804923602567
C           39.48628731154356       -2.13261037162350       -1.26856616804597
C           38.52831442086975       -2.86890672473840       -1.88301517605427
C           37.28554070160970       -2.19148107470702       -1.67105571246779
N           37.47497375965822       -1.07967413782842       -0.88085878483192
C           36.08416952900080       -2.57392774848643       -2.25523946124359
C           36.08020138847704       -3.71390795646875       -3.19916704160985
C           36.86482459517175       -3.68699496064898       -4.35355274295146
C           36.86246553099097       -4.74552828525284       -5.24573604917493
C           36.08038574884226       -5.87590182259540       -4.99155910313844
N           36.00464080340833       -6.94411784979445       -5.87293593080593
C           37.10553362525040       -7.19873332487791       -6.79249374722924
C           35.28922026166080       -5.90640555996283       -3.83636200445467
C           35.28726594941423       -4.83948657712298       -2.95807827506747
C           34.88765499013401       -1.91500981837611       -1.99526244302753
C           33.64465321920652       -2.22698283909546       -2.63710485735542
C           32.69699620414360       -1.45334750288324       -2.05617015769478
C           33.36258500072358       -0.66322208693228       -1.06664217787762
N           34.71081412812465       -0.92326207820353       -1.06328303959803
H           31.62505581304134        0.20737412455391       -0.22514142843428
H           31.59233088212094        1.76880738357826        1.85789784612219
H           33.48390602825906        3.10735525280397        3.23871966917132
H           34.81760365052225        5.01238984229588        2.05602384556699
H           34.84406808562213        6.84088988895498        3.70425731322495
H           35.81175318120013        7.72970125131478        5.57928001864432
H           38.14829369999783        7.02340102660558        6.47317155948673
H           37.14193860499646        6.20008217746533        7.69264274352868
H           37.01476752406609        7.95494904187123        7.48632146948617
H           37.41065101019160        4.50136362188796        6.23722546222126
H           37.37803281948609        2.69361690498227        4.58923007812472
H           38.67697870760429        3.75025355643781        2.51580474539473
H           40.57026160665018        2.29982952617223        1.25732491881636
H           40.54739914436873       -2.31613389528394       -1.21565311677670
H           38.64376288095846       -3.79094541540726       -2.42907819829710
H           37.46867204785161       -2.81165067749051       -4.56678620925775
H           37.46917695817966       -4.68398708543242       -6.14069245219831
H           35.66584859384842       -7.79108238049169       -5.43253551669405
H           37.15012439000555       -6.41356982439071       -7.54849874915663
H           36.91623245165996       -8.15032649615174       -7.28919491125873
H           38.06648819582497       -7.24867904629862       -6.26756794162503
H           34.67600887862432       -6.77802173591750       -3.63274546040744
H           34.68230185276535       -4.88437807058406       -2.05907395415033
H           33.52587053006547       -2.94302711951840       -3.43406155824347
H           31.63956877034223       -1.40935170538567       -2.26391454396734
Ni          62.92723334050712        0.03364781087672       -0.03283075668814
C           66.31348855088514        0.10175090690174       -0.13896020836823
C           65.66899450874514       -0.99072306449913       -0.68249241617584
C           66.34816614835937       -2.11894897173252       -1.24103043293175
C           65.39460987403255       -2.92827716712583       -1.76059310714436
C           64.13436245931976       -2.28283483635176       -1.53766293313395
N           64.31043297175438       -1.11811437552116       -0.83275077859962
C           62.92316630199953       -2.74282602023079       -2.04211890803356
C           62.91565398712771       -3.94866786439941       -2.89986214042853
C           63.65881454971755       -3.99222353981431       -4.08291218509924
C           63.64363241793239       -5.11668364342486       -4.88609826326444
C           62.88766494432640       -6.23892700741982       -4.52525394045594
N           62.94898168465703       -7.36491519450012       -5.33242943682015
C           61.86398949914943       -8.33637315475382       -5.29706746092458
C           62.15433168446038       -6.20604325198792       -3.33562186233113
C           62.16508412489952       -5.07071576170550       -2.54363501334373
C           61.71724308310542       -2.10499438325553       -1.77595214461751
C           60.46486624357633       -2.49334877483425       -2.34928057162497
C           59.51307184138482       -1.71649902556487       -1.77648862236575
N           61.53782398631405       -1.06259594916830       -0.89474576350330
C           60.18646767253666       -0.85208865400637       -0.86155499887548
C           59.51993163673140        0.00871507407906        0.01541563741056
C           60.19768064588779        0.86689920053682        0.88648037368785
C           59.53823688726231        1.70097793403588        1.83890060086542
C           60.49673156322925        2.46889738604044        2.41256077200616
C           61.73788679430027        2.11182543226721        1.79587023864063
N           61.54701862766264        1.09072384216482        0.89195910515169
C           62.93979825357308        2.76743142583326        2.03398260899506
C           62.94509931830779        3.94339986653544        2.93258230201796
C           62.15981129851231        5.06237319600002        2.64962085953813
C           62.16054839913009        6.16703475376741        3.48408251773212
C           62.94143710553347        6.17032301943258        4.64345398693293
N           63.01317032297025        7.26580058561834        5.49101552811469
C           61.90764846192269        8.21339865467793        5.53776275028663
C           63.73457517725207        5.05209092282246        4.92920039320996
C           63.73803316397142        3.95913521342940        4.08359447856472
C           64.13615543953087        2.36107409476228        1.45352512769416
C           65.38178301876549        3.05131604294531        1.61564027813175
C           66.32937187522005        2.30151285475510        1.00405516647467
C           65.66094953577493        1.15980874211213        0.45982020848073
N           64.31138978805531        1.22480300137603        0.70403904314618
H           67.39641478457399        0.12577540695515       -0.17666680109028
H           67.41747215396053       -2.25876306659577       -1.22449119631203
H           65.52149372839695       -3.88021009080572       -2.25012016080343
H           64.23385075972783       -3.12381703486602       -4.38528407371049
H           64.21849838410431       -5.13410704012321       -5.80612057859602
H           63.24843809001855       -7.15414522565994       -6.27670159361278
H           60.88857231891739       -7.85692370211441       -5.43896113696117
H           61.86784761527596       -8.86637041208063       -4.34357545480045
H           62.03105819885813       -9.05731411389140       -6.09728588776869
H           61.57539676479448       -7.06536018368325       -3.02027455331196
H           61.59848551304182       -5.06054788692896       -1.61880611498594
H           60.33985064908602       -3.25708297763211       -3.09947205904265
H           58.44835522028471       -1.71942042777729       -1.94613606373956
H           58.47796570844336        1.68840578332414        2.03412525701719
H           60.38266095039115        3.20940318955228        3.18737121476618
H           61.55606536442032        5.07541924524360        1.74863057415129
H           61.55298825056801        7.02554773401473        3.22558881716547
H           63.35410936099601        7.02467994559359        6.41380809802934
H           61.86463430291577        8.78363434552549        4.60881792767275
H           62.08970057507959        8.90295873204111        6.36201586969157
H           60.94840003070253        7.70671684668794        5.69421698536826
H           64.34750499936433        5.04760062814424        5.82444413557408
H           64.34372623510700        3.09300728278349        4.32695813981626
H           65.50241429580382        3.99181265778600        2.12839750333913
H           67.38839982116355        2.48757755425168        0.92008982880579
C           42.12732556212827        0.01793395288308       -0.03178332253280
C           40.90559947435806        0.01627509289166       -0.02497115688792
C           43.47726274502246        0.02059996853356       -0.03711547970072
C           44.69907797005012        0.02583697160071       -0.04200946266703
C           55.54366928791527        0.00528157678368        0.03265758247201
C           54.32186661128123        0.00621431668151        0.02759633512208
C           56.89351894327348        0.00481289457448        0.03360745434597
C           58.11521801140120        0.00630494671140        0.02626079991564
Ni          49.51053101172555        0.02962650190623       -0.02797860489818
C           46.10323278567633        0.02914674451902       -0.04310065894148
C           46.78041432568497       -1.06149637472964       -0.59805518064438
C           46.12321938648536       -2.21269607133973       -1.12682421694862
C           47.08158556867298       -2.97309319618369       -1.71206598695391
C           48.32028574919038       -2.27650487756939       -1.54822282931332
N           48.12938284604814       -1.12730988846970       -0.81467023426111
C           49.52096305006783       -2.66996941743604       -2.12873672651631
C           49.52443064720445       -3.83453784790775       -3.04057214827253
C           50.34383376199290       -4.93870598579630       -2.78721661274785
C           50.34630840850147       -6.02747844860635       -3.63779847182617
C           49.53572232121084       -6.04058687130803       -4.77974970633899
N           49.53735437285975       -7.17514302049945       -5.57699821688238
C           49.11045601935908       -7.08269976940669       -6.96662275417371
C           48.70975734917639       -4.94203009142521       -5.03472564198963
C           48.70782012191619       -3.85864763504323       -4.17285191684504
C           50.71886674359144       -2.00962350416832       -1.87916998461350
C           51.96449666261253       -2.34102337015562       -2.49972009009142
C           52.91799891205556       -1.59413304994201       -1.88956516750524
N           50.90113054154943       -1.01962211227377       -0.93989130498382
C           52.25043475180152       -0.79828925060504       -0.91100856367807
C           52.91788223653938        0.01137608192426        0.01386527158924
C           52.23715039198550        0.83253971628363        0.91852747544401
C           52.88951524326130        1.63217549244283        1.90428860926057
C           51.93089990489879        2.40161570819020        2.47735798201903
C           50.69736410327091        2.07686681385988        1.82976360074787
N           50.89054555319622        1.07175755568432        0.90930774594924
C           49.50050644208922        2.75113365386264        2.04490471103365
C           49.49702678040060        3.92874445608926        2.93991388873190
C           48.66600512699449        3.97213220323341        4.06124305174698
C           48.66261608507624        5.06679917081727        4.90854632427780
C           49.49729305549946        6.15787171734035        4.64923871291042
N           49.49423769104227        7.30289615307706        5.43153750274848
C           49.06032099067632        7.22742581277629        6.82000210540250
C           50.32247094596108        6.12524771433583        3.51816641454615
C           50.32585356126185        5.02475951521898        2.68258258978630
C           48.30697392517921        2.35457708325816        1.45228940772465
C           47.06695689066236        3.05344643112275        1.59582163690993
C           46.11294540357081        2.28275287014804        1.01696659896714
C           46.77484375072542        1.12520513769287        0.50835215926701
N           48.12208280023051        1.19529369395887        0.73297576317506
H           45.06404464041467       -2.40087529998868       -1.05489317884537
H           46.96847504071847       -3.92415650709466       -2.20635176615262
H           50.96829617702533       -4.94813280998168       -1.90059649738289
H           50.97858293359550       -6.88256583142982       -3.42299367841628
H           50.37738266344908       -7.73011145298227       -5.46718020112971
H           48.03779745752049       -6.89089511380979       -7.01624160837482
H           49.64407853098444       -6.28821693052733       -7.50085244707614
H           49.31578956585476       -8.03983012754027       -7.44606596343959
H           48.06579236866429       -4.92573220724602       -5.90532200811289
H           48.07690819650814       -3.00440642172294       -4.39328712779349
H           52.08580649039624       -3.05078641581946       -3.30172366418636
H           53.97995301995496       -1.57453855510140       -2.07490505887839
H           53.94576079966181        1.60053068335658        2.11830323076152
H           52.04081168974027        3.12237632347065        3.27122449061538
H           48.02804632898900        3.12389213957647        4.28469599594892
H           48.00775720925004        5.06545113130994        5.77123638361675
H           50.33565681767610        7.85559229591309        5.31949655098836
H           49.59290267571073        6.44085873963922        7.36667140010659
H           49.26111556663754        8.19095264443512        7.28842233383040
H           47.98796782280039        7.03382424641912        6.86653630956924
H           50.96206563371172        6.97405064763207        3.30009407205844
H           50.96300188296689        5.01861321029573        1.80495109807779
H           46.94995032534519        4.01199182644560        2.07452090234962
H           45.05420280331636        2.46906889551395        0.93467652746900
