138
 energy: -219.144192040295 gnorm: 0.595141581082 xtb: 6.5.1 (b24c23e)
C           13.97106000000000        1.13896900000000       -0.17581400000000
C           14.87066200000000        1.52832200000000       -1.38507100000000
C           14.78163400000000        2.68026700000000       -2.14118400000000
C           15.86882900000000        2.65710400000000       -3.05454100000000
C           16.54740900000000        1.46934300000000       -2.85494000000000
N           15.97730600000000        0.82507100000000       -1.78263900000000
C           17.83951200000000        0.94553500000000       -3.61830700000000
C           17.71145800000000        0.62158800000000       -5.06720300000000
C           18.01430100000000       -0.66568000000000       -5.53388200000000
C           17.78104600000000       -1.04083900000000       -6.86078500000000
C           17.16587600000000       -0.15929100000000       -7.74603600000000
N           16.81941100000000       -0.54592700000000       -9.06450000000000
C           15.94693400000000       -1.71214200000000       -9.09094400000000
C           16.90240600000000        1.14414000000000       -7.30911300000000
C           17.17422000000000        1.52420300000000       -5.98659500000000
C           18.94389000000000        0.67194000000000       -2.86692100000000
C           20.21956200000000        0.30537600000000       -3.44812400000000
C           21.07686500000000        0.06617500000000       -2.46151500000000
N           19.11672100000000        0.65988700000000       -1.50693600000000
C           20.38560900000000        0.24609600000000       -1.19559300000000
C           20.97791600000000        0.00020300000000        0.00005700000000
C           20.15125500000000        0.07453200000000        1.36785300000000
C           20.68447200000000       -0.02903000000000        2.63509100000000
C           19.60852700000000       -0.05136400000000        3.55824400000000
C           18.44464400000000        0.01899800000000        2.82605800000000
N           18.78200900000000        0.16358100000000        1.49713500000000
C           16.97224200000000       -0.08680000000000        3.43030000000000
C           16.83809900000000       -0.55157500000000        4.83078700000000
C           16.60153000000000        0.36515100000000        5.86157900000000
C           16.48764600000000       -0.06958600000000        7.18585300000000
C           16.63803600000000       -1.42457600000000        7.51889500000000
N           16.46688200000000       -1.92669900000000        8.82301300000000
C           16.65343500000000       -1.01412000000000        9.93678600000000
C           16.85794400000000       -2.33035500000000        6.47238600000000
C           16.97351300000000       -1.90032900000000        5.14627300000000
C           15.89422100000000        0.19947700000000        2.65821100000000
C           14.52327800000000        0.06046000000000        3.12196300000000
C           13.70547500000000        0.39952800000000        2.12743200000000
C           14.52533500000000        0.75975100000000        0.99105700000000
N           15.82566000000000        0.62416000000000        1.36324200000000
H           12.89736800000000        1.17809600000000       -0.29096900000000
H           14.05153900000000        3.46791700000000       -2.01992500000000
H           16.12603900000000        3.43058700000000       -3.76696700000000
H           16.40850200000000        0.08152000000000       -1.24817900000000
H           18.40616100000000       -1.40332700000000       -4.83152900000000
H           18.06099900000000       -2.03994500000000       -7.17165100000000
H           16.39323700000000        0.24322500000000       -9.54222500000000
H           15.08413600000000       -1.58762100000000       -8.42545400000000
H           15.56402900000000       -1.85425800000000      -10.10317200000000
H           16.48369100000000       -2.62786700000000       -8.81380800000000
H           16.42001200000000        1.85569800000000       -7.96928400000000
H           16.94857500000000        2.53552200000000       -5.66368000000000
H           20.44426700000000        0.26808500000000       -4.49418700000000
H           22.10500500000000       -0.21577400000000       -2.60077500000000
H           21.73211900000000       -0.11467800000000        2.87954900000000
H           19.68226800000000       -0.16228100000000        4.62842900000000
H           18.11900700000000        0.28375300000000        0.73241200000000
H           16.50469000000000        1.42429900000000        5.61658700000000
H           16.29403500000000        0.68248900000000        7.94972800000000
H           16.97744700000000       -2.79712500000000        8.93177200000000
H           15.84399100000000       -0.27775600000000        9.98392100000000
H           17.62447000000000       -0.50406700000000        9.88495300000000
H           16.62789700000000       -1.58510200000000       10.87361500000000
H           16.93628200000000       -3.39383800000000        6.67370600000000
H           17.14932600000000       -2.61449100000000        4.34472100000000
H           14.21729400000000       -0.28021000000000        4.09393000000000
H           12.63191600000000        0.37922100000000        2.15075900000000
C           34.55188400000000        1.14645000000000        0.11768700000000
C           33.65228300000000        1.59690200000000        1.30553900000000
C           33.74131100000000        2.78587100000000        2.00198400000000
C           32.65411500000000        2.80926900000000        2.91533500000000
C           31.97553500000000        1.61288100000000        2.77650300000000
N           32.54563800000000        0.91481800000000        1.73841600000000
C           30.68343200000000        1.12864200000000        3.56556400000000
C           30.81148700000000        0.87893000000000        5.02908200000000
C           30.50864300000000       -0.38289300000000        5.56073400000000
C           30.74189800000000       -0.68996700000000        6.90502600000000
C           31.35706800000000        0.23553500000000        7.74421800000000
N           31.70353300000000       -0.08343000000000        9.08066600000000
C           32.57601000000000       -1.24678300000000        9.16648800000000
C           31.62053800000000        1.51501500000000        7.24146000000000
C           31.34872500000000        1.82721000000000        5.90129700000000
C           29.57905400000000        0.81712400000000        2.82909200000000
C           28.30338200000000        0.48064500000000        3.42821500000000
C           27.44607900000000        0.19149200000000        2.45507300000000
N           29.40622300000000        0.73580300000000        1.47148700000000
C           28.13733600000000        0.30668800000000        1.18162800000000
C           27.54502800000000        0.00020300000000        0.00005700000000
C           28.37168900000000        0.00475400000000       -1.36974900000000
C           27.83847300000000       -0.16323200000000       -2.63006500000000
C           28.91441700000000       -0.23256600000000       -3.55088200000000
C           30.07830000000000       -0.12499500000000       -2.82323100000000
N           29.74093600000000        0.08710100000000       -1.50339900000000
C           31.55070200000000       -0.26143900000000       -3.42129900000000
C           31.68484500000000       -0.79695700000000       -4.79628900000000
C           31.92141500000000        0.06606600000000       -5.87244500000000
C           32.03529800000000       -0.43557100000000       -7.17285200000000
C           31.88490800000000       -1.80576800000000       -7.43643200000000
N           32.05606300000000       -2.37367600000000       -8.71327700000000
C           31.86950900000000       -1.51902300000000       -9.87209400000000
C           31.66500000000000       -2.65705800000000       -6.34513800000000
C           31.54943100000000       -2.16003200000000       -5.04265400000000
C           32.62872400000000        0.06380100000000       -2.66479600000000
C           33.99966600000000       -0.09866100000000       -3.12086400000000
C           34.81746900000000        0.29063100000000       -2.14489800000000
C           33.99760899999999        0.70827900000000       -1.02835000000000
N           32.69728400000000        0.55390300000000       -1.39314400000000
H           35.62557699999999        1.19139300000000        0.23069900000000
H           34.47140500000000        3.56632000000000        1.84075700000000
H           32.39690500000000        3.61804200000000        3.58743100000000
H           32.11444200000000        0.14500500000000        1.24253100000000
H           30.11678300000000       -1.15536300000000        4.89687200000000
H           30.46194500000000       -1.67193800000000        7.26638800000000
H           32.12970700000000        0.72903500000000        9.51756800000000
H           33.43880800000000       -1.15632700000000        8.49551900000000
H           32.95891500000000       -1.33714800000000       10.18464200000000
H           32.03925300000000       -2.17543800000000        8.93636300000000
H           32.10293300000000        2.25928100000000        7.86452300000000
H           31.57436900000000        2.82076500000000        5.52728000000000
H           28.07867700000000        0.49669400000000        4.47481900000000
H           26.41793900000000       -0.08299600000000        2.60851500000000
H           26.79082500000000       -0.26122300000000       -2.86984200000000
H           28.84067600000000       -0.39785900000000       -4.61402600000000
H           30.40393700000000        0.24607600000000       -0.74579100000000
H           32.01825400000000        1.13632000000000       -5.68172900000000
H           32.22890900000000        0.27661200000000       -7.97404900000000
H           31.54549700000000       -3.24851300000000       -8.77755100000000
H           32.67895300000000       -0.78601600000000       -9.95668100000000
H           30.89847400000000       -1.00699200000000       -9.84631300000000
H           31.89504700000000       -2.13699000000000      -10.77861800000000
H           31.58666200000000       -3.72941500000000       -6.49201800000000
H           31.37361900000000       -2.83243200000000       -4.20576100000000
H           34.30565099999999       -0.48840500000000       -4.07421400000000
H           35.89102900000000        0.26916300000000       -2.16716000000000
C           23.52598100000000        0.01237400000000        0.00242400000000
C           22.27371000000000       -0.00680700000000       -0.00192400000000
C           24.83964900000000        0.01160800000000        0.00435600000000
C           26.34278300000000       -0.00680700000000       -0.00192400000000
138
 energy: -219.297343005012 gnorm: 0.309275299511 xtb: 6.5.1 (b24c23e)
C           14.00250588305303        1.14127571432489       -0.20236068378372
C           14.86907885395716        1.52838464643029       -1.37080725849583
C           14.78419881768977        2.67399337377500       -2.14483458517940
C           15.86336950683315        2.64714283283159       -3.06037770058999
C           16.56516408747517        1.46960479728858       -2.85533335025471
N           15.98115693690473        0.83075542539254       -1.78262528169655
C           17.81135249884752        0.94327163166635       -3.59724327660453
C           17.70085267182263        0.62449299111630       -5.05365314241042
C           18.01561972983925       -0.66164820652638       -5.52890936900698
C           17.78025686855351       -1.03803023658506       -6.84997797998570
C           17.16825386955011       -0.15417356860403       -7.73903136775425
N           16.82113512869709       -0.54549225297493       -9.05249856968825
C           15.94442296478991       -1.71475407795680       -9.09348146753707
C           16.90166294106248        1.14601982136825       -7.29964169103042
C           17.17000380642051        1.52436789800293       -5.98497023724929
C           18.93924861182077        0.66477401386640       -2.86623492755844
C           20.21779645030351        0.30249040981056       -3.46155075751108
C           21.07830451269106        0.06422767143734       -2.46540982488515
N           19.09964759054768        0.64872366332742       -1.49663000857976
C           20.35645823986085        0.24830459944863       -1.21211869714127
C           20.95653558129762        0.03354731722019        0.03664825396307
C           20.15091652819036        0.07448750878734        1.35719377540299
C           20.67967528964086       -0.03425361391862        2.63545767243361
C           19.60815915471059       -0.06079807127617        3.55243271317797
C           18.42459293287478        0.01885335445406        2.82847277574370
N           18.77940334176785        0.15162501209717        1.49718135713619
C           17.01127478538920       -0.08099167308736        3.40742015942984
C           16.85765117418953       -0.54369975470238        4.82078114821309
C           16.60241055283355        0.36215309137137        5.85908709144144
C           16.48879477376390       -0.06743949017199        7.18025694645054
C           16.63332771563754       -1.42188305216388        7.51100844067076
N           16.46934063210026       -1.92061788832794        8.81323386456777
C           16.65571547813299       -1.01475384445876        9.93812135140023
C           16.85774903877964       -2.32829074032758        6.46619694891143
C           16.97589805264502       -1.89688750455586        5.14702430417711
C           15.89666403301026        0.20101749394446        2.64868774939799
C           14.52262552084492        0.05717188581760        3.13074737819828
C           13.70047773621783        0.39549920447660        2.13095175893372
C           14.53408942364799        0.75170255443541        0.99076067562737
N           15.84242615094036        0.62123276815203        1.35281738466178
H           12.91958481448298        1.19155503883209       -0.30384208048908
H           14.05524330935129        3.46290609494871       -2.02471312942909
H           16.12021760612586        3.42419277301112       -3.76676027019373
H           16.40647998599945        0.08173046698226       -1.25369630124320
H           18.40817914234686       -1.40032849928652       -4.83393622450682
H           18.05741174830613       -2.03793835576103       -7.16833133477428
H           16.39185977419241        0.23939276121911       -9.53913525060154
H           15.08486786226958       -1.58865171280253       -8.42397346022531
H           15.56755425466996       -1.85130763692437      -10.10772077679008
H           16.48581241946546       -2.62182525046330       -8.81222672147826
H           16.42511405222024        1.85637721881235       -7.96814152797955
H           16.94627293623986        2.53628990863429       -5.66735135665620
H           20.44145381877553        0.26854267348601       -4.50933894296579
H           22.11051279602250       -0.21750448251398       -2.59165988618913
H           21.72866312676241       -0.11300466819882        2.87998119262627
H           19.68446983691171       -0.16165150854031        4.62449872666607
H           18.12059137787276        0.28243703963219        0.73468147728054
H           16.50443936375575        1.41909630096051        5.62054012184200
H           16.29477941380832        0.67858747792064        7.94693489391230
H           16.97471050653605       -2.79377528939047        8.93149685619782
H           15.84758078509709       -0.27963297546748        9.97923903386138
H           17.62316900593298       -0.50079132426896        9.88416409114458
H           16.62669184350329       -1.58881514807288       10.86894610624289
H           16.93744812803851       -3.39133764600163        6.67496058643259
H           17.14995420914141       -2.61460079048568        4.35022014616079
H           14.22210837964337       -0.28210975963735        4.10567233874414
H           12.62485413069570        0.38166620231239        2.14819556111117
C           34.52058559143438        1.15000705622504        0.14402261703215
C           33.65381325771497        1.59632002075775        1.29133826300025
C           33.73862011130949        2.77980746558525        2.00578741124265
C           32.65944573348298        2.79959310012691        2.92172693762082
C           31.95782661442707        1.61322951191722        2.77686528921257
N           32.54192420871404        0.92041901754763        1.73817500165244
C           30.71140339699640        1.12515930210552        3.54436799474867
C           30.82205694548534        0.88109898864301        5.01529171752282
C           30.50729474989053       -0.37913872339117        5.55552847443962
C           30.74271908281671       -0.68772210991375        6.89405167061323
C           31.35470105586103        0.24028714670025        7.73696913188384
N           31.70185985509070       -0.08357878461714        9.06854652856906
C           32.57851394237694       -1.24928863836263        9.16914997159749
C           31.62122585073611        1.51643270619230        7.23184827921689
C           31.35296513591756        1.82727572073301        5.89958289235376
C           29.58338079074104        0.81054039775263        2.82929488842485
C           28.30598283928936        0.47859690404725        3.44285845769360
C           27.44546103370262        0.18855014656912        2.46005969992815
N           29.42071290340020        0.72468829047833        1.46064843634453
C           28.16615081394353        0.30884376687985        1.20151768053430
C           27.55142122321188        0.03145213437267       -0.03812776672976
C           28.37351482190666        0.00435855791122       -1.36258414636525
C           27.84363693922690       -0.16846530334880       -2.63066805469311
C           28.91571835212890       -0.24159074349290       -3.54520389268027
C           30.09863433653019       -0.12521810975351       -2.82652153044620
N           29.74438935613114        0.07482996899071       -1.50369102676513
C           31.51247539124522       -0.25447575135427       -3.39904437375370
C           31.66549972672091       -0.78865270580318       -4.78680124425964
C           31.92056588540996        0.06319228551158       -5.86985704122954
C           32.03414849435407       -0.43314547026428       -7.16740434646711
C           31.88961712385097       -1.80268430143657       -7.42870805172952
N           32.05360350005121       -2.36710838310673       -8.70382631550047
C           31.86722808923285       -1.51972374566832       -9.87339853656954
C           31.66518235123363       -2.65470385001817       -6.33908630012908
C           31.54705073715982       -2.15667236050768       -5.04361978537947
C           32.62641710763272        0.06584673809862       -2.65556661325779
C           34.00043770278350       -0.10239431469781       -3.12949436652783
C           34.82247906962951        0.28645118143586       -2.14823309583213
C           33.98885054434570        0.70035549944914       -1.02766775940426
N           32.68050144834316        0.55155487190919       -1.38247547320400
H           35.60344464161185        1.20536532082160        0.24289594366735
H           34.46766312805924        3.56153224239933        1.84579172623187
H           32.40268878207745        3.61162333088522        3.58763332664239
H           32.11660562667689        0.14546823402786        1.24801739932261
H           30.11476498245131       -1.15226908968548        4.89910097261772
H           30.46553486252352       -1.67009360109265        7.26294276428063
H           32.13106675744881        0.72506083019335        9.51467027881481
H           33.43806791877584       -1.15743641072973        8.49410584152406
H           32.95536862167657       -1.33395785709472       10.18902983481589
H           32.03712454531559       -2.16950066159745        8.93447768028758
H           32.09779787766276        2.25990795321428        7.86329182607980
H           31.57666421842071        2.82171744784047        5.53087733451029
H           28.08177173856133        0.49819584528881        4.49054991500447
H           26.41258450517916       -0.08519995445520        2.59924728195482
H           26.79432034177897       -0.25956844782372       -2.87002162229262
H           28.83872296183288       -0.39708632187863       -4.61045725506355
H           30.40252772209672        0.24457475908105       -0.74826898878456
H           32.01851734330103        1.13091402652863       -5.68542036838807
H           32.22816370422445        0.27285951290915       -7.97107836709304
H           31.54823169448805       -3.24515548696564       -8.77745077219750
H           32.67536343541091       -0.78765235444714       -9.95191041020413
H           30.89977541935274       -1.00368176626888       -9.84569140140291
H           31.89625185127450       -2.14046071440699      -10.77376743036110
H           31.58549505012891       -3.72699998492597       -6.49341118647667
H           31.37300153480092       -2.83283153205146       -4.21125641008453
H           34.30091203930781       -0.49091332724463       -4.08585931901136
H           35.89810091331604        0.27173666591400       -2.16471552296620
C           23.57387300147807        0.00452268749060        0.00750149496921
C           22.30332449844336       -0.00522770917913        0.03454287258589
C           24.88605809547100       -0.00014101694546       -0.00326079885043
C           26.22933957688996       -0.00293771814659       -0.03262570453718
138
 energy: -219.361184620481 gnorm: 0.199741732798 xtb: 6.5.1 (b24c23e)
C           14.04767758066944        1.14484635252931       -0.23083287887975
C           14.87232461274760        1.52663578855635       -1.35288908196552
C           14.78602383371445        2.66304419475106       -2.15606222002143
C           15.85334811121649        2.63257772945181       -3.06988979948659
C           16.58581247203450        1.46533973111062       -2.85654710769888
N           15.99450991688600        0.84051030167700       -1.77603786924437
C           17.77837800629797        0.93998945765648       -3.56745285111053
C           17.68749621856848        0.63030922413161       -5.03467289155171
C           18.01399343547936       -0.65420403723594       -5.51855429735395
C           17.77860040950233       -1.03275073218635       -6.83467273163823
C           17.16824858473131       -0.14907817095444       -7.72892361786721
N           16.82291374559782       -0.54377646440711       -9.03705950976345
C           15.94299239059981       -1.71737047284668       -9.09418017153361
C           16.90114085285186        1.14920098251484       -7.28776220554296
C           17.16354209583913        1.52573818768167       -5.97880430671306
C           18.93317447529800        0.64567926321505       -2.86211716564431
C           20.21451636176056        0.29665702485355       -3.46763097030056
C           21.08040390883235        0.06289375327473       -2.46234102527611
N           19.08888509439466        0.62755290774881       -1.48248324661007
C           20.33917345793573        0.25130680502495       -1.21654750275439
C           20.94220650237691        0.07383533373386        0.08248919401212
C           20.15758831710555        0.07918766393879        1.33167181771877
C           20.67248984875816       -0.04042449800899        2.63629493673539
C           19.61244522583155       -0.07502281209551        3.54022688929380
C           18.39949879439111        0.01348509204756        2.82517252359714
N           18.78015687075292        0.14203967331070        1.49076013603065
C           17.06721813016553       -0.07491863970777        3.37342827192764
C           16.88544620888944       -0.53258656336584        4.80500151840249
C           16.60840887065567        0.35984303628042        5.85109241072496
C           16.48935173081103       -0.06491050940095        7.17028526059577
C           16.62971870268979       -1.41801415534092        7.50103722930066
N           16.47380279132684       -1.91288114015992        8.80001129979935
C           16.65823676755882       -1.01417596055529        9.93693239832217
C           16.85737412760105       -2.32438875061869        6.45643549732499
C           16.98201213770630       -1.88998513994725        5.14405895458340
C           15.90314376138224        0.19864563626695        2.63619002748799
C           14.52905384493663        0.05375936126038        3.13694439223901
C           13.70095339923219        0.38897252308437        2.13179223387670
C           14.54402309137826        0.73709746148818        0.98912337805947
N           15.85922622059082        0.61006213200265        1.34425221996158
H           12.95669699698906        1.21579127505860       -0.31614484255670
H           14.06049702108157        3.45513506342659       -2.03373599332923
H           16.11067954467514        3.41504450424766       -3.76848430396285
H           16.40948484235043        0.08040621288122       -1.25705965217455
H           18.41187039014068       -1.39512548079881       -4.83303682899016
H           18.05225667411580       -2.03273243970851       -7.16153315577135
H           16.39037455545475        0.23472467884893       -9.53370860115249
H           15.08514966739632       -1.59068567380021       -8.42308782892385
H           15.57475932972526       -1.84483585995326      -10.11194253041655
H           16.48927712758864       -2.61654240577724       -8.80998171935050
H           16.43333050542654        1.85786991401483       -7.96637115701000
H           16.94149452003007        2.53951583454811       -5.66926715216469
H           20.43415015141537        0.26981315863023       -4.52015974791871
H           22.11523523568664       -0.21823656030897       -2.57589099982482
H           21.72233813999007       -0.11055610208229        2.88217419489961
H           19.68872523268168       -0.16209643419738        4.61544129930810
H           18.12236322597515        0.28338342889172        0.73188266129265
H           16.50534515464555        1.41587229847908        5.62277341687983
H           16.29429524701733        0.67407439667653        7.94110516731657
H           16.97014050496598       -2.78974072333274        8.93020810284374
H           15.85097175426671       -0.28052838099358        9.97317075665124
H           17.62242058375305       -0.49653062223865        9.88313657120351
H           16.62524911897154       -1.59527809191982       10.85996440135755
H           16.93775736666650       -3.38635577280869        6.67470432446275
H           17.15331258389818       -2.61457330278885        4.35427882996769
H           14.23508721594630       -0.28170136439619        4.11717624137277
H           12.62254907118504        0.38561201112218        2.14242538655605
C           34.47542126433701        1.15509952900530        0.17228498259718
C           33.65064320489066        1.59362051743310        1.27356729889178
C           33.73685297547568        2.76940950432209        2.01762263518466
C           32.66924169074389        2.78550143623529        2.93178276993304
C           31.93689948348500        1.60899422236472        2.77790516040382
N           32.52861708755134        0.92971279199380        1.73105869567548
C           30.74327693108518        1.11993840602914        3.51333215138315
C           30.83507648552081        0.88591386042272        4.99536275629255
C           30.50897140679641       -0.37220086713414        5.54458316064148
C           30.74436410934759       -0.68315457245078        6.87836938136119
C           31.35469418120120        0.24488660315889        7.72649520747713
N           31.70005689522064       -0.08261528959741        9.05299984672523
C           32.57993984836298       -1.25181883771682        9.16996395191029
C           31.62170627887116        1.51895829800311        7.21954658491753
C           31.35919592598304        1.82822739484550        5.89296497073648
C           29.58814383676898        0.79046469287950        2.82390809557761
C           28.30837290093244        0.47266526859288        3.44819896186773
C           27.44102478383561        0.18684486195295        2.45716569719929
N           29.42701420760335        0.70167551379151        1.44419711600169
C           28.17607274234323        0.31267336868008        1.20218130312034
C           27.54894873033367        0.06961279227790       -0.08346263602195
C           28.35864103686612        0.01113736348740       -1.33421393336421
C           27.84816606364416       -0.17500542897556       -2.63095627378049
C           28.91020955906193       -0.25526353266291       -3.53156775704856
C           30.12118568709970       -0.13045916150892       -2.82055096471962
N           29.73778264838968        0.06556458549593       -1.49387179619141
C           31.45523617962222       -0.24661508700403       -3.36465803711069
C           31.63729905773918       -0.77660676907684       -4.77124275691381
C           31.91451997996225        0.06130852936591       -5.86156678836259
C           32.03357007844362       -0.43008561021025       -7.15746152284156
C           31.89321330821804       -1.79827184938548       -7.41889911339841
N           32.04914212400520       -2.35867066308229       -8.69098281639952
C           31.86471202542157       -1.51906765690366       -9.87222951988768
C           31.66556386018247       -2.65023124953502       -6.32946150114748
C           31.54090433802258       -2.14954298869901       -5.04088645620901
C           32.61942580594069        0.06411588899623       -2.64281138409228
C           33.99368360280737       -0.10609162248341       -3.13548866585251
C           34.82187798469763        0.27989544140403       -2.14877372206380