      -----------------------------------------------------------      
     |                   =====================                   |     
     |                           x T B                           |     
     |                   =====================                   |     
     |                         S. Grimme                         |     
     |          Mulliken Center for Theoretical Chemistry        |     
     |                    University of Bonn                     |     
      -----------------------------------------------------------      

   * xtb version 6.5.1 (b24c23e) compiled by 'conda@728c89f4b128' on 2022-07-12

   xtb is free software: you can redistribute it and/or modify it under
   the terms of the GNU Lesser General Public License as published by
   the Free Software Foundation, either version 3 of the License, or
   (at your option) any later version.
   
   xtb is distributed in the hope that it will be useful,
   but WITHOUT ANY WARRANTY; without even the implied warranty of
   MERCHANTABILITY or FITNESS FOR A PARTICULAR PURPOSE.  See the
   GNU Lesser General Public License for more details.
   
   Cite this work as:
   * C. Bannwarth, E. Caldeweyher, S. Ehlert, A. Hansen, P. Pracht,
     J. Seibert, S. Spicher, S. Grimme, WIREs Comput. Mol. Sci., 2020, 11,
     e01493. DOI: 10.1002/wcms.1493
   
   for GFN2-xTB:
   * C. Bannwarth, S. Ehlert and S. Grimme., J. Chem. Theory Comput., 2019,
     15, 1652-1671. DOI: 10.1021/acs.jctc.8b01176
   for GFN1-xTB:
   * S. Grimme, C. Bannwarth, P. Shushkov, J. Chem. Theory Comput., 2017,
     13, 1989-2009. DOI: 10.1021/acs.jctc.7b00118
   for GFN0-xTB:
   * P. Pracht, E. Caldeweyher, S. Ehlert, S. Grimme, ChemRxiv, 2019, preprint.
     DOI: 10.26434/chemrxiv.8326202.v1
   for GFN-FF:
   * S. Spicher and S. Grimme, Angew. Chem. Int. Ed., 2020, 59, 15665-15673.
     DOI: 10.1002/anie.202004239
   
   for ALPB and GBSA implicit solvation:
   * S. Ehlert, M. Stahn, S. Spicher, S. Grimme, J. Chem. Theory Comput.,
     2021, 17, 4250-4261. DOI: 10.1021/acs.jctc.1c00471
   
   for DFT-D4:
   * E. Caldeweyher, C. Bannwarth and S. Grimme, J. Chem. Phys., 2017,
     147, 034112. DOI: 10.1063/1.4993215
   * E. Caldeweyher, S. Ehlert, A. Hansen, H. Neugebauer, S. Spicher,
     C. Bannwarth and S. Grimme, J. Chem. Phys., 2019, 150, 154122.
     DOI: 10.1063/1.5090222
   * E. Caldeweyher, J.-M. Mewes, S. Ehlert and S. Grimme, Phys. Chem. Chem. Phys.
     2020, 22, 8499-8512. DOI: 10.1039/D0CP00502A
   
   for sTDA-xTB:
   * S. Grimme and C. Bannwarth, J. Chem. Phys., 2016, 145, 054103.
     DOI: 10.1063/1.4959605
   
   in the mass-spec context:
   * V. Asgeirsson, C. Bauer and S. Grimme, Chem. Sci., 2017, 8, 4879.
     DOI: 10.1039/c7sc00601b
   * J. Koopman and S. Grimme, ACS Omega 2019, 4, 12, 15120-15133.
     DOI: 10.1021/acsomega.9b02011
   
   for metadynamics refer to:
   * S. Grimme, J. Chem. Theory Comput., 2019, 155, 2847-2862
     DOI: 10.1021/acs.jctc.9b00143
   
   for SPH calculations refer to:
   * S. Spicher and S. Grimme, J. Chem. Theory Comput., 2021, 17, 1701-1714
     DOI: 10.1021/acs.jctc.0c01306
   
   with help from (in alphabetical order)
   P. Atkinson, C. Bannwarth, F. Bohle, G. Brandenburg, E. Caldeweyher
   M. Checinski, S. Dohm, S. Ehlert, S. Ehrlich, I. Gerasimov, C. Hölzer
   A. Katbashev, J. Koopman, C. Lavigne, S. Lehtola, F. März, M. Müller,
   F. Musil, H. Neugebauer, J. Pisarek, C. Plett, P. Pracht, F. Pultar,
   J. Seibert, P. Shushkov, S. Spicher, M. Stahn, M. Steiner, T. Strunk,
   J. Stückrath, T. Rose, and J. Unsleber
   
 * started run on 2022/07/30 at 03:14:22.232     

           -------------------------------------------------
          |                Calculation Setup                |
           -------------------------------------------------

          program call               : xtb xtbopt.xyz --gfn 1 --vipea
          hostname                   : cx3-15-11.cx3.hpc.ic.ac.uk
          coordinate file            : xtbopt.xyz
          omp threads                :                     1

   ID    Z sym.   atoms
    1   28 Ni     1, 67, 145
    2    6 C      2-6, 8-12, 14-19, 21-26, 28-32, 34-40, 68-72, 74-78, 80-85,
                  87-92, 94-98, 100-106, 133-144, 146-150, 152-156, 158-163,
                  165-170, 172-176, 178-184
    3    7 N      7, 13, 20, 27, 33, 41, 73, 79, 86, 93, 99, 107, 151, 157,
                  164, 171, 177, 185
    4    1 H      42-66, 108-132, 186-209

           -------------------------------------------------
          |                 I P E A - x T B                 |
           -------------------------------------------------

        Reference                      10.1039/c7sc00601b
      * Hamiltonian:
        H0-scaling (s, p, d)           2.150000    2.300000    2.000000
        zeta-weighting                 0.000000
      * Dispersion:
        s8                             2.400000
        a1                             0.630000
        a2                             5.000000
        s9                             0.000000
      * Repulsion:
        kExp                           1.500000
        rExp                           1.000000
      * Coulomb:
        alpha                          1.000000
        third order                    atomic
        anisotropic                    false
      * Halogen bond correction:
        rad-scale                      1.300000
        damping                        0.440000


          ...................................................
          :                      SETUP                      :
          :.................................................:
          :  # basis functions                 838          :
          :  # atomic orbitals                 835          :
          :  # shells                          553          :
          :  # electrons                       650          :
          :  # halogen bonds                     0          :
          :  max. iterations                   250          :
          :  Hamiltonian                  GFN1-xTB          :
          :  restarted?                      false          :
          :  GBSA solvation                  false          :
          :  PC potential                    false          :
          :  electronic temp.          300.0000000     K    :
          :  accuracy                    1.0000000          :
          :  -> integral cutoff          0.2500000E+02      :
          :  -> integral neglect         0.1000000E-07      :
          :  -> SCF convergence          0.1000000E-05 Eh   :
          :  -> wf. convergence          0.2000000E-04 e    :
          :  Broyden damping             0.4000000          :
          ...................................................

 iter      E             dE          RMSdq      gap      omega  full diag
   1   -402.5655201 -0.402566E+03  0.101E+01    1.03       0.0  T
   2   -403.1805899 -0.615070E+00  0.628E+00    1.03       1.0  T
   3   -397.3798288  0.580076E+01  0.442E+00    0.81       1.0  T
   4   -403.8799373 -0.650011E+01  0.946E-01    1.43       1.0  T
   5   -404.2995991 -0.419662E+00  0.241E-01    1.24       1.0  T
   6   -404.3255963 -0.259972E-01  0.801E-02    1.28       1.0  T
   7   -404.3275393 -0.194306E-02  0.470E-02    1.28       1.0  T
   8   -404.3283853 -0.845952E-03  0.204E-02    1.28       1.0  T
   9   -404.3284477 -0.624201E-04  0.136E-02    1.28       1.0  T
  10   -404.3284913 -0.436159E-04  0.574E-03    1.28       1.2  T
  11   -404.3284972 -0.588009E-05  0.336E-03    1.28       2.1  T
  12   -404.3285020 -0.482897E-05  0.824E-04    1.28       8.4  T
  13   -404.3285023 -0.260986E-06  0.273E-04    1.28      25.3  T
  14   -404.3285023 -0.258867E-07  0.957E-05    1.28      72.3  T
  15   -404.3285023 -0.341555E-08  0.334E-05    1.28     206.9  T

   *** convergence criteria satisfied after 15 iterations ***

         #    Occupation            Energy/Eh            Energy/eV
      -------------------------------------------------------------
         1        2.0000           -1.0349446             -28.1623
       ...           ...                  ...                  ...
       319        2.0000           -0.3711445             -10.0994
       320        2.0000           -0.3710258             -10.0961
       321        2.0000           -0.3708919             -10.0925
       322        2.0000           -0.3706637             -10.0863
       323        2.0000           -0.3705292             -10.0826
       324        2.0000           -0.3672022              -9.9921
       325        2.0000           -0.3596675              -9.7871 (HOMO)
       326                         -0.3126779              -8.5084 (LUMO)
       327                         -0.3010508              -8.1920
       328                         -0.2941394              -8.0039
       329                         -0.2933237              -7.9817
       330                         -0.2929703              -7.9721
       ...                                ...                  ...
       835                        533.9332723           14529.0639
      -------------------------------------------------------------
                  HL-Gap            0.0469896 Eh            1.2787 eV
             Fermi-level           -0.3361727 Eh           -9.1477 eV

 SCC (total)                   0 d,  0 h,  0 min,  8.938 sec
 SCC setup                      ...        0 min,  0.012 sec (  0.131%)
 Dispersion                     ...        0 min,  0.014 sec (  0.161%)
 classical contributions        ...        0 min,  0.005 sec (  0.056%)
 integral evaluation            ...        0 min,  0.961 sec ( 10.752%)
 iterations                     ...        0 min,  5.797 sec ( 64.854%)
 molecular gradient             ...        0 min,  2.062 sec ( 23.070%)
 printout                       ...        0 min,  0.087 sec (  0.976%)

         :::::::::::::::::::::::::::::::::::::::::::::::::::::
         ::                     SUMMARY                     ::
         :::::::::::::::::::::::::::::::::::::::::::::::::::::
         :: total energy            -396.393246832049 Eh    ::
         :: gradient norm              0.065315049733 Eh/a0 ::
         :: HOMO-LUMO gap              1.278653317457 eV    ::
         ::.................................................::
         :: SCC energy              -404.328502320575 Eh    ::
         :: -> electrostatic           0.254939175688 Eh    ::
         :: repulsion energy           8.114943976405 Eh    ::
         :: dispersion energy         -0.179688487879 Eh    ::
         :: halogen bond corr.         0.000000000000 Eh    ::
         :: add. restraining           0.000000000000 Eh    ::
         :: total charge              -0.000000000000 e     ::
         :::::::::::::::::::::::::::::::::::::::::::::::::::::

           ------------------------------------------------- 
          |        vertical delta SCC IP calculation        |
           ------------------------------------------------- 
   1   -403.9366093 -0.403937E+03  0.917E-02    1.28       0.0  T
   2   -403.9371084 -0.499087E-03  0.939E-02    1.18       1.0  T
   3   -403.9433074 -0.619902E-02  0.422E-02    1.24       1.0  T
   4   -403.9419758  0.133158E-02  0.435E-02    1.23       1.0  T
   5   -403.9428182 -0.842360E-03  0.324E-02    1.23       1.0  T
   6   -403.9437337 -0.915551E-03  0.198E-02    1.23       1.0  T
   7   -403.9440023 -0.268545E-03  0.106E-02    1.23       1.0  T
   8   -403.9440600 -0.577443E-04  0.320E-03    1.23       2.2  T
   9   -403.9440636 -0.361605E-05  0.151E-03    1.23       4.6  T
  10   -403.9440640 -0.401115E-06  0.826E-04    1.23       8.4  T
  11   -403.9440643 -0.231118E-06  0.303E-04    1.23      22.9  T
  12   -403.9440643 -0.263498E-07  0.145E-04    1.23      47.6  T
  13   -403.9440643 -0.565950E-08  0.755E-05    1.23      91.7  T
     SCC iter.                  ...        0 min,  5.079 sec
     gradient                   ...        0 min,  2.069 sec
------------------------------------------------------------------------
empirical IP shift (eV):    4.8455
delta SCC IP (eV):    5.6156
------------------------------------------------------------------------
           ------------------------------------------------- 
          |        vertical delta SCC EA calculation        |
           ------------------------------------------------- 
   1   -404.5875594 -0.404588E+03  0.172E-01    0.38       0.0  T
   2   -404.5975586 -0.999919E-02  0.158E-01    0.14       1.0  T
   3   -404.6114228 -0.138642E-01  0.821E-02    0.24       1.0  T
   4   -404.6125280 -0.110525E-02  0.606E-02    0.21       1.0  T
   5   -404.6128054 -0.277426E-03  0.386E-02    0.21       1.0  T
   6   -404.6119543  0.851104E-03  0.383E-02    0.21       1.0  T
   7   -404.6127355 -0.781155E-03  0.220E-02    0.22       1.0  T
   8   -404.6132611 -0.525603E-03  0.851E-03    0.21       1.0  T
   9   -404.6133216 -0.605039E-04  0.308E-03    0.21       2.2  T
  10   -404.6133242 -0.264314E-05  0.125E-03    0.21       5.5  T
  11   -404.6133248 -0.549121E-06  0.441E-04    0.21      15.7  T
  12   -404.6133248 -0.459458E-07  0.239E-04    0.21      29.0  T
  13   -404.6133249 -0.189277E-07  0.109E-04    0.21      63.4  T
  14   -404.6133249 -0.209809E-08  0.746E-05    0.21      92.8  T
     SCC iter.                  ...        0 min,  5.171 sec
     gradient                   ...        0 min,  2.047 sec
------------------------------------------------------------------------
empirical EA shift (eV):    4.8455
delta SCC EA (eV):    2.9049
------------------------------------------------------------------------
           -------------------------------------------------
          |                Property Printout                |
           -------------------------------------------------

    * Orbital Energies and Occupations

         #    Occupation            Energy/Eh            Energy/eV
      -------------------------------------------------------------
         1        2.0000           -0.9849320             -26.8014
       ...           ...                  ...                  ...
       314        2.0000           -0.3223820              -8.7725
       315        2.0000           -0.3223428              -8.7714
       316        2.0000           -0.3219591              -8.7610
       317        2.0000           -0.3218931              -8.7592
       318        2.0000           -0.3218416              -8.7578
       319        2.0000           -0.3217962              -8.7565
       320        2.0000           -0.3184587              -8.6657
       321        2.0000           -0.3170957              -8.6286
       322        2.0000           -0.3150097              -8.5719
       323        2.0000           -0.3143635              -8.5543
       324        2.0000           -0.3141987              -8.5498
       325        2.0000           -0.3055475              -8.3144
       326        0.9836           -0.2576702              -7.0116 (HOMO)
       327        0.0160           -0.2498645              -6.7992 (LUMO)
       328        0.0002           -0.2456065              -6.6833
       329        0.0002           -0.2455572              -6.6820
       330        0.0000           -0.2387640              -6.4971
       331                         -0.2381666              -6.4808
       332                         -0.2110292              -5.7424
       333                         -0.2029096              -5.5215
       334                         -0.2026706              -5.5149
       335                         -0.2025319              -5.5112
       336                         -0.1969843              -5.3602
       337                         -0.1957802              -5.3275
       ...                                ...                  ...
       835                        533.9859229           14530.4966
      -------------------------------------------------------------
                  HL-Gap            0.0078057 Eh            0.2124 eV
             Fermi-level           -0.2676935 Eh           -7.2843 eV

  Mulliken/CM5 charges         n(s)   n(p)   n(d)
     1Ni    0.26345  0.63852   0.574  0.790  8.373
     2C    -0.02817 -0.06945   1.079  2.950  0.000
     3C     0.05686  0.11738   1.111  2.833  0.000
     4C    -0.04184 -0.08832   1.083  2.959  0.000
     5C    -0.03680 -0.08298   1.080  2.957  0.000
     6C     0.05703  0.12099   1.103  2.840  0.000
     7N    -0.21272 -0.46538   1.315  3.898  0.000
     8C     0.00877  0.01410   1.086  2.905  0.000
     9C    -0.00486 -0.01361   1.074  2.931  0.000
    10C    -0.02580 -0.07896   1.079  2.946  0.000
    11C    -0.04063 -0.08899   1.070  2.970  0.000
    12C     0.06108  0.11395   1.092  2.847  0.000
    13N    -0.25137 -0.61102   1.311  3.941  0.000
    14C     0.00206 -0.08983   1.092  2.906  0.000
    15C    -0.03614 -0.08509   1.059  2.978  0.000
    16C    -0.02452 -0.07768   1.081  2.944  0.000
    17C     0.05641  0.11967   1.101  2.843  0.000
    18C    -0.03712 -0.08324   1.077  2.960  0.000
    19C    -0.03864 -0.08420   1.083  2.956  0.000
    20N    -0.20896 -0.46147   1.317  3.892  0.000
    21C     0.06165  0.12671   1.115  2.823  0.000
    22C     0.01336  0.02032   1.077  2.910  0.000
    23C     0.06173  0.12685   1.115  2.823  0.000
    24C    -0.03864 -0.08420   1.082  2.956  0.000
    25C    -0.03712 -0.08326   1.077  2.960  0.000
    26C     0.05634  0.11953   1.101  2.843  0.000
    27N    -0.20906 -0.46138   1.317  3.892  0.000
    28C     0.00876  0.01409   1.086  2.905  0.000
    29C    -0.00488 -0.01363   1.074  2.931  0.000
    30C    -0.02445 -0.07766   1.080  2.944  0.000
    31C    -0.03614 -0.08510   1.058  2.978  0.000
    32C     0.06109  0.11398   1.091  2.847  0.000
    33N    -0.25136 -0.61105   1.311  3.941  0.000
    34C     0.00206 -0.08982   1.092  2.906  0.000
    35C    -0.04067 -0.08903   1.071  2.970  0.000
    36C    -0.02590 -0.07901   1.080  2.946  0.000
    37C     0.05711  0.12113   1.103  2.840  0.000
    38C    -0.03683 -0.08297   1.080  2.957  0.000
    39C    -0.04184 -0.08832   1.084  2.958  0.000
    40C     0.05680  0.11725   1.111  2.833  0.000
    41N    -0.21261 -0.46544   1.315  3.898  0.000
    42H     0.01816  0.07710   0.982  0.000  0.000
    43H     0.02345  0.08005   0.977  0.000  0.000
    44H     0.01489  0.07383   0.985  0.000  0.000
    45H     0.01469  0.07272   0.985  0.000  0.000
    46H     0.02224  0.08153   0.978  0.000  0.000
    47H     0.16538  0.35856   0.835  0.000  0.000
    48H     0.03135  0.09156   0.969  0.000  0.000
    49H     0.02553  0.08694   0.974  0.000  0.000
    50H     0.03297  0.09426   0.967  0.000  0.000
    51H     0.02475  0.08455   0.975  0.000  0.000
    52H     0.01547  0.07348   0.985  0.000  0.000
    53H     0.01600  0.07493   0.984  0.000  0.000
    54H     0.02163  0.07973   0.978  0.000  0.000
    55H     0.02165  0.07975   0.978  0.000  0.000
    56H     0.01594  0.07491   0.984  0.000  0.000
    57H     0.01555  0.07358   0.984  0.000  0.000
    58H     0.02482  0.08463   0.975  0.000  0.000
    59H     0.16546  0.35864   0.835  0.000  0.000
    60H     0.02552  0.08693   0.974  0.000  0.000
    61H     0.03299  0.09429   0.967  0.000  0.000
    62H     0.03131  0.09152   0.969  0.000  0.000
    63H     0.02217  0.08146   0.978  0.000  0.000
    64H     0.01458  0.07258   0.985  0.000  0.000
    65H     0.01494  0.07385   0.985  0.000  0.000
    66H     0.02339  0.07999   0.977  0.000  0.000
    67Ni    0.26326  0.63803   0.574  0.790  8.373
    68C    -0.02830 -0.06958   1.078  2.950  0.000
    69C     0.05683  0.11733   1.111  2.833  0.000
    70C    -0.04189 -0.08837   1.083  2.958  0.000
    71C    -0.03687 -0.08303   1.080  2.957  0.000
    72C     0.05699  0.12096   1.103  2.840  0.000
    73N    -0.21274 -0.46535   1.315  3.898  0.000
    74C     0.00871  0.01404   1.086  2.906  0.000
    75C    -0.00480 -0.01355   1.074  2.931  0.000
    76C    -0.02580 -0.07893   1.079  2.946  0.000
    77C    -0.04059 -0.08895   1.070  2.970  0.000
    78C     0.06100  0.11382   1.092  2.847  0.000
    79N    -0.25149 -0.61105   1.311  3.941  0.000
    80C     0.00202 -0.08989   1.092  2.906  0.000
    81C    -0.03613 -0.08508   1.059  2.978  0.000
    82C    -0.02457 -0.07775   1.081  2.944  0.000
    83C     0.05635  0.11960   1.101  2.843  0.000
    84C    -0.03726 -0.08337   1.077  2.960  0.000
    85C    -0.03876 -0.08433   1.083  2.956  0.000
    86N    -0.20907 -0.46142   1.317  3.892  0.000
    87C     0.06159  0.12667   1.115  2.823  0.000
    88C     0.01318  0.02014   1.077  2.910  0.000
    89C     0.06165  0.12678   1.115  2.823  0.000
    90C    -0.03880 -0.08435   1.082  2.956  0.000
    91C    -0.03722 -0.08336   1.077  2.960  0.000
    92C     0.05625  0.11945   1.101  2.843  0.000
    93N    -0.20903 -0.46137   1.317  3.892  0.000
    94C     0.00873  0.01406   1.086  2.905  0.000
    95C    -0.00486 -0.01361   1.074  2.931  0.000
    96C    -0.02443 -0.07763   1.080  2.944  0.000
    97C    -0.03616 -0.08512   1.058  2.978  0.000
    98C     0.06105  0.11393   1.091  2.847  0.000
    99N    -0.25137 -0.61103   1.311  3.941  0.000
   100C     0.00204 -0.08984   1.092  2.906  0.000
   101C    -0.04070 -0.08906   1.070  2.970  0.000
   102C    -0.02590 -0.07903   1.080  2.946  0.000
   103C     0.05702  0.12101   1.103  2.840  0.000
   104C    -0.03686 -0.08300   1.080  2.957  0.000
   105C    -0.04189 -0.08837   1.083  2.958  0.000
   106C     0.05682  0.11729   1.111  2.833  0.000
   107N    -0.21272 -0.46545   1.315  3.898  0.000
   108H     0.01808  0.07703   0.982  0.000  0.000
   109H     0.02338  0.07998   0.977  0.000  0.000
   110H     0.01485  0.07377   0.985  0.000  0.000
   111H     0.01472  0.07273   0.985  0.000  0.000
   112H     0.02223  0.08152   0.978  0.000  0.000
   113H     0.16528  0.35844   0.835  0.000  0.000
   114H     0.03125  0.09147   0.969  0.000  0.000
   115H     0.02540  0.08680   0.975  0.000  0.000
   116H     0.03293  0.09422   0.967  0.000  0.000
   117H     0.02467  0.08447   0.975  0.000  0.000
   118H     0.01539  0.07338   0.985  0.000  0.000
   119H     0.01588  0.07484   0.984  0.000  0.000
   120H     0.02150  0.07962   0.978  0.000  0.000
   121H     0.02141  0.07949   0.979  0.000  0.000
   122H     0.01576  0.07471   0.984  0.000  0.000
   123H     0.01553  0.07357   0.984  0.000  0.000
   124H     0.02477  0.08458   0.975  0.000  0.000
   125H     0.16540  0.35858   0.835  0.000  0.000
   126H     0.02561  0.08703   0.974  0.000  0.000
   127H     0.03293  0.09422   0.967  0.000  0.000
   128H     0.03120  0.09140   0.969  0.000  0.000
   129H     0.02215  0.08145   0.978  0.000  0.000
   130H     0.01458  0.07257   0.985  0.000  0.000
   131H     0.01490  0.07384   0.985  0.000  0.000
   132H     0.02336  0.07997   0.977  0.000  0.000
   133C    -0.02283 -0.02292   1.078  2.945  0.000
   134C    -0.02623 -0.02632   1.074  2.952  0.000
   135C    -0.02674 -0.02745   1.064  2.962  0.000
   136C    -0.02572 -0.02736   1.089  2.937  0.000
   137C    -0.02971 -0.03041   1.062  2.968  0.000
   138C    -0.02205 -0.02367   1.094  2.928  0.000
   139C    -0.02652 -0.02662   1.074  2.952  0.000
   140C    -0.02311 -0.02321   1.077  2.946  0.000
   141C    -0.03002 -0.03073   1.062  2.968  0.000
   142C    -0.02225 -0.02388   1.094  2.928  0.000
   143C    -0.02696 -0.02768   1.064  2.963  0.000
   144C    -0.02591 -0.02755   1.089  2.937  0.000
   145Ni    0.26199  0.63612   0.573  0.788  8.377
   146C     0.00952  0.01650   1.074  2.917  0.000
   147C     0.06145  0.12658   1.116  2.823  0.000
   148C    -0.04065 -0.08621   1.082  2.959  0.000
   149C    -0.03724 -0.08338   1.078  2.959  0.000
   150C     0.05486  0.11809   1.099  2.846  0.000
   151N    -0.20994 -0.46224   1.316  3.894  0.000
   152C     0.01099  0.01628   1.087  2.902  0.000
   153C    -0.00417 -0.01291   1.074  2.930  0.000
   154C    -0.02481 -0.07797   1.080  2.945  0.000
   155C    -0.04023 -0.08857   1.071  2.969  0.000
   156C     0.06111  0.11405   1.091  2.848  0.000
   157N    -0.25106 -0.61085   1.310  3.941  0.000
   158C     0.00209 -0.08975   1.092  2.906  0.000
   159C    -0.03657 -0.08555   1.058  2.979  0.000
   160C    -0.02441 -0.07760   1.080  2.944  0.000
   161C     0.05470  0.11791   1.099  2.847  0.000
   162C    -0.03759 -0.08375   1.078  2.960  0.000
   163C    -0.04086 -0.08642   1.081  2.959  0.000
   164N    -0.21000 -0.46226   1.316  3.894  0.000
   165C     0.06137  0.12655   1.115  2.823  0.000
   166C     0.00938  0.01636   1.074  2.917  0.000
   167C     0.06130  0.12644   1.115  2.823  0.000
   168C    -0.04088 -0.08644   1.082  2.959  0.000
   169C    -0.03764 -0.08377   1.078  2.960  0.000
   170C     0.05475  0.11801   1.099  2.847  0.000
   171N    -0.20997 -0.46222   1.316  3.894  0.000
   172C     0.01098  0.01626   1.087  2.902  0.000
   173C    -0.00414 -0.01289   1.074  2.930  0.000
   174C    -0.02438 -0.07758   1.080  2.944  0.000
   175C    -0.03653 -0.08550   1.058  2.979  0.000
   176C     0.06107  0.11401   1.091  2.848  0.000
   177N    -0.25113 -0.61092   1.310  3.941  0.000
   178C     0.00210 -0.08976   1.092  2.906  0.000
   179C    -0.04023 -0.08858   1.071  2.969  0.000
   180C    -0.02488 -0.07800   1.080  2.945  0.000
   181C     0.05483  0.11802   1.099  2.846  0.000
   182C    -0.03723 -0.08338   1.078  2.959  0.000
   183C    -0.04061 -0.08617   1.081  2.959  0.000
   184C     0.06152  0.12668   1.115  2.823  0.000
   185N    -0.20997 -0.46228   1.316  3.894  0.000
   186H     0.01878  0.07685   0.981  0.000  0.000
   187H     0.01387  0.07280   0.986  0.000  0.000
   188H     0.01517  0.07321   0.985  0.000  0.000
   189H     0.02222  0.08154   0.978  0.000  0.000
   190H     0.16557  0.35875   0.834  0.000  0.000
   191H     0.02577  0.08724   0.974  0.000  0.000
   192H     0.02925  0.08939   0.971  0.000  0.000
   193H     0.03213  0.09343   0.968  0.000  0.000
   194H     0.02387  0.08368   0.976  0.000  0.000
   195H     0.01485  0.07291   0.985  0.000  0.000
   196H     0.01408  0.07306   0.986  0.000  0.000
   197H     0.01872  0.07681   0.981  0.000  0.000
   198H     0.01861  0.07670   0.981  0.000  0.000
   199H     0.01409  0.07305   0.986  0.000  0.000
   200H     0.01487  0.07292   0.985  0.000  0.000
   201H     0.02388  0.08368   0.976  0.000  0.000
   202H     0.16553  0.35873   0.834  0.000  0.000
   203H     0.02925  0.08943   0.971  0.000  0.000
   204H     0.03223  0.09353   0.968  0.000  0.000
   205H     0.02558  0.08701   0.974  0.000  0.000
   206H     0.02219  0.08150   0.978  0.000  0.000
   207H     0.01515  0.07316   0.985  0.000  0.000
   208H     0.01388  0.07283   0.986  0.000  0.000
   209H     0.01889  0.07699   0.981  0.000  0.000

Wiberg/Mayer (AO) data.
largest (>0.10) Wiberg bond orders for each atom

 ---------------------------------------------------------------------------
     #   Z sym  total        # sym  WBO       # sym  WBO       # sym  WBO
 ---------------------------------------------------------------------------
     1  28 Ni   3.340 --    41 N    0.716    20 N    0.716     7 N    0.716
                            27 N    0.715
     2   6 C    3.794 --    40 C    1.388     3 C    1.387    42 H    0.997
     3   6 C    3.946 --     2 C    1.387     7 N    1.254     4 C    1.205
     4   6 C    3.840 --     5 C    1.634     3 C    1.205    43 H    0.994
     5   6 C    3.832 --     4 C    1.634     6 C    1.213    44 H    0.999
     6   6 C    3.912 --     8 C    1.367     7 N    1.245     5 C    1.213
     7   7 N    3.003 --     3 C    1.254     6 C    1.245     1 Ni   0.716
     8   6 C    3.834 --     6 C    1.367    17 C    1.361     9 C    1.055
     9   6 C    3.878 --    16 C    1.416    10 C    1.405     8 C    1.055
    10   6 C    3.871 --    11 C    1.475     9 C    1.405    45 H    0.990
    11   6 C    3.875 --    10 C    1.475    12 C    1.371    46 H    0.990
    12   6 C    3.945 --    15 C    1.384    11 C    1.371    13 N    1.141
    13   7 N    3.027 --    12 C    1.141    47 H    0.973    14 C    0.971
    14   6 C    3.939 --    49 H    1.006    50 H    0.999    48 H    0.995
                            13 N    0.971
    15   6 C    3.847 --    16 C    1.460    12 C    1.384    51 H    0.991
    16   6 C    3.874 --    15 C    1.460     9 C    1.416    52 H    0.990
    17   6 C    3.899 --     8 C    1.361    20 N    1.238    18 C    1.224
    18   6 C    3.820 --    19 C    1.613    17 C    1.224    53 H    0.998
    19   6 C    3.832 --    18 C    1.613    21 C    1.233    54 H    0.999
    20   7 N    3.021 --    21 C    1.277    17 C    1.238     1 Ni   0.716
    21   6 C    3.918 --    22 C    1.291    20 N    1.277    19 C    1.233
    22   6 C    3.818 --    21 C    1.291    23 C    1.290   136 C    1.228
    23   6 C    3.918 --    22 C    1.290    27 N    1.278    24 C    1.233
    24   6 C    3.832 --    25 C    1.613    23 C    1.233    55 H    0.999
    25   6 C    3.820 --    24 C    1.613    26 C    1.224    56 H    0.998
    26   6 C    3.900 --    28 C    1.362    27 N    1.237    25 C    1.224
    27   7 N    3.021 --    23 C    1.278    26 C    1.237     1 Ni   0.715
    28   6 C    3.834 --    37 C    1.365    26 C    1.362    29 C    1.055
    29   6 C    3.878 --    30 C    1.416    36 C    1.405    28 C    1.055
    30   6 C    3.873 --    31 C    1.460    29 C    1.416    57 H    0.990
    31   6 C    3.847 --    30 C    1.460    32 C    1.384    58 H    0.991
    32   6 C    3.945 --    31 C    1.384    35 C    1.371    33 N    1.141
    33   7 N    3.027 --    32 C    1.141    59 H    0.973    34 C    0.971
    34   6 C    3.939 --    60 H    1.006    61 H    0.999    62 H    0.995
                            33 N    0.971
    35   6 C    3.876 --    36 C    1.476    32 C    1.371    63 H    0.990
    36   6 C    3.872 --    35 C    1.476    29 C    1.405    64 H    0.990
    37   6 C    3.912 --    28 C    1.365    41 N    1.246    38 C    1.213
    38   6 C    3.832 --    39 C    1.634    37 C    1.213    65 H    0.999
    39   6 C    3.841 --    38 C    1.634    40 C    1.205    66 H    0.994
    40   6 C    3.946 --     2 C    1.388    41 N    1.253    39 C    1.205
    41   7 N    3.003 --    40 C    1.253    37 C    1.246     1 Ni   0.716
    42   1 H    1.040 --     2 C    0.997
    43   1 H    1.029 --     4 C    0.994
    44   1 H    1.052 --     5 C    0.999
    45   1 H    1.057 --    10 C    0.990
    46   1 H    1.030 --    11 C    0.990
    47   1 H    1.032 --    13 N    0.973
    48   1 H    1.017 --    14 C    0.995
    49   1 H    1.047 --    14 C    1.006
    50   1 H    1.028 --    14 C    0.999
    51   1 H    1.034 --    15 C    0.991
    52   1 H    1.060 --    16 C    0.990
    53   1 H    1.049 --    18 C    0.998
    54   1 H    1.041 --    19 C    0.999
    55   1 H    1.041 --    24 C    0.999
    56   1 H    1.049 --    25 C    0.998
    57   1 H    1.060 --    30 C    0.990
    58   1 H    1.034 --    31 C    0.991
    59   1 H    1.032 --    33 N    0.973
    60   1 H    1.047 --    34 C    1.006
    61   1 H    1.028 --    34 C    0.999
    62   1 H    1.017 --    34 C    0.995
    63   1 H    1.031 --    35 C    0.990
    64   1 H    1.057 --    36 C    0.990
    65   1 H    1.051 --    38 C    0.999
    66   1 H    1.029 --    39 C    0.994
    67  28 Ni   3.339 --   107 N    0.716    73 N    0.716    86 N    0.715
                            93 N    0.715
    68   6 C    3.794 --   106 C    1.388    69 C    1.387   108 H    0.997
    69   6 C    3.946 --    68 C    1.387    73 N    1.254    70 C    1.205
    70   6 C    3.840 --    71 C    1.634    69 C    1.205   109 H    0.994
    71   6 C    3.832 --    70 C    1.634    72 C    1.213   110 H    0.999
    72   6 C    3.912 --    74 C    1.367    73 N    1.245    71 C    1.213
    73   7 N    3.003 --    69 C    1.254    72 C    1.245    67 Ni   0.716
    74   6 C    3.834 --    72 C    1.367    83 C    1.362    75 C    1.054
    75   6 C    3.879 --    82 C    1.416    76 C    1.406    74 C    1.054
    76   6 C    3.872 --    77 C    1.475    75 C    1.406   111 H    0.990
    77   6 C    3.876 --    76 C    1.475    78 C    1.372   112 H    0.990
    78   6 C    3.945 --    81 C    1.384    77 C    1.372    79 N    1.141
    79   7 N    3.026 --    78 C    1.141   113 H    0.973    80 C    0.971
    80   6 C    3.939 --   115 H    1.006   116 H    0.999   114 H    0.996
                            79 N    0.971
    81   6 C    3.847 --    82 C    1.460    78 C    1.384   117 H    0.991
    82   6 C    3.874 --    81 C    1.460    75 C    1.416   118 H    0.990
    83   6 C    3.899 --    74 C    1.362    86 N    1.238    84 C    1.224
    84   6 C    3.820 --    85 C    1.613    83 C    1.224   119 H    0.998
    85   6 C    3.832 --    84 C    1.613    87 C    1.233   120 H    0.999
    86   7 N    3.021 --    87 C    1.277    83 C    1.238    67 Ni   0.715
    87   6 C    3.918 --    88 C    1.291    86 N    1.277    85 C    1.233
    88   6 C    3.818 --    87 C    1.291    89 C    1.289   144 C    1.228
    89   6 C    3.918 --    88 C    1.289    93 N    1.278    90 C    1.234
    90   6 C    3.832 --    91 C    1.613    89 C    1.234   121 H    0.999
    91   6 C    3.820 --    90 C    1.613    92 C    1.224   122 H    0.998
    92   6 C    3.899 --    94 C    1.362    93 N    1.237    91 C    1.224
    93   7 N    3.021 --    89 C    1.278    92 C    1.237    67 Ni   0.715
    94   6 C    3.834 --   103 C    1.366    92 C    1.362    95 C    1.055
    95   6 C    3.878 --    96 C    1.416   102 C    1.405    94 C    1.055
    96   6 C    3.874 --    97 C    1.460    95 C    1.416   123 H    0.990
    97   6 C    3.847 --    96 C    1.460    98 C    1.384   124 H    0.991
    98   6 C    3.945 --    97 C    1.384   101 C    1.371    99 N    1.141
    99   7 N    3.027 --    98 C    1.141   125 H    0.973   100 C    0.971
   100   6 C    3.939 --   126 H    1.006   127 H    0.999   128 H    0.995
                            99 N    0.971
   101   6 C    3.876 --   102 C    1.475    98 C    1.371   129 H    0.990
   102   6 C    3.872 --   101 C    1.475    95 C    1.405   130 H    0.990
   103   6 C    3.912 --    94 C    1.366   107 N    1.246   104 C    1.213
   104   6 C    3.832 --   105 C    1.634   103 C    1.213   131 H    0.999
   105   6 C    3.840 --   104 C    1.634   106 C    1.205   132 H    0.994
   106   6 C    3.946 --    68 C    1.388   107 N    1.253   105 C    1.205
   107   7 N    3.003 --   106 C    1.253   103 C    1.246    67 Ni   0.716
   108   1 H    1.041 --    68 C    0.997
   109   1 H    1.029 --    70 C    0.994
   110   1 H    1.051 --    71 C    0.999
   111   1 H    1.056 --    76 C    0.990
   112   1 H    1.030 --    77 C    0.990
   113   1 H    1.033 --    79 N    0.973
   114   1 H    1.017 --    80 C    0.996
   115   1 H    1.047 --    80 C    1.006
   116   1 H    1.028 --    80 C    0.999
   117   1 H    1.034 --    81 C    0.991
   118   1 H    1.060 --    82 C    0.990
   119   1 H    1.049 --    84 C    0.998
   120   1 H    1.041 --    85 C    0.999
   121   1 H    1.041 --    90 C    0.999
   122   1 H    1.047 --    91 C    0.998
   123   1 H    1.060 --    96 C    0.990
   124   1 H    1.034 --    97 C    0.991
   125   1 H    1.032 --    99 N    0.973
   126   1 H    1.047 --   100 C    1.006
   127   1 H    1.029 --   100 C    0.999
   128   1 H    1.017 --   100 C    0.995
   129   1 H    1.031 --   101 C    0.990
   130   1 H    1.057 --   102 C    0.990
   131   1 H    1.049 --   104 C    0.999
   132   1 H    1.029 --   105 C    0.994
   133   6 C    3.833 --   134 C    2.364   137 C    1.364   136 C    0.167
   134   6 C    3.832 --   133 C    2.364   135 C    1.362   138 C    0.167
   135   6 C    3.809 --   136 C    2.463   134 C    1.362
   136   6 C    3.763 --   135 C    2.463    22 C    1.228   133 C    0.167
   137   6 C    3.808 --   138 C    2.460   133 C    1.364
   138   6 C    3.766 --   137 C    2.460   146 C    1.232   134 C    0.167
   139   6 C    3.832 --   140 C    2.364   143 C    1.363   142 C    0.166
   140   6 C    3.833 --   139 C    2.364   141 C    1.364   144 C    0.167
   141   6 C    3.808 --   142 C    2.459   140 C    1.364
   142   6 C    3.765 --   141 C    2.459   166 C    1.232   139 C    0.166
   143   6 C    3.809 --   144 C    2.463   139 C    1.363
   144   6 C    3.763 --   143 C    2.463    88 C    1.228   140 C    0.167
   145  28 Ni   3.318 --   185 N    0.713   151 N    0.713   164 N    0.712
                           171 N    0.712
   146   6 C    3.807 --   147 C    1.286   184 C    1.286   138 C    1.232
   147   6 C    3.920 --   146 C    1.286   151 N    1.281   148 C    1.234
   148   6 C    3.829 --   149 C    1.611   147 C    1.234   186 H    0.999
   149   6 C    3.824 --   148 C    1.611   150 C    1.226   187 H    0.999
   150   6 C    3.898 --   152 C    1.364   151 N    1.233   149 C    1.226
   151   7 N    3.007 --   147 C    1.281   150 C    1.233   145 Ni   0.713
   152   6 C    3.831 --   161 C    1.364   150 C    1.364   153 C    1.056
   153   6 C    3.878 --   160 C    1.416   154 C    1.405   152 C    1.056
   154   6 C    3.872 --   155 C    1.477   153 C    1.405   188 H    0.990
   155   6 C    3.876 --   154 C    1.477   156 C    1.370   189 H    0.990
   156   6 C    3.944 --   159 C    1.385   155 C    1.370   157 N    1.140
   157   7 N    3.026 --   156 C    1.140   190 H    0.972   158 C    0.972
   158   6 C    3.939 --   191 H    1.006   193 H    0.999   192 H    0.996
                           157 N    0.972
   159   6 C    3.845 --   160 C    1.459   156 C    1.385   194 H    0.992
   160   6 C    3.873 --   159 C    1.459   153 C    1.416   195 H    0.991
   161   6 C    3.898 --   152 C    1.364   164 N    1.233   162 C    1.226
   162   6 C    3.823 --   163 C    1.611   161 C    1.226   196 H    0.999
   163   6 C    3.829 --   162 C    1.611   165 C    1.235   197 H    0.999
   164   7 N    3.008 --   165 C    1.282   161 C    1.233   145 Ni   0.712
   165   6 C    3.920 --   166 C    1.285   164 N    1.282   163 C    1.235
   166   6 C    3.807 --   167 C    1.286   165 C    1.285   142 C    1.232
   167   6 C    3.919 --   166 C    1.286   171 N    1.281   168 C    1.235
   168   6 C    3.829 --   169 C    1.611   167 C    1.235   198 H    0.999
   169   6 C    3.823 --   168 C    1.611   170 C    1.226   199 H    0.999
   170   6 C    3.898 --   172 C    1.363   171 N    1.234   169 C    1.226
   171   7 N    3.007 --   167 C    1.281   170 C    1.234   145 Ni   0.712
   172   6 C    3.830 --   181 C    1.365   170 C    1.363   173 C    1.055
   173   6 C    3.879 --   174 C    1.416   180 C    1.406   172 C    1.055
   174   6 C    3.873 --   175 C    1.459   173 C    1.416   200 H    0.991
   175   6 C    3.845 --   174 C    1.459   176 C    1.385   201 H    0.992
   176   6 C    3.944 --   175 C    1.385   179 C    1.371   177 N    1.140
   177   7 N    3.026 --   176 C    1.140   202 H    0.972   178 C    0.972
   178   6 C    3.939 --   205 H    1.006   204 H    0.999   203 H    0.996
                           177 N    0.972
   179   6 C    3.876 --   180 C    1.476   176 C    1.371   206 H    0.990
   180   6 C    3.873 --   179 C    1.476   173 C    1.406   207 H    0.990
   181   6 C    3.898 --   172 C    1.365   185 N    1.233   182 C    1.226
   182   6 C    3.824 --   183 C    1.612   181 C    1.226   208 H    0.999
   183   6 C    3.829 --   182 C    1.612   184 C    1.234   209 H    0.999
   184   6 C    3.920 --   146 C    1.286   185 N    1.281   183 C    1.234
   185   7 N    3.007 --   184 C    1.281   181 C    1.233   145 Ni   0.713
   186   1 H    1.042 --   148 C    0.999
   187   1 H    1.049 --   149 C    0.999
   188   1 H    1.058 --   154 C    0.990
   189   1 H    1.031 --   155 C    0.990
   190   1 H    1.032 --   157 N    0.972
   191   1 H    1.047 --   158 C    1.006
   192   1 H    1.017 --   158 C    0.996
   193   1 H    1.029 --   158 C    0.999
   194   1 H    1.034 --   159 C    0.992
   195   1 H    1.060 --   160 C    0.991
   196   1 H    1.047 --   162 C    0.999
   197   1 H    1.042 --   163 C    0.999
   198   1 H    1.042 --   168 C    0.999
   199   1 H    1.049 --   169 C    0.999
   200   1 H    1.060 --   174 C    0.991
   201   1 H    1.034 --   175 C    0.992
   202   1 H    1.032 --   177 N    0.972
   203   1 H    1.018 --   178 C    0.996
   204   1 H    1.029 --   178 C    0.999
   205   1 H    1.047 --   178 C    1.006
   206   1 H    1.031 --   179 C    0.990
   207   1 H    1.057 --   180 C    0.990
   208   1 H    1.052 --   182 C    0.999
   209   1 H    1.042 --   183 C    0.999
 ---------------------------------------------------------------------------

Topologies differ in total number of bonds
Writing topology from bond orders to xtbtopo.mol

 dipole moment from electron density (au)
     X       Y       Z   
 -92.9577  -0.0413   0.0721  total (Debye):  236.275


           -------------------------------------------------
          | TOTAL ENERGY             -396.678069375716 Eh   |
          | GRADIENT NORM               0.082814528407 Eh/α |
          | HOMO-LUMO GAP               0.212404299800 eV   |
           -------------------------------------------------
########################################################################
[WARNING] Runtime exception occurred
-1- restart_readRestart: Dimension missmatch in restart file.
########################################################################

------------------------------------------------------------------------
 * finished run on 2022/07/30 at 03:14:48.573     
------------------------------------------------------------------------
 total:
 * wall-time:     0 d,  0 h,  0 min, 26.341 sec
 *  cpu-time:     0 d,  0 h,  0 min, 26.173 sec
 * ratio c/w:     0.994 speedup
 SCF:
 * wall-time:     0 d,  0 h,  0 min, 25.448 sec
 *  cpu-time:     0 d,  0 h,  0 min, 25.292 sec
 * ratio c/w:     0.994 speedup

