209
 energy: -350.540462005008 gnorm: 0.000509153881 xtb: 6.5.1 (b24c23e)
Ni          33.52092997035527        0.05822867240648       -0.06225782651463
C           30.13445000288784        0.13534350481719       -0.12879719455935
C           30.78265587826693        0.89633788847932        0.82257734747474
C           30.10882492479018        1.67406906609192        1.81605709073965
C           31.06491801566669        2.35941697681061        2.48733938908826
C           32.32104985342451        2.01569495899897        1.88866938374498
N           32.14096916758199        1.07891659665230        0.90179025148255
C           33.53105272667614        2.61937017575119        2.21304939714722
C           33.53878359342517        3.71868479342909        3.20351873320688
C           32.77728412629552        4.87282480000167        2.99833884439371
C           32.78867500320490        5.90063349070647        3.92191562537006
C           33.55921320826693        5.80180619689808        5.08708139472170
N           33.49365107952937        6.83237317214606        6.01261941716759
C           34.59165462219245        7.02937860616457        6.94977671785385
C           34.31136022545230        4.64356573829443        5.30410236648762
C           34.30424602189957        3.62436161063036        4.36734923087800
C           34.73304440128510        2.23219798912032        1.63254567244714
C           35.98325747099796        2.88660887118762        1.87076602879219
C           36.93357010317304        2.16334519957514        1.22938070189462
N           34.91168705616739        1.14458252077680        0.80738852197381
C           36.26144210265599        1.07478002321106        0.59594784076840
C           36.92829589996924        0.03019838962263       -0.05186478239196
C           36.24916016118723       -1.01283256560436       -0.68959446187861
C           36.90688385379856       -2.12746961935898       -1.29184552968938
C           35.94626745149579       -2.86006713070806       -1.90672298886783
C           34.70539164219292       -2.18000019717378       -1.69214285540829
N           34.89894878692161       -1.07026964441879       -0.89986070088722
C           33.50177322760365       -2.55623376833844       -2.27597878890584
C           33.49017760595284       -3.69408151284222       -3.22191104095752
C           34.27753388226773       -3.67478139903154       -4.37469884696257
C           34.26879255646736       -4.73451020847972       -5.26536748588397
C           33.47727369834149       -5.85852293673267       -5.01151214799947
N           33.39802792285783       -6.92816215031415       -5.89032377437701
C           34.50544729456239       -7.19810812062428       -6.79771119010736
C           32.68142076354131       -5.88029116699510       -3.85939654801499
C           32.68628024055405       -4.81237051319409       -2.98249122818701
C           32.30700393897239       -1.89752544065990       -2.00590550556361
C           31.06025189273882       -2.20173778293982       -2.64408682290921
C           30.11421936957988       -1.44299128603018       -2.04100131977010
C           30.78461073670289       -0.66896317091938       -1.04216583332861
N           32.13429880614009       -0.92127338093603       -1.05721739797333
H           29.05126154415685        0.16337121418702       -0.15352642989602
H           29.04115089692310        1.67900952860410        1.96846172725494
H           30.94220266940199        3.03700806602258        3.31662454915997
H           32.19039796143802        4.97167717799227        2.09167229708899
H           32.19934155093036        6.79448826114836        3.74632824292904
H           33.17255599829839        7.70296917954387        5.60644169754797
H           35.55755890044014        7.07704687402116        6.43411530301864
H           34.61295664514785        6.21683323925950        7.67721206066429
H           34.41871602473893        7.96652658835350        7.47880693584523
H           34.90151221986364        4.52997283589346        6.20516394908223
H           34.88494027257337        2.72693866617037        4.55150028823887
H           36.10767282939413        3.78775807274342        2.44884336384569
H           37.99655995453014        2.33738043307523        1.18301466575224
H           37.96758766804503       -2.31372958689451       -1.24084171149019
H           36.05878393470066       -3.78145034884888       -2.45449396613731
H           34.88873639743337       -2.80447575209866       -4.58791305795941
H           34.87788856029560       -4.67935329499679       -6.15926254619551
H           33.04472813152693       -7.76995905905462       -5.45157448810837
H           34.56093888936720       -6.42136731493232       -7.56156807975593
H           34.31564485327530       -8.15409201062013       -7.28566323844274
H           35.46113596144286       -7.24722029168343       -6.26347403280678
H           32.05979630089561       -6.74610841022733       -3.65675320509862
H           32.07844047110819       -4.85099129789738       -2.08509206869956
H           30.93770045572010       -2.90298326592967       -3.45352708709985
H           29.05501806381574       -1.39954138258222       -2.23944993022105
Ni          65.50129734198029        0.01274899318839       -0.00583399701076
C           68.88657400062100        0.08155027962893       -0.12384180045895
C           68.24053730863359       -1.01471573129435       -0.65767074893961
C           68.91718703304949       -2.14459641763168       -1.21593597652479
C           67.96207222874952       -2.94997735308971       -1.73884680466878
C           66.70327280578036       -2.30219888596505       -1.51493152509289
N           66.88158865467079       -1.13948670075469       -0.80780658163828
C           65.49100561259515       -2.75913374949512       -2.02001097233038
C           65.48468688395042       -3.95538282959794       -2.89126236164489
C           66.22260256208523       -3.97844691146208       -4.07820818402005
C           66.20816296919905       -5.09085148495855       -4.89791744207376
C           65.45851664259730       -6.22129219240899       -4.54995934836100
N           65.51828524562058       -7.33438675565340       -5.37519722781540
C           64.42832153525984       -8.30117774591186       -5.35816055900056
C           64.73264490938479       -6.20995618827930       -3.35528349421200
C           64.74213249309295       -5.08631451146763       -2.54669289997599
C           64.28537460931861       -2.12519157633727       -1.74457466650505
C           63.03009373030392       -2.51447773318024       -2.31099516709136
C           62.08019587447559       -1.74273777614064       -1.72836913607942
N           64.10897571224152       -1.08703101956441       -0.85748771798402
C           62.75751290036590       -0.87979913662726       -0.81480383655661
C           62.09483116091128       -0.02166676960659        0.06819682574117
C           62.77755021704161        0.83613247337146        0.93638277989047
C           62.12457394970154        1.66627298358106        1.89662696097948
C           63.08510189701182        2.44092541920156        2.45788870330591
C           64.32076065593486        2.09181984165678        1.82584973849848
N           64.12555332222038        1.06705261970730        0.92685176192295
C           65.52007913376823        2.75975808727806        2.04212435257924
C           65.52800692385779        3.94620496576231        2.92636476862651
C           64.72370892337621        5.05199898728413        2.64398951206439
C           64.73030016235890        6.16947777040743        3.46096429597998
C           65.53711570566539        6.20001409288563        4.60220644672624
N           65.61649463345884        7.31010343767303        5.42941545739557
C           64.50019048684582        8.24429779486503        5.49026891680364
C           66.34834385363358        5.09478217416030        4.88787069976819
C           66.34522351666854        3.98859294507980        4.05965809973665
C           66.71216959451282        2.35633215986668        1.45031150930149
C           67.95570875412965        3.05488118616256        1.59128493051973
C           68.90226147096317        2.29912719939955        0.98530244120833
C           68.23480670807244        1.14672525599623        0.46320089173910
N           66.88654328829226        1.21089796550700        0.71476966803060
H           69.96938482604611        0.10547996156050       -0.16435112864239
H           69.98608823620363       -2.28714841813357       -1.19855093311364
H           68.08663474868041       -3.90088226756516       -2.23098899351583
H           66.79253832150019       -3.10310595348449       -4.37012000634147
H           66.77802849373052       -5.09203303229201       -5.82116004698647
H           65.81653697980575       -7.10706733130911       -6.31620835352744
H           63.45525290418557       -7.81307798368192       -5.48487889838454
H           64.43286334539756       -8.85359501102390       -4.41760355596167
H           64.58853453683156       -9.00370188833939       -6.17597093948037
H           64.16066713230508       -7.07732947542666       -3.04931059567775
H           64.18123045645362       -5.09268338885859       -1.61834687519042
H           62.90189565309628       -3.27600268069356       -3.06287946139649
H           61.01434302715364       -1.74809500678894       -1.89050359310721
H           61.06694431153190        1.64658468131571        2.10507582437408
H           62.97608963686673        3.18089818470204        3.23394221189352
H           64.10071893973345        5.04465425669735        1.75612517263088
H           64.10791576520759        7.01738282068468        3.20254296596810
H           65.98500365572949        7.08918200367954        6.34667556834114
H           64.42264602749265        8.79601676074608        4.55249791802822
H           64.69672695573284        8.95181428380593        6.29576659877447
H           63.55303032673640        7.72809273584865        5.68421691138267
H           66.98109202477384        5.11114789263598        5.76905425215091
H           66.96542798902793        3.13292345152959        4.30347022464799
H           68.07614246657539        4.00430050069216        2.08729533002613
H           69.95975778913936        2.48856210851400        0.89053128719811
C           42.12898180593880       -0.00408211013367       -0.03156160208294
C           40.90078913680475        0.00310775201546       -0.04177746218067
C           39.55614717803725        0.01126262087126       -0.04934075796925
C           38.33247475399217        0.02138841335724       -0.05084812425912
C           43.47351773014950       -0.00866713230014       -0.02485804091909
C           44.69735113457321       -0.01008383210531       -0.01892039334100
C           58.12264078649493       -0.01356455655933        0.08184949344757
C           56.89444360828440       -0.00593417800595        0.07063534556920
C           55.55010949308887        0.00130826965233        0.05567585327702
C           54.32647630402520        0.00806444330827        0.03790258293499
C           59.46720588532560       -0.01629281775108        0.08572628444837
C           60.69082112863246       -0.02196087516426        0.08323528394978
Ni          49.51202565644744        0.01892318495335       -0.01468948350149
C           46.10095582949796       -0.00307359431542       -0.01632662739208
C           46.78242004833185       -1.08226184375088       -0.58854558207644
C           46.12685914019347       -2.22611307189386       -1.13502951512730
C           47.08730613200814       -2.97927661862831       -1.72571780860191
C           48.32561121347873       -2.28588182712098       -1.54634430401027
N           48.13200681147613       -1.14418198379860       -0.80179023433776
C           49.52970204981094       -2.68224825593313       -2.11692687977967
C           49.53641340442464       -3.84395590033610       -3.03303165864749
C           50.33672305861035       -4.95928457639710       -2.76837887792355
C           50.34469265270774       -6.04290554059356       -3.62554350014948
C           49.56007384533406       -6.03900833122405       -4.78574191236670
N           49.56715586030736       -7.16797306024420       -5.59033494179124
C           49.17612302706572       -7.06219808583762       -6.98947237696021
C           48.75251869979719       -4.92916572245533       -5.05142887127005
C           48.74376126195232       -3.85162847032131       -4.18242200165267
C           50.72856796587564       -2.02876625191278       -1.85600765958757
C           51.97731816131760       -2.37201943162016       -2.46371984685834
C           52.92910360597625       -1.62244971145684       -1.85472568727954
N           50.90769396858968       -1.03105513679174       -0.92420698173446
C           52.25724438500375       -0.81268293330690       -0.89070869375723
C           52.92312545782448        0.01451365956310        0.01977879490780
C           52.24123973690441        0.85307455521557        0.90750269719752
C           52.89657848367801        1.67964208893961        1.86878752850749
C           51.93635730736668        2.44887693149736        2.43874269667154
C           50.69848228843730        2.09533945727157        1.81504780873866
N           50.89223257120071        1.07824253020628        0.90786012261363
C           49.49430080798141        2.74910265768397        2.04940682419054
C           49.48891811897872        3.93210174821041        2.93813426937945
C           48.69596171389843        3.96031742116770        4.08693076519092
C           48.69304265367238        5.05975787447815        4.92812203003121
C           49.48873110915126        6.17100571717107        4.63397706333429
N           49.48243065722150        7.31998624225678        5.40974241178962
C           49.09860394633144        7.24265384082348        6.81283934943578
C           50.27470638666060        6.15327752089314        3.47489295781677
C           50.27896008924907        5.04779517981954        2.64600901039909
C           48.29608964172230        2.32965156310647        1.48353143935088
C           47.04848638014036        3.00838481910718        1.65459861939107
C           46.09711149639671        2.23047058060151        1.08173000924923
C           46.76781668911594        1.08833800649675        0.55018527776652
N           48.11679249527980        1.17275853463469        0.75870811019067
H           45.06735254389658       -2.41454778948951       -1.06956134370278
H           46.97617883641012       -3.92346918810839       -2.23338182825116
H           50.94179519690644       -4.98144338986450       -1.86861878655268
H           50.96176055711658       -6.90687130896340       -3.40215128666785
H           50.39677252491265       -7.73500615320762       -5.46322133890237
H           48.11034006522545       -6.84285861338666       -7.06424551257996
H           49.74271724508164       -6.28071929788651       -7.50876720081383
H           49.36827964245283       -8.02348835103312       -7.46605741726287
H           48.12873717175012       -4.89945172580058       -5.93624947918679
H           48.12765588576823       -2.98859292921819       -4.41036007061635
H           52.10177282172558       -3.09134605419823       -3.25661372981957
H           53.99231780168728       -1.60827176013408       -2.03274013616140
H           53.95583173942776        1.66500413763268        2.06905976000417
H           52.04760472641949        3.18710678363699        3.21610652920027
H           48.08854761368683        3.09701478254581        4.33635977708291
H           48.06888836897638        5.04663330440276        5.81316773615310
H           50.30328772378267        7.89541664872679        5.26500879570691
H           49.66894649617339        6.47266045086934        7.34491501153355
H           49.29197324203957        8.21369300320877        7.26866843581246
H           48.03350021842871        7.02335979498856        6.89773684172237
H           50.88324935090337        7.01745656515401        3.23003628695982
H           50.88589598226862        5.05209479421927        1.74722844698844
H           46.92517741163604        3.95948439359571        2.14628034896276
H           45.03470567410681        2.40213340367541        1.01748123636409
