76
 energy: -137.330687044343 gnorm: 0.000482994382 xtb: 6.5.1 (b24c23e)
Co           7.86063585103876       -0.03558592425106        0.02393771996819
C            4.69346778949948       -0.63196567601946        0.99641923585140
C            5.23331248091081       -1.43306968149875        0.01059354704808
C            4.51197338346134       -2.47044283985736       -0.66579100749292
C            5.32777404742321       -2.94262616805741       -1.63807014801012
C            6.56702332665856       -2.23293412194636       -1.51670635310025
N            6.48762902322027       -1.29253462580767       -0.52318996223431
C            7.71726614105601       -2.56923383602449       -2.20119479809953
C            8.95479713878668       -2.05237213192762       -1.88085664830696
C           10.19404106612994       -2.57923458841469       -2.36572181130038
C           11.18019001079747       -1.90171254849751       -1.72918849012296
N            9.18242339737073       -1.03347687973986       -0.98741661562193
C           10.54057813508199       -0.92346671751368       -0.90370701496357
C           11.23008412492900        0.10399638838999       -0.25185563604145
C           10.55461304323032        1.19898537422809        0.29834483166351
C           11.20394051753186        2.40538041651555        0.70987215433780
C           10.22691497122053        3.26398966889711        1.09048567298631
C            8.98828849007910        2.55732184506740        0.96454793373857
N            9.20236866334044        1.30192606240140        0.44483154793136
C            7.78686743241943        3.01972364263685        1.45640147509546
C            6.66431681807515        2.22232211562883        1.56009453797034
C            5.49230181122700        2.57559888121189        2.30501034188842
C            4.66529634895194        1.50404105089292        2.26193125871837
C            5.30908768160265        0.51898292991839        1.44328521753621
N            6.54234204782692        0.96211755334205        1.03914280416644
H            3.69874081501253       -0.86048632609140        1.36065713542877
H            3.50259106835483       -2.76643397902200       -0.42725796167612
H            5.13930237747416       -3.72123500133463       -2.36025596346059
H            7.66274746803746       -3.35086615235794       -2.94984766290767
H           10.27863354204880       -3.38313838148056       -3.07954761968558
H           12.24814463611921       -2.01758372339250       -1.82287552907664
H           12.26993715728204        2.56533594435747        0.68087656265582
H           10.31975812572992        4.27350818846950        1.45831590634642
H            7.75093079473578        4.01907259425529        1.87409612066027
H            5.35137830615767        3.51865794642432        2.80913586470183
H            3.69165224788092        1.38278427425595        2.70987361492416
Co          21.19873072216295        0.01046695502004        0.04556766312311
C           24.36158763829804       -0.19035310356794        1.18021944767470
C           23.80521245901404        1.06243453331169        1.02035767663026
C           24.50935766235951        2.28825392271629        1.25638882488265
C           23.69518850201254        3.29037565602749        0.84806696784414
C           22.47243177126653        2.67871089701120        0.41847042807801
N           22.55886951153063        1.31446350749566        0.50871837364239
C           21.32939587207967        3.38283090784197        0.09772029441095
C           20.09806340650282        2.78028719134934       -0.04870859623718
C           18.85818324455577        3.49392461277692       -0.09468784914887
C           17.87328448109036        2.56317441923403       -0.07722326476116
N           19.87273740781391        1.42447596730676       -0.05324445251913
C           18.51537253825182        1.28447684901825       -0.08192934730634
C           17.82893736053405        0.07794920800523       -0.25380417658808
C           18.50699096076547       -1.10992089955849       -0.54815657974223
C           17.85822783195870       -2.29531741352260       -1.01773909957564
C           18.83737598960628       -3.18265246351973       -1.31854455603466
C           20.07796917338547       -2.55611156004028       -0.97577091763449
N           19.86126378450921       -1.27409662704957       -0.52806366524552
C           21.29088377542919       -3.21051934996624       -0.96003196342728
C           22.42173632031209       -2.67579242570809       -0.37578722713321
C           23.61133109909239       -3.42421574650317       -0.09608856613738
C           24.43240597302373       -2.60427013575190        0.60212435739258
C           23.76724152723381       -1.33808587977134        0.69723575381653
N           22.53072309150388       -1.39941802351210        0.10805293945969
H           25.35415589608796       -0.26381272158901        1.60893619690977
H           25.50838643874869        2.34990382877094        1.65825852081675
H           23.87453283042479        4.35389537043996        0.85725956488908
H           21.38110989706075        4.46486523653145        0.06666832108121
H           18.77198257018522        4.56881896318026       -0.10708839815377
H           16.80514468063543        2.71018058699296       -0.09149102121838
H           16.79075371905638       -2.40644481492171       -1.12220740294806
H           18.74555494049618       -4.18506859402401       -1.70552003857384
H           21.33186077463714       -4.22936777466556       -1.32705823073187
H           23.76637472083290       -4.45241886601528       -0.38264632108808
H           25.41425972603560       -2.80859191174664        0.99905937244841
C           13.85511612626023        0.08706257351750       -0.24493425218784
C           12.63266027048508        0.09666243735153       -0.25204096455719
C           15.20380407409695        0.08373581097057       -0.24235935647637
C           16.42630395017052        0.08175630243932       -0.25171971731676
