189
 energy: -358.388990992706 gnorm: 1.353348913351 xtb: 6.5.1 (b24c23e)
Co          35.23982400000000        0.05585500000000       -0.45132700000000
C           31.89536800000000        0.21165000000000       -0.36289400000000
C           32.54678900000000        1.37388100000000       -0.26176200000000
C           31.88403900000000        2.67046700000000       -0.19056500000000
C           32.81572100000000        3.59748800000000       -0.06715400000000
C           34.12703300000000        2.93473500000000       -0.04054200000000
N           33.96302600000000        1.52231500000000       -0.17438000000000
C           35.31349200000000        3.56011900000000        0.10786000000000
C           35.34939000000000        5.03029900000000        0.28385700000000
C           34.86060100000000        5.61670800000000        1.46253300000000
C           34.90497700000000        7.01202900000000        1.63863900000000
C           34.38539800000000        7.63319100000000        2.87690100000000
O           34.43626000000000        9.01477600000000        3.04384900000000
O           33.89189800000000        6.91908900000000        3.79145700000000
C           35.45253000000000        7.81144300000000        0.62011400000000
C           35.94631700000000        7.22761900000000       -0.54945300000000
C           35.89749100000000        5.84282600000000       -0.71815600000000
C           36.61147000000000        2.83544100000000        0.11423000000000
C           37.88913500000000        3.45196200000000        0.49183200000000
C           38.83219400000000        2.54222800000000        0.35407700000000
N           36.76571700000000        1.59546100000000       -0.23646700000000
C           38.16337899999999        1.33326500000000       -0.11077200000000
C           38.76833800000000        0.17856500000000       -0.43353800000000
C           38.01571599999999       -1.01265100000000       -0.88554800000000
C           38.55546700000000       -2.03422600000000       -1.53822600000000
C           37.52181399999999       -3.03875600000000       -1.69723400000000
C           36.42005800000000       -2.56575200000000       -1.12622300000000
N           36.64201200000000       -1.26172600000000       -0.58705400000000
C           35.14848800000000       -3.32334000000000       -1.00157300000000
C           35.18439800000000       -4.79818200000000       -1.15702700000000
C           35.92907300000000       -5.57882000000000       -0.26150800000000
C           35.98069099999999       -6.96538500000000       -0.41371600000000
C           35.29494400000000       -7.58358000000000       -1.46230300000000
C           34.55000900000000       -6.81648400000000       -2.37608600000000
C           33.82531100000000       -7.46526700000000       -3.49101700000000
O           33.08776100000000       -6.69847800000000       -4.38953700000000
O           33.86789200000000       -8.71684000000000       -3.63803600000000
C           34.50423299999999       -5.42005600000000       -2.21742000000000
C           33.98069700000000       -2.70147200000000       -0.74892000000000
C           32.67921900000000       -3.34302600000000       -0.57009700000000
C           31.80839800000000       -2.36645600000000       -0.40315400000000
C           32.54515100000000       -1.10503100000000       -0.46086800000000
N           33.81183000000000       -1.28805600000000       -0.66206800000000
H           30.81177900000000        0.22897300000000       -0.37223600000000
H           30.81882299999999        2.85758400000000       -0.23592600000000
H           32.61793400000000        4.65929300000000       -0.00038400000000
H           34.44868600000000        4.98112000000000        2.23757300000000
H           34.08300899999999        9.45031200000000        3.88753700000000
H           35.50144800000000        8.88781000000000        0.72637100000000
H           36.36847899999999        7.85087500000000       -1.32718100000000
H           36.28459800000000        5.40261000000000       -1.62900500000000
H           38.05047000000000        4.46794100000000        0.82749700000000
H           39.88456500000000        2.69392900000000        0.55389300000000
H           39.58181600000000       -2.12181000000000       -1.86866100000000
H           37.63927300000000       -4.00502900000000       -2.17043300000000
H           36.46596300000000       -5.11261800000000        0.55564000000000
H           36.55423700000000       -7.56323600000000        0.28281400000000
H           35.35006700000000       -8.66071500000000       -1.55858900000000
H           32.58774900000000       -7.13267100000000       -5.15615000000000
H           33.94458500000000       -4.80989400000000       -2.91634300000000
H           32.44715100000000       -4.39988000000000       -0.56919100000000
H           30.74489100000000       -2.49139700000000       -0.24733300000000
Co          54.98334500000000        0.30036600000000       -0.41032800000000
C           58.32780100000000        0.12424600000000       -0.37754900000000
C           57.67638000000000       -1.00740600000000       -0.66104900000000
C           58.33913000000000       -2.25630100000000       -1.01667000000000
C           57.40744800000000       -3.17287400000000       -1.20238600000000
C           56.09613599999999       -2.55505000000000       -0.96105100000000
N           56.26014300000000       -1.17622400000000       -0.62686200000000
C           54.90967700000000       -3.19463600000000       -1.02475500000000
C           54.87377899999999       -4.64181300000000       -1.33793200000000
C           55.36256800000000       -5.58061400000000       -0.41499800000000
C           55.31819200000000       -6.95706400000000       -0.70365400000000
C           55.83777100000000       -7.94815100000000        0.26427100000000
O           55.78690900000000       -9.30862800000000       -0.02856000000000
O           56.33127099999999       -7.57141800000000        1.36173600000000
C           54.77063900000000       -7.38052900000000       -1.92722700000000
C           54.27685199999999       -6.44714400000000       -2.84239400000000
C           54.32567800000000       -5.08306200000000       -2.55017400000000
C           53.61169900000000       -2.51167000000000       -0.78235600000000
C           52.33403400000000       -3.21763900000000       -0.62650500000000
C           51.39097500000000       -2.31272800000000       -0.45998700000000
N           53.45745200000000       -1.22511800000000       -0.70941300000000
C           52.05979000000000       -1.01826200000000       -0.50506800000000
C           51.45483100000000        0.17856500000000       -0.43353800000000
C           52.20745300000000        1.45206700000000       -0.47227200000000
C           51.66770200000000        2.63066100000000       -0.75603300000000
C           52.70135499999999        3.63211600000000       -0.57868400000000
C           53.80311100000000        2.99872800000000       -0.19318900000000
N           53.58115699999999        1.59015600000000       -0.10886000000000
C           55.07468100000000        3.67422200000000        0.17175500000000
C           55.03877100000000        5.11910700000000        0.50587200000000
C           54.29409600000000        5.56494600000000        1.60704300000000
C           54.24247800000000        6.92532300000000        1.91543300000000
C           54.92822500000000        7.85173800000000        1.12584200000000
C           55.67316000000000        7.42465700000000        0.01182300000000
C           56.39785800000000        8.40162800000000       -0.83050700000000
O           57.13540800000000        7.96985900000000       -1.92999700000000
O           56.35527700000000        9.63270300000000       -0.56124300000000
C           55.71893600000000        6.05285000000000       -0.29368000000000
C           56.24247200000000        3.00395500000000        0.20774700000000
C           57.54395000000000        3.55209200000000        0.58605500000000
C           58.41477099999999        2.57448000000000        0.42532600000000
C           57.67801799999999        1.40087200000000       -0.04068700000000
N           56.41133900000000        1.63951400000000       -0.17118200000000
H           59.41139000000000        0.11091800000000       -0.39203100000000
H           59.40434600000000       -2.41838800000000       -1.12058400000000
H           57.60523500000000       -4.19838500000000       -1.48561100000000
H           55.77448299999999       -5.23259400000000        0.52497000000000
H           56.14016000000000       -9.99554000000000        0.62691900000000
H           54.72172100000000       -8.43268600000000       -2.17787400000000
H           53.85469000000000       -6.78263000000000       -3.78088000000000
H           53.93857100000000       -4.36981900000000       -3.26761500000000
H           52.17269900000000       -4.28754000000000       -0.64059400000000
H           50.33860400000000       -2.52130900000000       -0.32058100000000
H           50.64135300000000        2.82123700000000       -1.03982700000000
H           52.58389600000000        4.69988900000000       -0.71082100000000
H           53.75720600000000        4.85770300000000        2.22743100000000
H           53.66893200000000        7.26328000000000        2.76887700000000
H           54.87310200000000        8.90136800000000        1.38616500000000
H           57.63542000000000        8.63036000000000       -2.51305500000000
H           56.27858400000000        5.70403700000000       -1.15340100000000
H           57.77601800000000        4.55084700000000        0.93163800000000
H           59.47827800000000        2.64176100000000        0.61337800000000
C           39.85504700000000        0.17856500000000       -0.43353800000000
C           41.07696500000000        0.17856500000000       -0.43353800000000
C           49.14620399999999        0.17856500000000       -0.43353800000000
C           50.36812200000000        0.17856500000000       -0.43353800000000
Co          44.89903899999999       -0.31139800000000        0.25432800000000
C           41.97706200000000       -0.37469400000000        0.90972000000000
C           42.31396900000000       -1.38527200000000        0.10743900000000
C           42.01048500000000       -1.44202700000000       -1.32427100000000
C           42.85304100000000       -2.28413600000000       -1.90292200000000
C           43.82576000000000       -2.70723400000000       -0.89276900000000
N           43.46514400000000       -2.17604800000000        0.37956100000000
C           45.05031899999999       -3.19214300000000       -1.16671400000000
C           45.33449199999999       -3.88627900000000       -2.45095100000000
C           44.46808600000000       -4.88986600000000       -2.92200300000000
C           44.73125400000000       -5.55971500000000       -4.13108100000000
C           43.81556299999999       -6.61137700000000       -4.62630000000000
O           44.08996300000000       -7.27642800000000       -5.81869700000000
O           42.77899299999999       -6.91458100000000       -3.97531800000000
C           45.87960100000000       -5.21825400000000       -4.86448200000000
C           46.74695600000000       -4.22819400000000       -4.39884400000000
C           46.47968500000000       -3.56592400000000       -3.19982700000000
C           46.18141000000000       -2.79227800000000       -0.30417000000000
C           47.31474299999999       -3.64234700000000        0.06495000000000
C           48.22183700000000       -2.86713300000000        0.64062600000000
N           46.39625500000000       -1.55206500000000       -0.00012400000000
C           47.68151000000000       -1.50915800000000        0.60741300000000
C           48.33884600000000       -0.37469400000000        0.90972000000000
C           47.72983600000000        0.96145100000000        0.68799900000000
C           48.40158600000000        2.09827000000000        0.55199000000000
C           47.42369200000000        3.15627100000000        0.32560100000000
C           46.21775500000000        2.59631900000000        0.35171600000000
N           46.32889100000000        1.19049200000000        0.57505900000000
C           44.91720600000000        3.31960900000000        0.20370400000000
C           44.90949800000000        4.79829700000000        0.11459000000000
C           44.42151100000000        5.43357900000000       -1.03653800000000
C           44.41260800000000        6.82694200000000       -1.11885400000000
C           44.88993500000000        7.59699100000000       -0.05539200000000
C           45.38249900000000        6.97757500000000        1.10741800000000
C           45.88894700000000        7.78812300000000        2.23686000000000
O           46.37735199999999        7.16687500000000        3.38339700000000
O           45.88363900000000        9.04739300000000        2.17225500000000
C           45.38672699999999        5.57348500000000        1.18364300000000
C           43.74832500000000        2.64594600000000        0.21592900000000
C           42.39687100000000        3.20512500000000        0.30443400000000
C           41.58021099999999        2.17793300000000        0.50501100000000
C           42.39973100000000        0.96666600000000        0.50333100000000
N           43.65178999999999        1.23782700000000        0.34828000000000
H           41.23771700000000       -0.88483400000000       -1.83787900000000
H           42.88900700000000       -2.48396700000000       -2.96593900000000
H           43.59323800000000       -5.15154200000000       -2.33874400000000
H           43.46945700000000       -7.99745000000000       -6.16705500000000
H           46.10942000000000       -5.71581500000000       -5.79823000000000
H           47.62912700000000       -3.97150700000000       -4.97105200000000
H           47.16141400000000       -2.79422100000000       -2.86454900000000
H           47.41377100000000       -4.70493700000000       -0.11307800000000
H           49.18692400000000       -3.19278600000000        1.00520600000000
H           49.47618700000000        2.21888200000000        0.58029500000000
H           47.64581600000000        4.20352000000000        0.17041600000000
H           44.05106600000000        4.84861400000000       -1.86954600000000
H           44.03551000000000        7.31210000000000       -2.00990800000000
H           44.87308700000000        8.67609900000000       -0.14367600000000
H           46.72617200000000        7.71262600000000        4.16229700000000
H           45.75606499999999        5.07674300000000        2.07289300000000
H           42.10527300000000        4.24701000000000        0.28160400000000
H           40.51140900000000        2.24015300000000        0.66085700000000
189
 energy: -358.792785645568 gnorm: 0.474520428838 xtb: 6.5.1 (b24c23e)
Co          35.24490973738796        0.06776361512193       -0.44731842236030
C           31.89670579990439        0.19772382372746       -0.36353803922375
C           32.55352047809242        1.37466712653686       -0.26173219279670
C           31.88348831729038        2.66462706477144       -0.19128394577915
C           32.82369814656735        3.59850612285164       -0.06653037138627
C           34.12512588963590        2.92525063757788       -0.04215956556396
N           33.95232434835599        1.52953193707000       -0.17712137515916
C           35.32541418488838        3.55826718559305        0.10960430574400
C           35.35181103197527        5.03306226405555        0.28716973312845
C           34.86056176839055        5.62149106864199        1.46129136133085
C           34.90504331351248        7.01802211552639        1.63919734508390
C           34.37787126471654        7.63217922768996        2.89320987765080
O           34.43718251163560        9.00443406743937        3.03975852936630
O           33.89796835221895        6.93137953364726        3.78073379274849
C           35.45292729371705        7.81035192824745        0.61907870527171
C           35.94456874242096        7.22634897649316       -0.54633416408256
C           35.89723001258268        5.84486148068591       -0.71493112109754
C           36.59586286828102        2.85370632904592        0.11562353221265
C           37.86540293744275        3.46592773252748        0.49114867435276
C           38.80450726005509        2.54084568239083        0.34728989750986
N           36.75554590166747        1.59201847068277       -0.23200977865203
C           38.11693287012071        1.35055951830362       -0.10350874276360
C           38.66851023996931        0.16599270512727       -0.43544095967713
C           37.97975929611089       -1.01511514791987       -0.88230570651142
C           38.55268196978319       -2.05166474341802       -1.54347819709865
C           37.53813116006599       -3.04149391526377       -1.70010896159742
C           36.40686806241602       -2.56150351818469       -1.11716922054886
N           36.62916319129408       -1.26679031320205       -0.59654594731549
C           35.15860625688139       -3.31783024169348       -1.00181966336567
C           35.18828703578358       -4.79735451850718       -1.16004336728857
C           35.92841533247186       -5.58017910625887       -0.26458201369507
C           35.97721287295960       -6.96371733103644       -0.41765006520936
C           35.29317844529614       -7.58039903344604       -1.46425438778915
C           34.54678331208314       -6.81292424763980       -2.37959775691762
C           33.82055641300397       -7.47952133787620       -3.50039792720702
O           33.09402332767217       -6.70165117490433       -4.38108636032056
O           33.86528826884155       -8.69939818369465       -3.63849158076846
C           34.50475950989851       -5.41982069480367       -2.21494721922728
C           33.98029047904354       -2.69898268522256       -0.74835332621833
C           32.68616058330613       -3.34232061865056       -0.57112538055586
C           31.80180073337034       -2.35640678588120       -0.40268461391707
C           32.53173828831510       -1.09647665755640       -0.46021453291624
N           33.81885224922564       -1.29207852468563       -0.65725213901575
H           30.81244117924055        0.22549089752166       -0.37188990580783
H           30.81916637305578        2.85228148690832       -0.23627212395791
H           32.62463710344219        4.65941917652234        0.00018780352682
H           34.44898196184850        4.98349539066076        2.23767076388623
H           34.08731749804830        9.43154807604555        3.87464435964656
H           35.50091880799194        8.88747373340595        0.72753457085005
H           36.36792309442250        7.85035593778321       -1.32626523015363
H           36.28391015756483        5.40232695560507       -1.62756229244831
H           38.04442566051415        4.47219344958680        0.82780774997389
H           39.83607587159160        2.71091727623103        0.54676665361126
H           39.57996165088434       -2.12400106271542       -1.86931192476065
H           37.64284936581124       -4.00503464902551       -2.17198587034068
H           36.46516375069056       -5.11239330487093        0.55444088027305
H           36.55297622068544       -7.56259634259302        0.28130358400554
H           35.34844870950644       -8.65966391652955       -1.56078490436068
H           32.60141220965119       -7.13400336692164       -5.13744779675579
H           33.94497440095857       -4.81052251298463       -2.91608190709263
H           32.45330335540993       -4.39892673001177       -0.57003889587354
H           30.74288982145547       -2.48662302236930       -0.24687146384430
Co          54.97816090041641        0.28763984389055       -0.41080781098112
C           58.32645491236676        0.13750295915608       -0.37364661038758
C           57.66969870147467       -1.00818790295008       -0.66120522625214
C           58.33965496729444       -2.25053069613428       -1.01547117151518
C           57.39930928776597       -3.17398935855732       -1.20210661543919
C           56.09762222484209       -2.54559153519785       -0.95943372436561
N           56.27040428710237       -1.18176744217862       -0.63192127481110
C           54.89658128014535       -3.19331973536938       -1.02234754554704
C           54.87131343091442       -4.64540656608821       -1.33582477970810
C           55.36261090637051       -5.58464554950181       -0.41777936366234
C           55.31811465071950       -6.96287913506622       -0.70510409798292
C           55.84526569016918       -7.95247523221479        0.28000045642819
O           55.78600004632861       -9.29753143423464       -0.02908926858381
O           56.32524038195356       -7.57954417033992        1.34755771632397
C           54.77024231838617       -7.37914895078014       -1.92786883562749
C           54.27860302313101       -6.44694455855972       -2.83904807243299
C           54.32593004135131       -5.08603033422305       -2.54784532421556
C           53.62311311315050       -2.53002322594891       -0.78612116360977
C           52.34771539935181       -3.22775291413092       -0.63031357276824
C           51.39749171902267       -2.30386472776824       -0.46136534990017
N           53.46494469677455       -1.22376621449262       -0.70195375888755
C           52.10173274970744       -1.03738642183213       -0.50647142340065
C           51.55081773370618        0.19219863317818       -0.43139391141770
C           52.24236874738914        1.45396055370876       -0.46567509873943
C           51.67023204215887        2.64831066337387       -0.75612310553318
C           52.68546358175668        3.63562835920212       -0.58044777043920
C           53.81599941682855        2.99174501140468       -0.18598822572097
N           53.59380661387018        1.59754641746135       -0.11636359968487
C           55.06482307276648        3.66908379298286        0.16961914055555
C           55.03490576866173        5.11924095848240        0.50282538353529
C           54.29475883838447        5.56724044242218        1.60457164343928
C           54.24594348983719        6.92504306110557        1.91114102858300
C           54.92999890532725        7.84938019003932        1.12292939718170
C           55.67637720097559        7.42241769813277        0.00731854673636
C           56.40271069303542        8.41818434736335       -0.83476472891623
O           57.12907885440113        7.97012063764354       -1.92097710817460
O           56.35779253980068        9.61633266365988       -0.56738084839099
C           55.71838528171386        6.05180708713961       -0.29142559187900
C           56.24291631130430        3.00156199624577        0.20731660747025
C           57.53706659562881        3.55181079638387        0.58486778323103
C           58.42137724105321        2.56490159641374        0.42248500709649
C           57.69133682687483        1.39269507144239       -0.04284799648019
N           56.40441637051991        1.64157759182578       -0.16526343131904
H           59.41072294939299        0.11409463994779       -0.39064013430066
H           59.40398665691970       -2.41325513991238       -1.11921237064920
H           57.59850252062786       -4.19865319805740       -1.48512563146434
H           55.77417932407921       -5.23485617419073        0.52426986573917
H           56.13585530191838       -9.97358115997906        0.62083709821590
H           54.72224971495593       -8.43274245264838       -2.17668234003121
H           53.85523900804180       -6.78242972357705       -3.77985839982809
H           53.93923370410204       -4.37002376362150       -3.26617697276100
H           52.17765581771251       -4.29091105884169       -0.64161750018058
H           50.34322715736565       -2.51198289522209       -0.32269322012329
H           50.64331277838205        2.82301064353085       -1.04160551134240
H           52.58039372977321        4.70043759227560       -0.71220485638969
H           53.75801434665821        4.85787848309951        2.22621943371524
H           53.67020636705857        7.26318241414224        2.76724451096346
H           54.87474003584992        8.90109981141451        1.38373455030199
H           57.62177299258287        8.62551570471934       -2.49497026045967
H           56.27819431151670        5.70454794658528       -1.15295519583920
H           57.76989028691865        4.55025095093748        0.93050786269931
H           59.48028529696164        2.63711510225313        0.61223005860499
C           39.93549084690566        0.17898125556273       -0.42992425163732
C           41.12855533302772        0.20301768887045       -0.41180640630727
C           49.08254410165043        0.16329338427653       -0.42490239741449
C           50.28438468345777        0.18025710724844       -0.43364607043809
Co          44.91527717334666       -0.29766663675412        0.25924115694677
C           41.95630367495318       -0.36305039820290        0.88846527753922
C           42.34469986032987       -1.40284017513234        0.09846801272209
C           42.01134120428593       -1.46229652403104       -1.32674967571568
C           42.86043230932930       -2.29691488784554       -1.90757681931255
C           43.82231467068166       -2.70553182583524       -0.89021058548739
N           43.47487425469739       -2.16584653585165        0.36284483590438
C           45.05928665519519       -3.19619736828136       -1.17021850909703
C           45.33559176209184       -3.88920488926351       -2.45074179543858
C           44.46942079158166       -4.89018494199276       -2.92612950567676
C           44.73206494599470       -5.56218661659395       -4.13575887194729
C           43.80076858123130       -6.62152518979758       -4.62459673363863
O           44.09040467871126       -7.26950168510781       -5.80980358124998
O           42.79219534750445       -6.91251037486708       -3.98637564772242
C           45.88017706906638       -5.21734980756382       -4.86378494524465
C           46.74376849587566       -4.22921739483289       -4.39706391301556
C           46.47877186530963       -3.56900412390970       -3.20083676121768
C           46.18107037576002       -2.81058318992044       -0.31258480642767
C           47.30536249201392       -3.64839658389340        0.05732207469974
C           48.22116809661497       -2.85785945647130        0.64032808073090
N           46.38774061885084       -1.55659537893463        0.02230696302459
C           47.67470498981932       -1.51739843649439        0.60992492282878
C           48.33221890897629       -0.35163118022020        0.87671109211417
C           47.70124523974404        0.95483681951745        0.69337026640262
C           48.39855901719191        2.12864443598621        0.55531377089155
C           47.44316352574885        3.15739670215288        0.32733354722642
C           46.20262939424294        2.58408437578562        0.35172228190424
N           46.32248841283734        1.19342995548610        0.57003211399754
C           44.93094190978368        3.31296162939027        0.20524452166865
C           44.91408121220959        4.79771529790825        0.11509893534885
C           44.42229069825289        5.43492938650012       -1.03312905289308
C           44.41452133655793        6.82580540431969       -1.11368114177577
C           44.89112586264613        7.59421319524905       -0.05261145807584
C           45.38440270769568        6.97480243598798        1.11227774495588
C           45.89259872411049        7.80373743187119        2.24482108335877
O           46.37305153803485        7.16884929755858        3.37332817722083
O           45.88495018116970        9.03025574320422        2.17598307279215
C           45.38731697785448        5.57356915841648        1.18160850027130
C           43.75281676961376        2.64053795055695        0.21702370278107
C           42.40922076603936        3.20710840090759        0.30347168766053
C           41.60048918351847        2.17672404611319        0.52314460771069
C           42.39720883209157        0.96644672621650        0.51802117012704
N           43.66657259025710        1.23833923697211        0.33701649582716
H           41.24606375317651       -0.89622674000636       -1.84206222679798
H           42.89432181071995       -2.48824227052263       -2.96709717611517
H           43.59377931534689       -5.15244320572177       -2.34037243669734
H           43.47522874745685       -7.98152205853165       -6.15118128799009
H           46.10831586034029       -5.71654223358264       -5.79797973138772
H           47.62808557924291       -3.97170366517207       -4.97041516180916
H           47.16021156533084       -2.79486428631525       -2.86366936085292
H           47.40928711725771       -4.70686047834186       -0.11484457673706
H           49.18341713280095       -3.18690011415577        1.00933415068895
H           49.47273588517020        2.22719420373369        0.58466275651945
H           47.64997152149395        4.20363408736295        0.17042258604634
H           44.05191865169473        4.84849071372867       -1.86813327357162
H           44.03635123739429        7.31166313757089       -2.00805677678507
H           44.87425751146605        8.67542383166946       -0.14111414194495
H           46.71692056432359        7.71106293462045        4.14115096401893
H           45.75605221835460        5.07751656445088        2.07254867531984
H           42.11100764757124        4.24662916532632        0.27866427284208
H           40.55567380701600        2.21870365352345        0.67307252890378
189
 energy: -358.981300787978 gnorm: 0.259047508070 xtb: 6.5.1 (b24c23e)
Co          35.24980115290153        0.08749551960177       -0.43839060767212
C           31.89989177661833        0.18054144113267       -0.36445222771456
C           32.56027130603559        1.37387747318573       -0.26358233885587