316
 energy: -522.044359122550 gnorm: 0.678489365685 xtb: 6.5.1 (b24c23e)
C           46.96387399999999       -0.02771500000000        0.07799100000000
C           47.69774900000000        1.19534400000000        0.70915300000000
C           47.10367900000000        2.21584800000000        1.41617400000000
C           48.12876400000000        3.13747000000000        1.75545800000000
C           49.31318200000000        2.65262400000000        1.23454300000000
N           49.04597100000000        1.44007300000000        0.64937800000000
C           50.73332400000000        3.35754800000000        1.27223800000000
C           50.72505800000000        4.79217700000000        1.59280700000000
C           50.41548000000000        5.68412300000000        0.62719600000000
C           50.34654900000000        7.16507100000000        0.83327900000000
N           50.79334599999999        7.55428300000000        2.16889100000000
C           51.03199700000000        6.62433600000000        3.15406800000000
C           51.02584900000000        5.30583500000000        2.92368300000000
C           51.85932400000000        2.65815200000000        0.96872600000000
C           53.15874200000000        3.29593300000000        0.93928200000000
C           54.06157899999999        2.38927600000000        0.58357500000000
N           52.05718600000000        1.34553700000000        0.62927300000000
C           53.38620200000000        1.12208300000000        0.37759600000000
C           54.05251800000000       -0.00163100000000        0.00077000000000
C           53.27467900000000       -1.37148000000000       -0.19624900000000
C           53.81452999999999       -2.63894300000000       -0.09688400000000
C           52.78851300000000       -3.56626500000000       -0.40716200000000
C           51.64717700000000       -2.84048700000000       -0.67726900000000
N           51.93997600000000       -1.50917100000000       -0.49146300000000
C           50.23395599999999       -3.42324900000000       -1.10128900000000
C           50.24383799999999       -4.75759900000000       -1.71456800000000
C           49.85229400000000       -5.82871700000000       -0.98995100000000
C           49.78169299999999       -7.22788300000000       -1.51755000000000
N           50.33939399999999       -7.33773500000000       -2.86473200000000
C           50.64334800000000       -6.21959600000000       -3.60934300000000
C           50.62524400000000       -4.98061300000000       -3.10322900000000
C           49.11259000000000       -2.68120900000000       -0.90507000000000
C           47.79223600000000       -3.14527800000000       -1.29227300000000
C           46.90606800000000       -2.21207700000000       -0.95618600000000
C           47.62686100000000       -1.11640400000000       -0.35524400000000
N           48.94794600000000       -1.43916300000000       -0.35806900000000
H           45.88668899999999        0.02325200000000       -0.02371200000000
H           46.05322900000000        2.29523300000000        1.64933900000000
H           48.01248800000000        4.06356700000000        2.29782600000000
H           49.74087400000000        0.81772900000000        0.24445500000000
H           50.18825900000000        5.31497400000000       -0.36937500000000
H           49.31483100000000        7.50316300000000        0.68524100000000
H           50.97510200000000        7.66918800000000        0.09181700000000
H           50.49116300000000        8.46495100000000        2.49000300000000
H           51.23793899999999        7.02972100000000        4.13846300000000
H           51.23342700000000        4.57923800000000        3.70198300000000
H           53.36196900000000        4.32972900000000        1.15680400000000
H           55.11298399999999        2.58430400000000        0.47557800000000
H           54.83730499999999       -2.87420500000000        0.15668200000000
H           52.87340900000000       -4.64233600000000       -0.43840100000000
H           51.25714700000000       -0.75641100000000       -0.51528100000000
H           49.54358800000000       -5.67398900000000        0.04134000000000
H           48.73671500000000       -7.55656300000000       -1.53017700000000
H           50.33722800000000       -7.89846000000000       -0.85385100000000
H           50.01453000000000       -8.13069800000000       -3.40332500000000
H           50.90587599999999       -6.40691800000000       -4.64475700000000
H           50.87622100000000       -4.10781200000000       -3.69704200000000
H           47.56852799999999       -4.07993300000000       -1.77362700000000
H           45.84336800000000       -2.25446500000000       -1.11211600000000
C          122.14645199999998       -0.02017000000000        0.08014100000000
C          121.41257600000000       -1.39221300000000       -0.02819000000000
C          122.00664600000000       -2.63211200000000        0.03471200000000
C          120.98156100000000       -3.59414400000000       -0.16276500000000
C          119.79714300000001       -2.90754300000000       -0.34986800000000
N          120.06435399999999       -1.56867400000000       -0.20798700000000
C          118.37700100000001       -3.52645300000000       -0.68940900000000
C          118.38526700000000       -4.91457000000000       -1.17320300000000
C          118.69484500000000       -5.16355600000000       -2.46393100000000
C          118.76377599999999       -6.53068700000000       -3.06942900000000
N          118.31697899999999       -7.56545600000000       -2.13959100000000
C          118.07832900000000       -7.29449100000000       -0.81220600000000
C          118.08447599999998       -6.05259600000000       -0.31298600000000
C          117.25100100000000       -2.77212400000000       -0.57867200000000
C          115.95158300000000       -3.29858700000000       -0.93987500000000
C          115.04874599999998       -2.34061700000000       -0.76424400000000
N          117.05313900000000       -1.47774000000000       -0.17524100000000
C          115.72412300000001       -1.15518800000000       -0.27132900000000
C          115.05780699999998       -0.00163100000000        0.00077000000000
C          115.83564699999998        1.26631100000000        0.55540900000000
C          115.29579499999998        2.29101800000000        1.30794500000000
C          116.32181199999999        3.24260400000000        1.53307600000000
C          117.46314800000000        2.76821800000000        0.92097400000000
N          117.17035000000000        1.53893100000000        0.37711600000000
C          118.87636900000000        3.48695300000000        0.86782400000000
C          118.86648700000001        4.94414400000000        1.05001600000000
C          119.25803100000000        5.47242000000000        2.23039200000000
C          119.32863200000000        6.93952900000000        2.51956000000000
N          118.77093100000000        7.74299800000000        1.43263500000000
C          118.46697700000000        7.18530300000000        0.21048300000000
C          118.48508099999999        5.86564200000000       -0.01250800000000
C          119.99773500000001        2.75294100000000        0.64343200000000
C          121.31808900000000        3.35140400000000        0.55900600000000
C          122.20425700000000        2.38121900000000        0.35270800000000
C          121.48346400000000        1.13335700000000        0.28584200000000
N          120.16237899999999        1.40912500000000        0.45357200000000
H          123.22363599999998       -0.00987300000000       -0.03315100000000
H          123.05709600000000       -2.82247800000000        0.19100900000000
H          121.09783700000000       -4.66702500000000       -0.19002200000000
H          119.36945100000000       -0.82636900000000       -0.22404400000000
H          118.92206600000000       -4.32454900000000       -3.11622900000000
H          119.79549400000001       -6.73996300000000       -3.37344300000000
H          118.13522300000000       -6.56824900000000       -3.96524600000000
H          118.61916199999999       -8.50859900000000       -2.34673700000000
H          117.87238600000001       -8.15787200000000       -0.18935500000000
H          117.87689800000000       -5.84538900000000        0.73140800000000
H          115.74835600000000       -4.29176200000000       -1.29995400000000
H          113.99734099999999       -2.44942400000000       -0.95882000000000
H          114.27302000000000        2.35728400000000        1.64743400000000
H          116.23691599999999        4.17351000000000        2.07374000000000
H          117.85317800000000        0.91179400000000       -0.03991400000000
H          119.56673700000000        4.79732600000000        3.02521900000000
H          120.37361000000000        7.22549600000000        2.68208100000000
H          118.77309699999999        7.15953800000000        3.43703700000000
H          119.09579500000000        8.70075300000000        1.39292300000000
H          118.20444899999998        7.89026800000000       -0.57066700000000
H          118.23410400000000        5.43694600000000       -0.97719200000000
H          121.54179700000000        4.39939700000000        0.64262200000000
H          123.26695700000000        2.49943300000000        0.24254300000000
C           60.59040100000000       -0.00076100000000        0.00932400000000
C           59.38146200000000       -0.01421600000000        0.00087700000000
C           57.95993300000000       -0.00539700000000       -0.01110600000000
C           56.74826400000000        0.00204200000000       -0.00024400000000
C           62.00700599999999       -0.00743600000000        0.00985700000000
C           63.22770100000000        0.00204200000000       -0.00024400000000
C           76.96941499999998       -0.00076100000000        0.00932400000000
C           75.76047600000000       -0.01421600000000        0.00087700000000
C           74.33894700000000       -0.00539700000000       -0.01110600000000
C           73.12727700000001        0.00204200000000       -0.00024400000000
C           78.38601900000000       -0.00743600000000        0.00985700000000
C           79.60671499999998        0.00204200000000       -0.00024400000000
C           93.34842900000000       -0.00076100000000        0.00932400000000
C           92.13948900000000       -0.01421600000000        0.00087700000000
C           90.71795999999999       -0.00539700000000       -0.01110600000000
C           89.50629100000000        0.00204200000000       -0.00024400000000
C           94.76503300000000       -0.00743600000000        0.00985700000000
C           95.98572900000001        0.00204200000000       -0.00024400000000
C          109.72744199999998       -0.00076100000000        0.00932400000000
C          108.51850300000000       -0.01421600000000        0.00087700000000
C          107.09697400000000       -0.00539700000000       -0.01110600000000
C          105.88530400000000        0.00204200000000       -0.00024400000000
C          111.14404600000000       -0.00743600000000        0.00985700000000
C          112.36474199999999        0.00204200000000       -0.00024400000000
C           64.56468900000000        0.00082500000000       -0.00048800000000
C           65.34038099999999       -0.14674100000000        1.37860800000000
C           64.76720400000001       -0.12752600000000        2.63446900000000
C           65.80770300000000       -0.26732200000000        3.58061200000000
C           66.99372000000000       -0.36620300000000        2.88216800000000
N           66.70055400000000       -0.28655400000000        1.54060400000000
C           68.43332200000000       -0.51362500000000        3.52766700000000
C           68.45693100000000       -0.76363800000000        4.97819100000000
C           68.39601500000001       -2.03495000000000        5.42968300000000
C           68.45527600000000       -2.42259300000000        6.87440000000000
N           68.41831300000000       -1.25781100000000        7.75817900000000
C           68.58965700000000        0.01867500000000        7.27130800000000
C           68.60214900000000        0.30187000000000        5.96318400000000
C           69.55923500000000       -0.40486400000000        2.77459700000000
C           70.87134000000000       -0.48390600000000        3.38256100000000
C           71.78326000000000       -0.32323800000000        2.43260400000000
N           69.75602499999999       -0.21349900000000        1.43279500000000
C           71.10086000000000       -0.15939200000000        1.16416500000000
C           71.78372200000000        0.00082500000000       -0.00048800000000
C           71.00667000000000        0.10611800000000       -1.38132000000000
C           71.57314200000000        0.01755000000000       -2.63735600000000
C           70.53271100000001        0.15247900000000       -3.58453200000000
C           69.35425100000000        0.31721400000000       -2.88550200000000
N           69.65013799999998        0.27281000000000       -1.54336800000000
C           67.91827400000000        0.49662500000000       -3.52855800000000
C           67.89904799999999        0.76501200000000       -4.97561700000000
C           68.00327799999999        2.03856800000000       -5.41266900000000
C           67.95200099999998        2.44463700000000       -6.85252700000000
N           67.94716400000000        1.28962400000000       -7.75012000000000
C           67.73124000000000        0.01456200000000       -7.27712000000000
C           67.71245900000000       -0.28304500000000       -5.97234500000000
C           66.79176400000000        0.40013800000000       -2.77471300000000
C           65.48063200000000        0.51582500000000       -3.37841500000000
C           64.56767600000001        0.36145200000000       -2.42864000000000
C           65.24890499999999        0.16407300000000       -1.16407000000000
N           66.59381900000000        0.19420100000000       -1.43506500000000
H           63.71717800000000       -0.01588900000000        2.85637900000000
H           65.70339300000001       -0.28357700000000        4.65546100000000
H           67.38528300000000       -0.28702400000000        0.78812400000000
H           68.31477200000000       -2.84139600000000        4.70571100000000
H           69.37457600000000       -2.98868500000000        7.05941200000000
H           67.60694700000001       -3.07109700000000        7.11592000000000
H           68.78357400000000       -1.41135500000000        8.68979800000000
H           68.71147600000000        0.79134400000000        8.02260000000000
H           68.73201299999999        1.31165900000000        5.58855900000000
H           71.08139000000000       -0.63441200000000        4.42649900000000
H           72.84450399999999       -0.33244000000000        2.60046500000000
H           72.61866300000000       -0.13386000000000       -2.85732600000000
H           70.63167700000000        0.12611000000000       -4.65994600000000
H           68.96813000000000        0.31028700000000       -0.78955900000000
H           68.11549200000000        2.83337100000000       -4.67998400000000
H           67.05091000000000        3.04246900000000       -7.02749200000000
H           68.82015699999999        3.06805700000000       -7.08993400000000
H           67.58214400000000        1.46687300000000       -8.67755300000000
H           67.57792999999999       -0.74418900000000       -8.03656200000000
H           67.54575300000000       -1.29140000000000       -5.60883600000000
H           65.27184600000000        0.68628800000000       -4.41955900000000
H           63.50660499999999        0.39598800000000       -2.59425400000000
C           80.94370200000000        0.00082500000000       -0.00048800000000
C           81.71939500000001       -0.14674100000000        1.37860800000000
C           81.14621800000000       -0.12752600000000        2.63446900000000
C           82.18671600000000       -0.26732200000000        3.58061200000000
C           83.37273399999999       -0.36620300000000        2.88216800000000
N           83.07956700000000       -0.28655400000000        1.54060400000000
C           84.81233600000000       -0.51362500000000        3.52766700000000
C           84.83594400000000       -0.76363800000000        4.97819100000000
C           84.77502900000000       -2.03495000000000        5.42968300000000
C           84.83428999999998       -2.42259300000000        6.87440000000000
N           84.79732599999998       -1.25781100000000        7.75817900000000
C           84.96867000000000        0.01867500000000        7.27130800000000
C           84.98116300000000        0.30187000000000        5.96318400000000
C           85.93824900000000       -0.40486400000000        2.77459700000000
C           87.25035400000000       -0.48390600000000        3.38256100000000
C           88.16227400000000       -0.32323800000000        2.43260400000000
N           86.13503900000001       -0.21349900000000        1.43279500000000
C           87.47987400000000       -0.15939200000000        1.16416500000000
C           88.16273500000000        0.00082500000000       -0.00048800000000
C           87.38568300000000        0.10611800000000       -1.38132000000000
C           87.95215499999999        0.01755000000000       -2.63735600000000
C           86.91172500000000        0.15247900000000       -3.58453200000000
C           85.73326500000000        0.31721400000000       -2.88550200000000
N           86.02915100000000        0.27281000000000       -1.54336800000000
C           84.29728700000000        0.49662500000000       -3.52855800000000
C           84.27806099999999        0.76501200000000       -4.97561700000000
C           84.38229200000001        2.03856800000000       -5.41266900000000
C           84.33101499999999        2.44463700000000       -6.85252700000000
N           84.32617700000000        1.28962400000000       -7.75012000000000
C           84.11025300000000        0.01456200000000       -7.27712000000000
C           84.09147299999999       -0.28304500000000       -5.97234500000000
C           83.17077700000000        0.40013800000000       -2.77471300000000
C           81.85964500000000        0.51582500000000       -3.37841500000000
C           80.94669000000000        0.36145200000000       -2.42864000000000
C           81.62791799999999        0.16407300000000       -1.16407000000000
N           82.97283200000000        0.19420100000000       -1.43506500000000
H           80.09619200000000       -0.01588900000000        2.85637900000000
H           82.08240700000000       -0.28357700000000        4.65546100000000
H           83.76429700000000       -0.28702400000000        0.78812400000000
H           84.69378600000000       -2.84139600000000        4.70571100000000
H           85.75359000000000       -2.98868500000000        7.05941200000000
H           83.98596100000000       -3.07109700000000        7.11592000000000
H           85.16258700000000       -1.41135500000000        8.68979800000000
H           85.09048900000001        0.79134400000000        8.02260000000000
H           85.11102600000000        1.31165900000000        5.58855900000000
H           87.46040299999999       -0.63441200000000        4.42649900000000
H           89.22351800000000       -0.33244000000000        2.60046500000000
H           88.99767700000000       -0.13386000000000       -2.85732600000000
H           87.01069000000000        0.12611000000000       -4.65994600000000
H           85.34714400000000        0.31028700000000       -0.78955900000000
H           84.49450500000000        2.83337100000000       -4.67998400000000
H           83.42992400000000        3.04246900000000       -7.02749200000000
H           85.19917100000001        3.06805700000000       -7.08993400000000
H           83.96115800000000        1.46687300000000       -8.67755300000000
H           83.95694399999999       -0.74418900000000       -8.03656200000000
H           83.92476699999999       -1.29140000000000       -5.60883600000000
H           81.65085900000000        0.68628800000000       -4.41955900000000
H           79.88561799999999        0.39598800000000       -2.59425400000000
C           97.32271600000000        0.00082500000000       -0.00048800000000
C           98.09840899999999       -0.14674100000000        1.37860800000000
C           97.52523100000001       -0.12752600000000        2.63446900000000
C           98.56572999999999       -0.26732200000000        3.58061200000000
C           99.75174699999998       -0.36620300000000        2.88216800000000
N           99.45858099999998       -0.28655400000000        1.54060400000000
C          101.19134900000000       -0.51362500000000        3.52766700000000
C          101.21495799999998       -0.76363800000000        4.97819100000000
C          101.15404200000000       -2.03495000000000        5.42968300000000
C          101.21330300000000       -2.42259300000000        6.87440000000000
N          101.17634000000000       -1.25781100000000        7.75817900000000
C          101.34768399999999        0.01867500000000        7.27130800000000
C          101.36017699999999        0.30187000000000        5.96318400000000
C          102.31726200000000       -0.40486400000000        2.77459700000000
C          103.62936700000000       -0.48390600000000        3.38256100000000
C          104.54128799999999       -0.32323800000000        2.43260400000000
N          102.51405200000001       -0.21349900000000        1.43279500000000
C          103.85888799999999       -0.15939200000000        1.16416500000000
C          104.54174899999998        0.00082500000000       -0.00048800000000
C          103.76469700000000        0.10611800000000       -1.38132000000000
C          104.33116900000000        0.01755000000000       -2.63735600000000
C          103.29073800000000        0.15247900000000       -3.58453200000000
C          102.11227900000000        0.31721400000000       -2.88550200000000
N          102.40816499999998        0.27281000000000       -1.54336800000000
C          100.67630100000000        0.49662500000000       -3.52855800000000
C          100.65707500000001        0.76501200000000       -4.97561700000000
C          100.76130600000000        2.03856800000000       -5.41266900000000
C          100.71002799999998        2.44463700000000       -6.85252700000000
N          100.70519100000000        1.28962400000000       -7.75012000000000
C          100.48926700000000        0.01456200000000       -7.27712000000000
C          100.47048700000001       -0.28304500000000       -5.97234500000000
C           99.54979100000000        0.40013800000000       -2.77471300000000
C           98.23865899999998        0.51582500000000       -3.37841500000000
C           97.32570300000000        0.36145200000000       -2.42864000000000
C           98.00693199999999        0.16407300000000       -1.16407000000000
N           99.35184599999999        0.19420100000000       -1.43506500000000
H           96.47520500000000       -0.01588900000000        2.85637900000000
H           98.46141999999999       -0.28357700000000        4.65546100000000
H          100.14331099999998       -0.28702400000000        0.78812400000000
H          101.07279900000000       -2.84139600000000        4.70571100000000
H          102.13260300000000       -2.98868500000000        7.05941200000000
H          100.36497400000000       -3.07109700000000        7.11592000000000
H          101.54160100000000       -1.41135500000000        8.68979800000000
H          101.46950300000000        0.79134400000000        8.02260000000000
H          101.49003999999999        1.31165900000000        5.58855900000000
H          103.83941700000000       -0.63441200000000        4.42649900000000
H          105.60253199999998       -0.33244000000000        2.60046500000000
H          105.37669099999998       -0.13386000000000       -2.85732600000000
H          103.38970399999999        0.12611000000000       -4.65994600000000
H          101.72615800000000        0.31028700000000       -0.78955900000000
H          100.87351900000000        2.83337100000000       -4.67998400000000
H           99.80893700000000        3.04246900000000       -7.02749200000000
H          101.57818500000000        3.06805700000000       -7.08993400000000
H          100.34017100000000        1.46687300000000       -8.67755300000000
H          100.33595699999999       -0.74418900000000       -8.03656200000000
H          100.30378000000000       -1.29140000000000       -5.60883600000000
H           98.02987299999998        0.68628800000000       -4.41955900000000
H           96.26463200000001        0.39598800000000       -2.59425400000000
316
 energy: -522.277272522890 gnorm: 0.416097942496 xtb: 6.5.1 (b24c23e)
C           46.99226714523486        0.00236951663330        0.09332662145982
C           47.69518195043609        1.17936628259130        0.70190598838990
C           47.10924179594699        2.22272791409390        1.41361316020903
C           48.12683295274927        3.13746292732291        1.74832531824908
C           49.33181816463568        2.65412603740120        1.23430455061918
N           49.04722529950624        1.43963543074663        0.64644244761378
C           50.69797581814526        3.33093775887523        1.27205180269591
C           50.71532720447382        4.78493596616103        1.58953260340358
C           50.41476434859653        5.67529613836847        0.62663982270158
C           50.34689359021916        7.16194831989829        0.83488336056570
N           50.79680380753763        7.55186887963177        2.17227356141825
C           51.02760726645128        6.62056739755236        3.15324959919721
C           51.02652366735823        5.29599688796476        2.92154359411474
C           51.86045670409005        2.65002472136457        0.96450687520479
C           53.16092549321980        3.30197158489706        0.94052250016484
C           54.07163677316014        2.38937577365427        0.58266786858979
N           52.04952765036532        1.33778244501635        0.62423254841117
C           53.38944641263523        1.11683365825787        0.37860498878222
C           54.02109336916959       -0.03866659726282       -0.00003287242900
C           53.28402400598770       -1.35345735533860       -0.18675715670775
C           53.81370958379922       -2.64125783524864       -0.10405899187597
C           52.79265552757032       -3.56064932875566       -0.41181494276722
C           51.63131704627952       -2.83862967497494       -0.68087695490922
N           51.94311942932025       -1.50537541321378       -0.49554496037147
C           50.27159194821284       -3.39999872719398       -1.09272810863723
C           50.24887162861849       -4.75381126549373       -1.70543209831332
C           49.85251632591371       -5.82054404856595       -0.98647557500517
C           49.78213514305186       -7.22425505123162       -1.51810898519467
N           50.34273997774242       -7.33482417506934       -2.86717418711052
C           50.63746882497050       -6.21558828450141       -3.60835070604903
C           50.62868906261993       -4.97223456596652       -3.09803535800696
C           49.11475266362708       -2.67303995185955       -0.90568355213028
C           47.79193670649979       -3.15376648682454       -1.29587056107943
C           46.90087103870570       -2.21558348901983       -0.95872243799880
C           47.63701274973769       -1.11628220846565       -0.35788942145137
N           48.96114409060296       -1.43225893858153       -0.35494005020526
H           45.90562582946981        0.03693452484027       -0.01119079465876
H           46.05795218389606        2.29917490843133        1.65053276067145
H           48.01037463258248        4.06100961317024        2.29616626233715
H           49.74029474082630        0.81806336474388        0.24420188407877
H           50.18577061868055        5.31803958454212       -0.37142652067740
H           49.31250573946706        7.50522828136215        0.68365752927688
H           50.97539540424341        7.67063607036721        0.09118383104668
H           50.49270731369321        8.46281861117199        2.48787164864266
H           51.23776846804404        7.03042733655721        4.13646685151912
H           51.23507383094083        4.57916460921924        3.70388504935545
H           53.35813503369933        4.33647692313209        1.15927725676721
H           55.12306830833664        2.57741975109276        0.47284218041139
H           54.83499185218472       -2.87641875684905        0.15454019854196
H           52.87584452546766       -4.63799233381196       -0.43806359893636
H           51.25990752335019       -0.75631391686594       -0.51606325546015
H           49.54255102857621       -5.67777572349171        0.04301516924611
H           48.73416964161729       -7.55869414725964       -1.52941039031166
H           50.33717574982440       -7.90006021909360       -0.85358589475618
H           50.01629549727806       -8.12978285024418       -3.40062002848724
H           50.90530198662326       -6.40786884974304       -4.64295626579627
H           50.87937590587878       -4.10767299912377       -3.69810546854278
H           47.57233611065457       -4.08905228958097       -1.77656076273630
H           45.83694837199783       -2.25246808523866       -1.11151423346905
C          122.11805763887874       -0.05381973710913        0.07731536153325
C          121.41514311248811       -1.37481440501127       -0.02592827385403
C          122.00108306152629       -2.63660914454711        0.02890935051877
C          120.98349133829572       -3.59037714267941       -0.16882199501047
C          119.77850528379763       -2.90869095363859       -0.35086213309521
N          120.06309918217090       -1.56675488072164       -0.21024818957646
C          118.41234050360603       -3.50373377869898       -0.67554236840757