187
 energy: -321.226253054403 gnorm: 4.815744900633 xtb: 6.5.1 (b24c23e)
Ni          31.38670200000000       -0.03299300000000        0.03171800000000
C           28.04510900000000        0.11029500000000        0.02221600000000
C           28.70737700000000        1.14936800000000       -0.49457400000000
C           28.05682900000000        2.29722400000000       -1.11475900000000
C           28.99704400000000        3.14571000000000       -1.48720300000000
C           30.30196700000000        2.58484500000000       -1.11033600000000
N           30.12481300000000        1.31134000000000       -0.48857300000000
C           31.49408900000000        3.18696000000000       -1.30297400000000
C           31.54381200000000        4.53249200000000       -1.91969400000000
C           32.10075200000000        4.70047100000000       -3.19637700000000
C           32.16401000000000        5.97147600000000       -3.77503400000000
C           31.67500300000000        7.08801500000000       -3.08210400000000
N           31.73991300000000        8.38783200000000       -3.67461200000000
C           31.12395400000000        6.92210900000000       -1.80355000000000
C           31.06103900000000        5.65175800000000       -1.22353500000000
C           32.78527700000000        2.56183200000000       -0.91290600000000
C           34.06873300000000        3.27447200000000       -0.90673600000000
C           35.00324600000000        2.41910300000000       -0.54484900000000
N           32.92793900000000        1.31994200000000       -0.56398800000000
C           34.32313200000000        1.15071000000000       -0.31332000000000
C           34.91733000000000       -0.00742500000000        0.01708700000000
C           34.15374700000000       -1.25343600000000        0.24989200000000
C           34.68426800000000       -2.46962100000000        0.23004000000000
C           33.64137200000000       -3.40122100000000        0.61378400000000
C           32.54373800000000       -2.69114200000000        0.84755300000000
N           32.77758400000000       -1.29929900000000        0.62712800000000
C           31.26512500000000       -3.26216500000000        1.34306300000000
C           31.28794500000000       -4.60015200000000        1.98297300000000
C           32.02689700000000       -4.80411700000000        3.15850300000000
C           32.06787300000000       -6.06777200000000        3.75496400000000
C           31.37569000000000       -7.14284100000000        3.18002400000000
N           31.41808800000000       -8.43519700000000        3.79063100000000
C           30.64423000000000       -6.94328100000000        2.00081700000000
C           30.60317800000000       -5.68033000000000        1.40300500000000
C           30.10306700000000       -2.59105500000000        1.22697400000000
C           28.79573600000000       -3.03369000000000        1.70891900000000
C           27.93407400000000       -2.10710500000000        1.33621200000000
C           28.68253100000000       -1.06827600000000        0.63056700000000
N           29.94739100000000       -1.33973500000000        0.56078200000000
H           26.96174600000000        0.12825800000000       -0.00124300000000
H           26.99351800000000        2.44076600000000       -1.25800800000000
H           28.80924400000000        4.08757800000000       -1.98579700000000
H           32.48381400000000        3.84685300000000       -3.74217000000000
H           32.59435800000000        6.08639900000000       -4.76189400000000
H           32.14924200000000        8.52177700000000       -4.62612400000000
H           31.37892200000000        9.22573500000000       -3.16620500000000
H           30.74576000000000        7.77654400000000       -1.25655200000000
H           30.63836200000000        5.53879600000000       -0.23266700000000
H           34.23965100000000        4.31487100000000       -1.15018500000000
H           36.05702100000000        2.64435000000000       -0.44870900000000
H           35.70994900000000       -2.72486900000000       -0.00036800000000
H           33.75011800000000       -4.47319600000000        0.71595100000000
H           32.56787800000000       -3.98335600000000        3.61349300000000
H           32.63925200000000       -6.20932200000000        4.66370500000000
H           31.96107700000000       -8.59410700000000        4.66856800000000
H           30.90658700000000       -9.24253100000000        3.36938200000000
H           30.10916600000000       -7.76627300000000        1.54397700000000
H           30.04174000000000       -5.54376100000000        0.48684000000000
H           28.55389900000000       -3.93174000000000        2.26188300000000
H           26.86952000000000       -2.12334900000000        1.52960300000000
Ni          58.85950499999999        0.01889800000000        0.00386000000000
C           62.20109799999999       -0.06819200000000        0.11803900000000
C           61.53883000000000       -1.07305000000000        0.69856300000000
C           62.18937800000000       -2.22419200000000        1.31262700000000
C           61.24916300000000       -3.00343200000000        1.81405100000000
C           59.94424000000000       -2.37942300000000        1.55480200000000
N           60.12139400000000       -1.15754200000000        0.83688100000000
C           58.75211800000000       -2.87267000000000        1.95022400000000
C           58.70239500000000       -4.13014600000000        2.73096500000000
C           58.14545399999999       -5.28706800000000        2.16557500000000
C           58.08219700000000       -6.47163900000000        2.90522900000000
C           58.57120400000000       -6.51100200000000        4.21872100000000
N           58.50629400000000       -7.72303800000000        4.97473600000000
C           59.12225299999999       -5.35366500000000        4.78687400000000
C           59.18516799999999       -4.16832400000000        4.04851500000000
C           57.46092999999999       -2.20215000000000        1.64470500000000
C           56.17747400000000       -2.59076000000000        2.24209800000000
C           55.24296100000000       -1.81651500000000        1.72910200000000
N           57.31826800000000       -1.22515200000000        0.80238200000000
C           55.92307500000000       -0.92271700000000        0.79982900000000
C           55.32887700000000       -0.00742500000000        0.01708700000000
C           56.09246000000000        0.87507100000000       -0.89282800000000
C           55.56193900000000        1.53049900000000       -1.91748100000000
C           56.60483500000000        2.36508100000000       -2.48193600000000
C           57.70246900000000        2.16758900000000       -1.76092500000000
N           57.46862200000000        1.21483600000000       -0.72262200000000
C           58.98108200000000        2.89610000000000       -1.96308900000000
C           58.95826200000000        4.16873500000000       -2.72472800000000
C           58.21931000000000        5.26123000000000       -2.24522100000000
C           58.17833400000000        6.45657900000000       -2.96891100000000
C           58.87051699999999        6.57137300000000       -4.18264700000000
N           58.82811900000000        7.79437200000000       -4.92244300000000
C           59.60197700000000        5.47824700000000       -4.66785700000000
C           59.64302899999999        4.28216000000000       -3.94549900000000
C           60.14313900000000        2.42853500000000       -1.46786400000000
C           61.45047099999999        3.07480100000000       -1.57051000000000
C           62.31213300000000        2.25218900000000       -1.00413700000000
C           61.56367599999999        1.09005600000000       -0.52816400000000
N           60.29881600000000        1.18187900000000       -0.79298300000000
H           63.28446100000000       -0.09767100000000        0.12005000000000
H           63.25268900000000       -2.42289900000000        1.35312000000000
H           61.43696299999999       -3.93941500000000        2.32360800000000
H           57.76239300000000       -5.27033700000000        1.15252200000000
H           57.65184799999999       -7.35768100000000        2.45575100000000
H           58.09696499999999       -8.59012700000000        4.56064400000000
H           58.86728500000000       -7.76224600000000        5.95403300000000
H           59.50044700000000       -5.36984300000000        5.80127200000000
H           59.60784500000000       -3.28002400000000        4.50184200000000
H           56.00655600000000       -3.36852200000000        2.97475300000000
H           54.18918600000000       -1.86083800000000        1.96996500000000
H           54.53625800000000        1.47948600000000       -2.25753500000000
H           56.49608800000000        3.04253100000000       -3.31897400000000
H           57.67832900000000        5.18697000000000       -1.30972600000000
H           57.60695500000000        7.29222100000000       -2.58479000000000
H           58.28513000000000        8.61393100000000       -4.56981000000000
H           59.33961999999999        7.88933600000000       -5.82810300000000
H           60.13704100000000        5.55219700000000       -5.60623300000000
H           60.20446600000000        3.44308300000000       -4.33787400000000
H           61.69230800000000        4.03189000000000       -2.01350400000000
H           63.37668699999999        2.42235400000000       -0.91082300000000
C           38.01298400000000        0.00501200000000        0.01952800000000
C           36.76071300000000       -0.01416900000000        0.01518000000000
C           39.32665200000000        0.00424600000000        0.02146100000000
C           40.82978500000000       -0.01416900000000        0.01518000000000
C           50.75869800000000        0.00501200000000        0.01952800000000
C           49.50642700000000       -0.01416900000000        0.01518000000000
C           52.07236600000000        0.00424600000000        0.02146100000000
C           53.57549999999999       -0.01416900000000        0.01518000000000
Ni          45.15767900000000       -0.03928100000000        0.04503300000000
C           41.67349300000000        0.01702200000000       -0.03681100000000
C           42.33035300000000        1.12691800000000       -0.42075800000000
C           41.68562800000000        2.35900400000000       -0.88087700000000
C           42.62365199999999        3.25460100000000       -1.11538600000000
C           43.92649999999999        2.64681200000000       -0.82561800000000
N           43.75008200000000        1.29679100000000       -0.38810900000000
C           45.11053600000000        3.28917100000000       -0.91262900000000
C           45.13191400000000        4.70926600000000       -1.32674500000000
C           44.99824199999999        5.05256000000000       -2.68056600000000
C           45.01526900000000        6.39530200000000       -3.06968900000000
C           45.16885700000000        7.40668900000000       -2.11001500000000
N           45.18678400000000        8.78001600000000       -2.50880400000000
C           45.30451100000000        7.06260000000000       -0.75694900000000
C           45.28540599999999        5.72034400000000       -0.36657600000000
C           46.41402500000000        2.64536200000000       -0.60847100000000
C           47.69293999999999        3.36646600000000       -0.57401700000000
C           48.64442699999999        2.48972000000000       -0.32813800000000
N           46.57746800000000        1.37539700000000       -0.40001000000000
C           47.98171499999999        1.19723600000000       -0.21207800000000
C           48.59680600000000        0.01702200000000       -0.03681100000000
C           47.85144799999999       -1.25740500000000        0.05832000000000
C           48.39994900000000       -2.45703700000000       -0.08702500000000
C           47.36742600000000       -3.43754500000000        0.18315700000000
C           46.25752600000000       -2.77090700000000        0.47834400000000
N           46.47205000000000       -1.36122100000000        0.41037800000000
C           44.99231000000000       -3.40717400000000        0.92048400000000
C           45.04549300000000       -4.79518900000000        1.44024700000000
C           44.40053100000000       -5.83811100000000        0.75404300000000
C           44.46668000000000       -7.14723200000000        1.24033100000000
C           45.18232399999999       -7.42917600000000        2.41358500000000
N           45.24648899999999       -8.76782000000000        2.91320300000000
C           45.83556299999999       -6.39013900000000        3.09383700000000
C           45.77127200000000       -5.08101800000000        2.60722600000000
C           43.81636200000000       -2.75159200000000        0.87779100000000
C           42.53376799999999       -3.26544000000000        1.34741300000000
C           41.64550000000000       -2.32961700000000        1.08395300000000
C           42.34893700000000       -1.20924200000000        0.44922600000000
N           43.61868599999999       -1.44802400000000        0.32868100000000
H           40.62626599999999        2.54081500000000       -1.00475700000000
H           42.43425499999999        4.26525000000000       -1.45477500000000
H           44.87910600000000        4.28026000000000       -3.43109000000000
H           44.90931799999999        6.64746200000000       -4.11750300000000
H           45.08767700000000        9.04604100000000       -3.51389700000000
H           45.30428100000000        9.54022700000000       -1.80184100000000
H           45.42498400000000        7.83407300000000       -0.00641900000000
H           45.39089900000000        5.46734800000000        0.68161800000000
H           47.85191499999999        4.42558600000000       -0.72742400000000
H           49.69949000000000        2.71452800000000       -0.24762100000000
H           49.43126100000000       -2.67315000000000       -0.33076100000000
H           47.49314499999999       -4.51270800000000        0.18154300000000
H           43.84936100000000       -5.63587300000000       -0.15677300000000
H           43.96207400000000       -7.94151300000000        0.70269500000000
H           45.77640000000000       -8.98794100000000        3.78638200000000
H           44.76113200000000       -9.54828200000000        2.41633700000000
H           46.39408900000000       -6.59469600000000        3.99990600000000
H           46.28189500000000       -4.28862500000000        3.14238600000000
H           42.32614800000000       -4.21301700000000        1.82730900000000
H           40.59106000000000       -2.39666400000000        1.31525400000000
187
 energy: -322.571964439242 gnorm: 0.737837463080 xtb: 6.5.1 (b24c23e)
Ni          31.38906539145046       -0.03231294259885        0.03159584018747
C           28.04541160961985        0.10444844048339        0.02531689458995
C           28.71117445954221        1.15096583484520       -0.49541441398356
C           28.05590221950754        2.29503154860302       -1.11374893092204
C           29.00021991452418        3.14680175343456       -1.48754451431287
C           30.30030598312846        2.58135664898754       -1.10907933231947
N           30.12006464256559        1.31472440200653       -0.49026351696613
C           31.49981668136327        3.18606572112185       -1.30202617796050
C           31.54449977024069        4.53315878974042       -1.91964668580643
C           32.10050177916169        4.70231496520151       -3.19586786243339
C           32.16365263209004        5.97126633610835       -3.77425356824337
C           31.67517717983957        7.09156941317126       -3.08372803023780
N           31.73986815743738        8.38691381313424       -3.67419156534320
C           31.12420281714297        6.92135093183452       -1.80392462851017
C           31.06139495043755        5.65249022510431       -1.22528014700909
C           32.78175271142204        2.56770939117770       -0.91544092533705
C           34.06434970668258        3.27729821937773       -0.90842017304549
C           35.00397683635335        2.41612563077060       -0.54396119156554
N           32.92987700436334        1.31604474396395       -0.56119302868964
C           34.32426125905531        1.15158942226914       -0.31337909686969
C           34.92705524002520       -0.01215037914910        0.01736167414120
C           34.15231512118557       -1.24532886335269        0.25075729606284
C           34.68441566181078       -2.47846042127664        0.23142015872467
C           33.64974698320729       -3.40239048902478        0.61217341427078
C           32.53724961619188       -2.68594803706213        0.84945075089521
N           32.77820776672895       -1.30072750460928        0.62513648383228
C           31.26973564036473       -3.26062413028739        1.34186033482090
C           31.28884378376115       -4.60028172355262        1.98244534834916
C           32.02649639576271       -4.80588565983454        3.15807690547030
C           32.06739395448076       -6.06741893541745        3.75423016352278
C           31.37580575633162       -7.14646182886372        3.18173757430928
N           31.41805189018154       -8.43421565942112        3.79016561161174
C           30.64459592940026       -6.94246460944616        2.00107366836305
C           30.60367070354894       -5.68096270957915        1.40467644857228
C           30.10184427693523       -2.59000384758667        1.22676788570024
C           28.79911807981663       -3.03475629576408        1.70892689340372
C           27.93139972333442       -2.10343629376586        1.33439237344575
C           28.67556181794051       -1.06438870778388        0.62893234228108
N           29.95107627051632       -1.34139292150915        0.56218085458960
H           26.96181751901168        0.12781204146882       -0.00083104100082
H           26.99355626552658        2.43976087959603       -1.25750401621285
H           28.81058538176296        4.08766617165593       -1.98573278952811
H           32.48369464295548        3.84695895842197       -3.74197572928414
H           32.59433044301959        6.08648915439402       -4.76191956900850
H           32.14734742796870        8.52083898781276       -4.62160830947612
H           31.38056445582809        9.22156614205577       -3.16839195028630
H           30.74579788614252        7.77662239191495       -1.25659959022034
H           30.63849245526267        5.53870572546198       -0.23286518327850
H           34.23852232945187        4.31512239901445       -1.15043242878961
H           36.05688507659917        2.64301497221090       -0.44835769469848
H           35.70981950442715       -2.72527954733710       -0.00033823789122
H           33.75056732321639       -4.47308184664240        0.71571854579845
H           32.56772999146975       -3.98345426368667        3.61331318149450
H           32.63921039827657       -6.20938966082322        4.66372814287949
H           31.95857781972957       -8.59305296899340        4.66438444091338
H           30.90892623556420       -9.23850481633438        3.37116030739104
H           30.10921398326398       -7.76633542560903        1.54400708650122
H           30.04190704177273       -5.54368015125072        0.48700027731469
H           28.55518506766747       -3.93174421000700        2.26168326776586
H           26.86933011638532       -2.12245711072923        1.52915544743138
Ni          58.85715016015996        0.01841561924508        0.00435766183105
C           62.20079888152883       -0.06237603712120        0.11487918622718
C           61.53503421429786       -1.07464112216764        0.69943796163336
C           62.19030823459544       -2.22213098028965        1.31135338391863
C           61.24597432874739       -3.00431885000916        1.81477469839370
C           59.94591766592143       -2.37645875543969        1.55259011771320
N           60.12614418371451       -1.16081908141563        0.83875867064600
C           58.74636828915401       -2.87139026739321        1.95000258760957
C           58.70170950404002       -4.13047401389920        2.73154240735330
C           58.14570349755359       -5.28766180658168        2.16739258750638
C           58.08255506689306       -6.47087211665841        2.90548577700948
C           58.57102960242107       -6.51431720514211        4.22078502668480
N           58.50633930466457       -7.72218219729673        4.97420394673217
C           59.12200366773082       -5.35355836847319        4.78603445424225
C           59.18481377501186       -4.17018206035418        4.04815986529529
C           57.46444488415813       -2.20758740069379        1.64830122580379
C           56.18196608780222       -2.59376860967446        2.24354383630961
C           55.24227867052608       -1.81404935091788        1.72704657495547
N           57.31617510053039       -1.22055054000491        0.80065205960322
C           55.92234771440385       -0.92371686654163        0.80082993304404
C           55.31734350925610       -0.00449001445738        0.01322030875307
C           56.09402685259226        0.87156666022051       -0.88576755519643
C           55.56180808472572        1.53647454204324       -1.92405197402036
C           56.59651648045127        2.36440648010920       -2.48379650567869
C           57.70893598649410        2.16631108282967       -1.75557920699871
N           57.46795243796708        1.21393219953758       -0.72490158176641
C           58.97648364918794        2.89425341514834       -1.96247421947000
C           58.95736378125886        4.16836678008087       -2.72512276008939
C           58.21970717109931        5.26185523981207       -2.24693088151419
C           58.17881291490418        6.45577114529927       -2.96901960748355
C           58.87039964797103        6.57480855942409       -4.18472307473046
N           58.82815946163079        7.79343712748329       -4.92187597878407
C           59.60161183491701        5.47800780622247       -4.66703405598863
C           59.64253961526792        4.28390331088677       -3.94510335476900
C           60.14436015948242        2.42778858874243       -1.46710880645140
C           61.44708756297486        3.07539662442905       -1.57139431022613
C           62.31480717647342        2.24864534484866       -1.00208489172505
C           61.57064018466111        1.08655234260783       -0.52583067902500
N           60.29513743064208        1.18395747677199       -0.79358703710330
H           63.28438958708769       -0.09708173184327        0.11990512953049
H           63.25265075694111       -2.42192307329187        1.35256005012135
H           61.43562086574654       -3.93940973567504        2.32371699193149
H           57.76251213421015       -5.27023328445633        1.15271803602839
H           57.65187553367829       -7.35775206104797        2.45581190844542
H           58.09885965995466       -8.58584463626234        4.56235729709180
H           58.86564239272982       -7.76176516381076        5.94935012399427
H           59.50040877545494       -5.36992572472680        5.80131089120885
H           59.60771443390620       -3.28013948053140        4.50165732458730
H           56.00768533737533       -3.36886918019387        2.97482368051881
H           54.18930641360997       -1.85978415839487        1.96901455830987
H           54.53637778553725        1.47972619819698       -2.25784786016313
H           56.49563795498472        3.04227428582733       -3.31900226084152
H           57.67847682082176        5.18687454359901       -1.30990731530236
H           57.60699680352742        7.29227661202219       -2.58483346542113
H           58.28762708325357        8.60986039137968       -4.57124397290333
H           59.33727894813352        7.88859272895450       -5.82376553407724
H           60.13699247799561        5.55225565481830       -5.60626810408086
H           60.20429890555983        3.44317142361887       -4.33771837741518
H           61.69102169301541        4.03172536985719       -2.01361791542291
H           63.37687664141603        2.42148786472924       -0.91032665536800
C           38.00845821057631        0.00462799926973        0.01972448386058
C           36.74915327772707       -0.01467396800334        0.01547240177183
C           39.32146400681157        0.00396468685686        0.02163785376328
C           40.61227004832671       -0.02494090899641        0.02724009416157
C           50.79732485243432        0.00410005362745        0.02050647201349
C           49.64293459809198       -0.02300024338644        0.02348924686240
C           52.10064699695641        0.00432080231272        0.02138158583170
C           53.56405272150796       -0.01326218899538        0.01487173287860
Ni          45.15637406206822       -0.03889716799311        0.04348956166575
C           41.84454593436012        0.01809167943549       -0.04446032512265
C           42.36022277484771        1.14310131420996       -0.42721792340887
C           41.68454130953766        2.35335216173223       -0.87910287689964
C           42.62869641308345        3.25647793460568       -1.11561364922475
C           43.92376699422369        2.64456746782010       -0.82537173223757
N           43.74778868421211        1.30281749346941       -0.38950247445481
C           45.11726231810758        3.28818792961872       -0.91169545262749
C           45.13233119408875        4.71011815684781       -1.32686591971080
C           44.99821852209199        5.05424141103108       -2.67970296941906
C           45.01534613314931        6.39501744214535       -3.06881504099872
C           45.16892009078868        7.41045439503755       -2.11111098954526
N           45.18676796942604        8.77899100725444       -2.50847772539019
C           45.30440896818389        7.06194874180366       -0.75753183921909
C           45.28549442638919        5.72141539960689       -0.36817895481996
C           46.41015845095162        2.65459808166660       -0.61055333922623
C           47.68684180098638        3.36996193487838       -0.57548092322612
C           48.64498305417557        2.48413221360383       -0.32730405161302
N           46.57897486379374        1.37250696864457       -0.39839589998603
C           47.95915401688236        1.21138345743281       -0.21482019609190
C           48.46313208878605        0.01573167187581       -0.04302085823617
C           47.83262902783490       -1.25826431853666        0.05972117702950
C           48.40009176915250       -2.46452742967773       -0.08667804379964
C           47.37531805656120       -3.43865375611812        0.18180581974086
C           46.25074489819676       -2.76709189072740        0.48099908118599
N           46.47204150057603       -1.36392951477161        0.40943562023350
C           44.99722029400689       -3.40563976402065        0.91943085098701
C           45.04632557889740       -4.79529921736338        1.43968063843717
C           44.40096455366299       -5.83890157704867        0.75570871653054
C           44.46703545431401       -7.14641991474849        1.24067929173249
C           45.18249945949120       -7.43300189945974        2.41505382478369
N           45.24643702520667       -8.76667662201196        2.91277939261999
C           45.83507253173570       -6.38976032115093        3.09309678782459
C           45.77096286910071       -5.08276587552622        2.60666780889550
C           43.81469410510916       -2.75138596982033        0.87796492263605
C           42.53784983139489       -3.26679514474984        1.34719802626679
C           41.64250983471324       -2.32413648966030        1.08186880341885
C           42.36047182996276       -1.21520011982323        0.45199836008257
N           43.62511253031880       -1.45214931831011        0.33079826391347
H           40.62615110610632        2.53895060057175       -1.00418087595348
H           42.43558412103764        4.26519328362769       -1.45474156839905
H           44.87917134132932        4.28036638274366       -3.43083035371811
H           44.90934624130627        6.64754322282404       -4.11747069060925
H           45.08814083896313        9.04447877531403       -3.50917905242856
H           45.30374157457612        9.53637684178574       -1.80501043651491
H           45.42495239280174        7.83412361195020       -0.00649317570272
H           45.39084548778883        5.46730785338381        0.68134371257967
H           47.85076557818415        4.42586469122509       -0.72756541238398
H           49.69933049700980        2.71283802054309       -0.24733306927159
H           49.43112705542727       -2.67325886342170       -0.33089816532695
H           47.49360300788270       -4.51252493402845        0.18129401823800
H           43.84955797842240       -5.63580597477569       -0.15655323809040
H           43.96218559741774       -7.94148911886718        0.70278237872007
H           45.77393630472543       -8.98657956965617        3.78222168097878
H           44.76335696705469       -9.54433697852485        2.41849711974897
H           46.39398014865227       -6.59475292413032        3.99980835716337
H           46.28171086616148       -4.28876153365499        3.14215051045743
H           42.32736631659078       -4.21290022643234        1.82702222830541
H           40.59069718225175       -2.39524558238894        1.31461979191645
187
 energy: -322.812457430143 gnorm: 0.450374266969 xtb: 6.5.1 (b24c23e)
Ni          31.39894958876806       -0.02474496151755        0.03058220439888
C           28.04656544984791        0.09071705061333        0.03282917300713
C           28.71743366186868        1.14938742513718       -0.49567474844238
C           28.05806332215562        2.28814233231749       -1.11063945577473
C           29.01149032892378        3.14644355512372       -1.48681079101755
C           30.30180922638352        2.57313390242504       -1.10693393802120
N           30.10680118648259        1.32312525277120       -0.49437693604067