138
 energy: -217.786275938448 gnorm: 1.014100814812 xtb: 6.5.1 (b24c23e)
Co          16.94403500000000       -0.00526400000000       -0.00645300000000
C           13.58534700000000        0.19799600000000       -0.24176300000000
C           14.24966600000000        1.29883300000000        0.11971200000000
C           13.60001700000000        2.54232100000000        0.51715800000000
C           14.54273100000000        3.41816100000000        0.80731000000000
C           15.84845300000000        2.77739400000000        0.59999800000000
N           15.66928700000000        1.42883700000000        0.16692600000000
C           17.04362500000000        3.37290100000000        0.78627200000000
C           18.33894200000000        2.68144000000000        0.55845000000000
C           19.63571200000000        3.36808200000000        0.55934700000000
C           20.56889500000000        2.46511400000000        0.34228000000000
N           18.47181200000000        1.40719100000000        0.34650500000000
C           19.87526900000000        1.19011100000000        0.19898800000000
C           20.46685800000000        0.00000000000000        0.00000000000000
C           19.70829000000000       -1.26647500000000       -0.14110900000000
C           20.26547800000000       -2.47099900000000       -0.12479400000000
C           19.21824200000000       -3.43658300000000       -0.38476900000000
C           18.08407400000000       -2.76225100000000       -0.53957200000000
C           16.78212100000000       -3.38680000000000       -0.89820500000000
C           16.75705500000000       -4.82859400000000       -1.23277000000000
C           16.69057800000000       -5.24164600000000       -2.57103000000000
C           16.68593600000000       -6.60755600000000       -2.89053400000000
C           16.58015500000000       -7.04742600000000       -4.32086100000000
C           16.71374200000000       -7.55959300000000       -1.85958000000000
C           16.77080600000000       -7.15450200000000       -0.51773900000000
C           16.83755100000000       -8.18508800000000        0.57079200000000
C           16.80234300000000       -5.78610500000000       -0.20926800000000
C           15.62897700000000       -2.69240100000000       -0.91206300000000
C           14.30830600000000       -3.23284200000000       -1.23058500000000
C           13.45305200000000       -2.24833700000000       -1.04114800000000
C           14.21673500000000       -1.08039800000000       -0.60554200000000
N           15.48695400000000       -1.32739000000000       -0.52637500000000
N           18.30429300000000       -1.35703700000000       -0.39258900000000
C           17.09315700000000        4.78316600000000        1.23097200000000
C           16.77767400000000        5.81865700000000        0.33919200000000
C           16.82066000000000        7.15493300000000        0.76247900000000
C           16.50051500000000        8.26394900000000       -0.19606200000000
C           17.22129600000000        7.45304300000000        2.07350700000000
C           17.56232400000000        6.42448600000000        2.96455300000000
C           17.94465500000000        6.74525700000000        4.37921400000000
C           17.48120800000000        5.08960000000000        2.54253500000000
H           12.50239600000000        0.23497500000000       -0.26004200000000
H           12.53540300000000        2.72887400000000        0.57653400000000
H           14.35679800000000        4.43084600000000        1.13994000000000
H           19.81563700000000        4.42499200000000        0.70581000000000
H           21.63113300000000        2.66262800000000        0.28753800000000
H           21.31111700000000       -2.70246300000000        0.02539000000000
H           19.35380500000000       -4.50626800000000       -0.47121300000000
H           16.64649400000000       -4.50023900000000       -3.36083600000000
H           17.08265300000000       -8.02718900000000       -4.46841800000000
H           15.50983300000000       -7.14388100000000       -4.59838600000000
H           17.06467800000000       -6.30877100000000       -4.99499200000000
H           16.69260600000000       -8.61605800000000       -2.10107500000000
H           16.66898700000000       -7.72986900000000        1.57110800000000
H           16.05878100000000       -8.96002400000000        0.40731500000000
H           17.83672899999999       -8.66912800000000        0.56161600000000
H           16.85911000000000       -5.46239000000000        0.82415300000000
H           14.05445600000000       -4.23619600000000       -1.54568300000000
H           12.38145300000000       -2.30984900000000       -1.17831600000000
H           16.49364800000000        5.58315300000000       -0.67984200000000
H           16.01161200000000        9.10780200000000        0.33597000000000
H           15.80932400000000        7.91206000000000       -0.99100600000000
H           17.43779600000000        8.62761500000000       -0.66599800000000
H           17.26711200000000        8.48585900000000        2.39958500000000
H           17.03519400000000        6.75248700000000        5.01422600000000
H           18.43478400000000        7.74014400000000        4.43776400000000
H           18.65597800000000        5.98805100000000        4.77402600000000
H           17.72327100000000        4.28865600000000        3.23144800000000
Co          27.45626300000000        0.00766300000000        0.00326000000000
C           30.81495100000000        0.17709300000000       -0.25746900000000
C           30.15063200000000       -0.47652800000000       -1.21417400000000
C           30.80028099999999       -1.20440600000000       -2.29788100000000
C           29.85756600000000       -1.72689200000000       -3.05833500000000
C           28.55184500000000       -1.34940800000000       -2.50060200000000
N           28.73101100000000       -0.55806400000000       -1.32589700000000
C           27.35667300000000       -1.69408600000000       -3.02072100000000
C           26.06135600000000       -1.28279200000000       -2.42000700000000
C           24.76458600000000       -1.47478900000000       -3.07926000000000
C           23.83140200000000       -1.01494900000000       -2.27240500000000
N           25.92848600000000       -0.72452000000000       -1.25511900000000
C           24.52502800000000       -0.52240600000000       -1.08768200000000
C           23.93344000000000        0.00000000000000        0.00000000000000
C           24.69200800000000        0.48807100000000        1.17713900000000
C           24.13481900000000        0.80769600000000        2.33859700000000
C           25.18205500000000        1.32617900000000        3.19364900000000
C           26.31622400000000        1.28715500000000        2.50287900000000
C           27.61817700000000        1.80546400000000        3.00291300000000
C           27.64324300000000        2.52814900000000        4.29459100000000
C           27.70971900000000        3.92849400000000        4.31879500000000
C           27.71436100000000        4.61558900000000        5.54178000000000
C           27.82014300000000        6.11182700000000        5.56611500000000
C           27.68655500000000        3.89039400000000        6.74316900000000
C           27.62949200000000        2.48882500000000        6.72760700000000
C           27.56274700000000        1.73019500000000        8.02046800000000
C           27.59795400000000        1.81163600000000        5.49916200000000
C           28.77132100000000        1.62547900000000        2.33210200000000
C           30.09199100000000        2.08185200000000        2.76251700000000
C           30.94724500000000        1.62585100000000        1.86965700000000
C           30.18356300000000        0.88235200000000        0.86913600000000
N           28.91334400000000        0.87506700000000        1.12840300000000
N           26.09600500000000        0.75482100000000        1.19411900000000
C           27.30714000000000       -2.51377600000000       -4.25145900000000
C           27.62262300000000       -1.94548500000000       -5.49426100000000
C           27.57963800000000       -2.72401300000000       -6.65989400000000
C           27.89978199999999       -2.11206600000000       -7.99190000000000
C           27.17900200000000       -4.06620600000000       -6.58128100000000
C           26.83797300000000       -4.63572200000000       -5.34534200000000
C           26.45564200000000       -6.08376000000000       -5.25964500000000
C           26.91908900000000       -3.85880100000000       -4.18069000000000
H           31.89790200000000        0.18435500000000       -0.29807400000000
H           31.86489500000000       -1.31336600000000       -2.46053200000000
H           30.04349900000000       -2.32826900000000       -3.93840300000000
H           24.58466100000000       -1.90966900000000       -4.05362600000000
H           22.76916400000000       -1.01735100000000       -2.47735000000000
H           23.08918000000000        0.72787900000000        2.60271800000000
H           25.04649300000000        1.70696800000000        4.19699400000000
H           27.75380400000000        4.48070300000000        3.38683800000000
H           27.31764400000000        6.52628100000000        6.46607900000000
H           28.89046400000000        6.40523200000000        5.58150500000000
H           27.33561900000000        6.55369900000000        4.66900100000000
H           27.70769100000000        4.41642500000000        7.69065400000000
H           27.73131000000000        0.64269900000000        7.86169100000000
H           28.34151700000000        2.10292400000000        8.71926900000000
H           26.56356800000000        1.87374700000000        8.48282200000000
H           27.54118700000000        0.72894900000000        5.47590800000000
H           30.34584200000000        2.66379200000000        3.63850300000000
H           32.01884500000000        1.77472100000000        1.89055500000000
H           27.90664900000000       -0.90117300000000       -5.55172700000000
H           28.38868500000000       -2.85796800000000       -8.65430300000000
H           28.59097400000000       -1.25058900000000       -7.87520300000000
H           26.96250100000000       -1.76193500000000       -8.47200500000000
H           27.13318500000000       -4.66689400000000       -7.48250700000000
H           27.36510300000000       -6.69568700000000       -5.08982600000000
H           25.96551400000000       -6.41693600000000       -6.19891200000000
H           25.74432000000000       -6.25219000000000       -4.42246500000000
H           26.67702700000000       -4.29753200000000       -3.21963400000000
C           21.58919000000000        0.00000000000000        0.00000000000000
C           22.81110800000000        0.00000000000000        0.00000000000000
138
 energy: -218.013948036875 gnorm: 0.303223317831 xtb: 6.5.1 (b24c23e)
Co          16.94581210695186        0.00298666693602       -0.01602588191960
C           13.58631171339970        0.18205622406313       -0.24699204380216
C           14.25738856063479        1.29736182022899        0.12053210326460
C           13.60081432367817        2.53456028369492        0.51424544007571
C           14.55396650223903        3.41867524004896        0.80743155932540
C           15.84868472599966        2.76866075121011        0.59892582731213
N           15.65846901420089        1.43506034462426        0.17539741197639
C           17.05663349901936        3.37305568301339        0.78519843311268
C           18.32348662795821        2.70508827461111        0.56434174895615
C           19.61706515341452        3.38067906724053        0.56448410734947
C           20.55617263250060        2.45377673743782        0.34129424881696
N           18.45287708209930        1.41301648323005        0.34072809627163
C           19.81873322113070        1.20885715309085        0.20538566319450
C           20.34579723516233       -0.01560200261642       -0.00216916088554
C           19.65810009160878       -1.26872225769957       -0.14863667574775
C           20.25951809657552       -2.49064712944277       -0.12933757846083
C           19.23515387854422       -3.44124417010520       -0.38462492086367
C           18.06709688351371       -2.75318468218351       -0.54280109512709
C           16.79509122587473       -3.37930212821079       -0.89451140044782
C           16.76390943462748       -4.82926961727962       -1.23261221197989
C           16.69110842627019       -5.24429854398121       -2.56692397065087
C           16.68285982977777       -6.60603855396266       -2.88605694233075
C           16.58207405808229       -7.04744603590973       -4.32163213129156
C           16.71414257886973       -7.55337796940905       -1.85820056668965
C           16.77202664534349       -7.15074402844443       -0.52009138448562
C           16.83615961628990       -8.18518512604539        0.57176505382977
C           16.80371325429291       -5.78722572320086       -0.21351746024793
C           15.63046979085683       -2.68750795523751       -0.91018831195788
C           14.31763499341850       -3.23057276914451       -1.22893302417071
C           13.44522182390816       -2.23544796196146       -1.03773803369873
C           14.20167733937279       -1.07034437039376       -0.60205508095056
N           15.49250778935776       -1.32874113105763       -0.52889486894046
N           18.28399767475160       -1.36622311282879       -0.38559662602454
C           17.09810921047153        4.78752691346744        1.23086477382204
C           16.77714781076290        5.82040862393211        0.34406569012177
C           16.82344171608868        7.15229116347912        0.76428676721463
C           16.49857633365840        8.26455021995145       -0.19613003320865
C           17.22097436378558        7.44755735872218        2.07184213367694
C           17.55847224605672        6.42375730941298        2.96187550226454
C           17.94694185108375        6.74554233768268        4.37960914662551
C           17.48230097572371        5.09383168331901        2.53953987000045
H           12.50309054994981        0.22939971886519       -0.26245085597865
H           12.53635713912665        2.72017496302349        0.57342783445020
H           14.36822245617700        4.43100883734563        1.13979994528095
H           19.80718028525036        4.43065388526243        0.70802141451279
H           21.62409839544177        2.64734440040368        0.28535686473227
H           21.30864422548692       -2.70334992778387        0.02537543743296
H           19.35940577697497       -4.50806855901337       -0.46956957422609
H           16.64749346428280       -4.50192028048865       -3.35853993817601
H           17.07727481964816       -8.02079795891181       -4.46793598981634
H           15.51881420429405       -7.14382398754681       -4.59877160645939
H           17.05937807125227       -6.31386956877491       -4.99109920206764
H           16.69296944584662       -8.61275936493522       -2.10039719252972
H           16.67121090263572       -7.73341361671703        1.56347553132757
H           16.06576996912135       -8.95629051180698        0.40925934181225
H           17.82813305599765       -8.66721168044692        0.56324772218252
H           16.85870273477210       -5.46331749663038        0.82161945398944
H           14.06531485274981       -4.23470848942781       -1.54444947148074
H           12.37802936921662       -2.30187551486161       -1.17659955247286
H           16.49398584513663        5.58346978752099       -0.67716388639195
H           16.01651338168935        9.10320520118620        0.33134249788993
H           15.81555556513273        7.91506747102185       -0.98654603162503
H           17.42932842041990        8.62671530903347       -0.66380355421762
H           17.26715614582524        8.48293046591937        2.39871032075059
H           17.04356319118869        6.75298324531583        5.01168729316271
H           18.43008280596279        7.73370499529625        4.43862113187444
H           18.64967246524546        5.99321478226738        4.77269606052838
H           17.72325871836836        4.29058726264852        3.22953331062556
Co          27.45448576247101        0.01456107523243       -0.00732945919276
C           30.81398634490720        0.18655244940301       -0.24361450795685
C           30.14290949665523       -0.47690610492296       -1.21253287377982
C           30.79948366625942       -1.19944842608231       -2.29123758105500
C           29.84633072532640       -1.72715194250570       -3.05879531788044
C           28.55161314674413       -1.34594724009433       -2.49251253219540
N           28.74182915904171       -0.56793307753192       -1.32951646402379
C           27.34366431197954       -1.69309813164829       -3.02116841358265
C           26.07681121282396       -1.29503356004320       -2.44108043018350
C           24.78323270273111       -1.48322971226914       -3.08992920265516
C           23.84412454857072       -1.01084623845539       -2.26179013817342
N           25.94742066579375       -0.72059306360440       -1.26232220573867
C           24.58156398011447       -0.53376916462714       -1.10390654583867
C           24.05450070649877        0.00642641102777        0.01438156962510
C           24.74219790654007        0.49592680618857        1.17720219782161
C           24.14077911528666        0.81752941708730        2.35620383427676
C           25.16514311180791        1.32733821493897        3.19816636594867
C           26.33320090924439        1.28773259653792        2.49327218126196
C           27.60520655106874        1.79982941508200        2.99673960641303
C           27.63638840046011        2.52818541724611        4.29528363513604
C           27.70918871844319        3.92528855100131        4.32248555250654
C           27.71743723429014        4.61086626505541        5.54156896884018
C           27.81822356057645        6.11257311960503        5.56591946038100
C           27.68615449643080        3.88733901574584        6.73758332305691
C           27.62827116537447        2.49003864916997        6.72334302879919
C           27.56413818312456        1.72928735508451        8.02083192157076
C           27.59658388243195        1.81602919128581        5.49905556260497
C           28.76982809772985        1.62231659857076        2.32792413313892
C           30.08266223517666        2.07963345876581        2.76079753084122
C           30.95507560560639        1.61898822461560        1.85822643096764
C           30.19862076855105        0.87620414206593        0.86045028339438
N           28.90779023273607        0.87786320919321        1.12899941200023
N           26.11630006833876        0.75066215602822        1.20488871276275
C           27.30218790393801       -2.51488700546297       -4.25567715099365
C           27.62314923766891       -1.95065390982561       -5.49458682093238
C           27.57685614152414       -2.72501377079841       -6.65685363893572
C           27.90172085892011       -2.11216811871980       -7.99249651048478
C           27.17932346189212       -4.06307998625660       -6.57647528418644
C           26.84182484984356       -4.63294739439778       -5.34538725114214
C           26.45335527908665       -6.08421913679152       -5.25980907200903
C           26.91799613185027       -3.85710211535099       -4.18558819713641
H           31.89720748646569        0.18822071063434       -0.29338957265988
H           31.86394081124955       -1.30796103469063       -2.45304144339736
H           30.03207459155862       -2.32817987546050       -3.93859844623883
H           24.59311766226256       -1.91336907877026       -4.05844867669023
H           22.77619870416161       -1.01100170286208       -2.46327765433066
H           23.09165288302200        0.72813989964712        2.60356580922585
H           25.04089217990169        1.70589062955644        4.19918055715359
H           27.75280449166693        4.47896565207434        3.38909207999670
H           27.32302218991883        6.52403910533958        6.46007477781575
H           28.88148296749056        6.40558658150018        5.58134288992322
H           27.34091904126090        6.55137933731294        4.67498177917552
H           27.70732757062551        4.41485583216747        7.68767455809583
H           27.72908614744929        0.65101658897280        7.86297105153958
H           28.33452796295663        2.10001720797899        8.71622426836664
H           26.57216418149743        1.87164636086835        8.48143557364549
H           27.54159428880260        0.73164071043365        5.47609356177070
H           30.33498310839852        2.66219321010847        3.63741768585572
H           32.02226842951923        1.77085285480761        1.88337447186311
H           27.90631122365870       -0.90383311053811       -5.55128579747405
H           28.38378352674747       -2.85224372240963       -8.65117593356493
H           28.58474235980544       -1.25570987213075       -7.87685007374366
H           26.97096862560158       -1.76379227396619       -8.47052997879508
H           27.13314091001410       -4.66523877308565       -7.47993775977870
H           27.35673388758245       -6.69338671184302       -5.09100926562080
H           25.97021499149426       -6.41596690270493       -6.19248889359865
H           25.75062548277155       -6.25234998933108       -4.42779503433295
H           26.67703926035117       -4.29623051311853       -3.22202210289921
C           21.61914641308882       -0.00998349770785        0.00244537481513
C           22.78115148826600        0.00043029962591        0.01026960217139
138
 energy: -218.087306374374 gnorm: 0.157724065035 xtb: 6.5.1 (b24c23e)
Co          16.94395643556595        0.01492126466511       -0.03288516930856
C           13.58948095711630        0.16464702632689       -0.25142081112360
C           14.26542578558093        1.29304188567930        0.12488176276127
C           13.60635901007754        2.52303721010808        0.51060113339686
C           14.56784093986710        3.41419931871007        0.80704583214930
C           15.84738138659832        2.75903789685485        0.60189936056051
N           15.64444578191909        1.44465264767691        0.18469486108683
C           17.06402941921908        3.37693893727910        0.78500844743804
C           18.29676258073634        2.73389353567070        0.57006507119369
C           19.58829750223508        3.39069888690453        0.57353683976513
C           20.52266328129583        2.44122790094091        0.34206223399721
N           18.42211064287500        1.42441559685570        0.32155027034611
C           19.76613828595160        1.21480299892208        0.20430044062801
C           20.26638314154253       -0.03777906606115        0.00171953878454
C           19.60868747580609       -1.26643049924200       -0.15114668638881
C           20.24314352815539       -2.51022692180509       -0.14113404296756
C           19.25113389638920       -3.44319775895168       -0.39000514008123
C           18.04792524557658       -2.74923863367122       -0.54332110169152
C           16.81245037437091       -3.36849038486550       -0.88966109896291
C           16.77694495065137       -4.82555345715621       -1.23067104325789
C           16.69404314918478       -5.24359364477393       -2.56083133171005
C           16.67814913065909       -6.60179930622227       -2.88034107719680
C           16.58351537010788       -7.04550607405507       -4.31882061420712
C           16.71457229682473       -7.54545531251468       -1.85624363539656
C           16.77450924028322       -7.14495018189967       -0.52198463324368
C           16.83463802509953       -8.18280844296903        0.57041797480277
C           16.80889599703470       -5.78562401981312       -0.21695079840445
C           15.63386758660847       -2.67341752670759       -0.90697144660842
C           14.33077613603469       -3.21676187077976       -1.22367958728618
C           13.44165677517103       -2.21889531860888       -1.03101786322303
C           14.18773436940025       -1.05836472910216       -0.59733830456988
N           15.50009243862771       -1.32498771988286       -0.53594283956021
N           18.25662981787004       -1.38330100361954       -0.36867528016363
C           17.10152973371397        4.79368593180584        1.23022936452039
C           16.77562358494023        5.82312959752368        0.34820220259550
C           16.82645061071435        7.15055650237305        0.76563325013160
C           16.49722161404948        8.26390880318366       -0.19488032409937
C           17.22020539772388        7.44260132081208        2.07034631468372
C           17.55364030690048        6.42327010422198        2.95972463174155
C           17.94797462245331        6.74544754127020        4.37799276052472
C           17.48486175995029        5.09831550081170        2.53576639137901
H           12.50608893902854        0.21960848294871       -0.26907428889965
H           12.54113929521473        2.70087115841911        0.56570610575675
H           14.39274285790345        4.42824065921010        1.13798822045753
H           19.78677274003245        4.43933766689137        0.71416481026944
H           21.59449546609128        2.61652181159393        0.28287392600859
H           21.29511620048701       -2.70302630634035        0.02246851899039
H           19.36760295796996       -4.51074582438370       -0.46823631601859
H           16.65080494202369       -4.50295500884412       -3.35390489254247
H           17.07057531645209       -8.01338135317390       -4.46489663222765
H           15.52950723248474       -7.14374305194945       -4.60035103950707
H           17.05293313865070       -6.31786427039273       -4.98568394781031
H           16.69407595329704       -8.60546739238233       -2.09886483751107
H           16.67400726739844       -7.73534947308384        1.55434954703203
H           16.07392956019379       -8.95211049731575        0.41029099979840
H           17.81766799905186       -8.66542092464283        0.56524158220531
H           16.85906938833879       -5.46383343280083        0.81862985723461
H           14.09023178428929       -4.22413227328066       -1.53985344784989
H           12.37497810850046       -2.28553393852007       -1.17199657019867
H           16.49314867898341        5.58422007307943       -0.67276619830877
H           16.02264515479792        9.09873982706335        0.32706358854545
H           15.82303970864218        7.91706665845620       -0.98191930079971
H           17.41893700835013        8.62667576170706       -0.66204359158703
H           17.26723174199795        8.47810927835398        2.39726038113260
H           17.05376152163837        6.75381413339327        5.01021647078354
H           18.42378869774176        7.72739778607513        4.43869232647735
H           18.64184402264674        5.99774461754777        4.77057468747343
H           17.72450008336956        4.29387935145977        3.22516334410693
Co          27.45634149684894        0.02743082418498       -0.02348473785820
C           30.81081689530350        0.19565208318526       -0.22812591872116
C           30.13487203219611       -0.47988122162439       -1.20717291049501
C           30.79393878729990       -1.19274070935116       -2.28118401133213
C           29.83245643703846       -1.72553547551102       -3.05460386406079
C           28.55291626758114       -1.34612441140001       -2.48244228773158
N           28.75585195139429       -0.57953293766018       -1.33614145810171
C           27.33626830586535       -1.69399683966695       -3.02495097121396
C           26.10353517698509       -1.30854883059890       -2.46715375338797
C           24.81200030991958       -1.49471395642054       -3.09703299573938
C           23.87763420050943       -1.00809060676556       -2.24952328973049
N           25.97818708572174       -0.70534565408672       -1.27860926499489
C           24.63415923216617       -0.53438201915291       -1.10991946820136
C           24.13391478100404        0.00886460978814        0.03676452413101
C           24.79161058034555        0.49769982524014        1.17430234032076
C           24.15715398902403        0.83430997085846        2.37172590719583
C           25.14916344368464        1.33304969352775        3.19854527307614
C           26.35237246521699        1.28713350621147        2.48933716110192
C           27.58784727083873        1.79216141986377        2.98770522022573
C           27.62335269411013        2.52528639222925        4.29225449645474
C           27.70625422579757        3.91924034074033        4.32350438359473
C           27.72214804849250        4.60419603423942        5.53908847946921
C           27.81678191600092        6.10933257722798        5.56483870423601
C           27.68572487729848        3.88325405428190        6.73051834749720
C           27.62578832003314        2.49024454036924        6.71725134301393
C           27.56565957290133        1.72991955297228        8.01817392888252
C           27.59140129834325        1.81888076183467        5.49656144619295
C           28.76643009752397        1.61530475682320        2.31528587276456
C           30.06952126804105        2.07074284293573        2.74899500848327
C           30.95864079988570        1.60792623133776        1.84419840818830
C           30.21256348426432        0.86833878297110        0.85025696765855
N           28.90020530746896        0.88358803821306        1.12343198307657
N           26.14366807888479        0.73916343116915        1.22600179665110
C           27.29876762803071       -2.51599117266664       -4.26176929425442
C           27.62467362067660       -1.95538453199785       -5.49604884994448
C           27.57384701749628       -2.72582397216588       -6.65481295326952
C           27.90307572908865       -2.11318997799192       -7.99153268123118