      -----------------------------------------------------------      
     |                   =====================                   |     
     |                           x T B                           |     
     |                   =====================                   |     
     |                         S. Grimme                         |     
     |          Mulliken Center for Theoretical Chemistry        |     
     |                    University of Bonn                     |     
      -----------------------------------------------------------      

   * xtb version 6.5.1 (b24c23e) compiled by 'conda@728c89f4b128' on 2022-07-12

   xtb is free software: you can redistribute it and/or modify it under
   the terms of the GNU Lesser General Public License as published by
   the Free Software Foundation, either version 3 of the License, or
   (at your option) any later version.
   
   xtb is distributed in the hope that it will be useful,
   but WITHOUT ANY WARRANTY; without even the implied warranty of
   MERCHANTABILITY or FITNESS FOR A PARTICULAR PURPOSE.  See the
   GNU Lesser General Public License for more details.
   
   Cite this work as:
   * C. Bannwarth, E. Caldeweyher, S. Ehlert, A. Hansen, P. Pracht,
     J. Seibert, S. Spicher, S. Grimme, WIREs Comput. Mol. Sci., 2020, 11,
     e01493. DOI: 10.1002/wcms.1493
   
   for GFN2-xTB:
   * C. Bannwarth, S. Ehlert and S. Grimme., J. Chem. Theory Comput., 2019,
     15, 1652-1671. DOI: 10.1021/acs.jctc.8b01176
   for GFN1-xTB:
   * S. Grimme, C. Bannwarth, P. Shushkov, J. Chem. Theory Comput., 2017,
     13, 1989-2009. DOI: 10.1021/acs.jctc.7b00118
   for GFN0-xTB:
   * P. Pracht, E. Caldeweyher, S. Ehlert, S. Grimme, ChemRxiv, 2019, preprint.
     DOI: 10.26434/chemrxiv.8326202.v1
   for GFN-FF:
   * S. Spicher and S. Grimme, Angew. Chem. Int. Ed., 2020, 59, 15665-15673.
     DOI: 10.1002/anie.202004239
   
   for ALPB and GBSA implicit solvation:
   * S. Ehlert, M. Stahn, S. Spicher, S. Grimme, J. Chem. Theory Comput.,
     2021, 17, 4250-4261. DOI: 10.1021/acs.jctc.1c00471
   
   for DFT-D4:
   * E. Caldeweyher, C. Bannwarth and S. Grimme, J. Chem. Phys., 2017,
     147, 034112. DOI: 10.1063/1.4993215
   * E. Caldeweyher, S. Ehlert, A. Hansen, H. Neugebauer, S. Spicher,
     C. Bannwarth and S. Grimme, J. Chem. Phys., 2019, 150, 154122.
     DOI: 10.1063/1.5090222
   * E. Caldeweyher, J.-M. Mewes, S. Ehlert and S. Grimme, Phys. Chem. Chem. Phys.
     2020, 22, 8499-8512. DOI: 10.1039/D0CP00502A
   
   for sTDA-xTB:
   * S. Grimme and C. Bannwarth, J. Chem. Phys., 2016, 145, 054103.
     DOI: 10.1063/1.4959605
   
   in the mass-spec context:
   * V. Asgeirsson, C. Bauer and S. Grimme, Chem. Sci., 2017, 8, 4879.
     DOI: 10.1039/c7sc00601b
   * J. Koopman and S. Grimme, ACS Omega 2019, 4, 12, 15120-15133.
     DOI: 10.1021/acsomega.9b02011
   
   for metadynamics refer to:
   * S. Grimme, J. Chem. Theory Comput., 2019, 155, 2847-2862
     DOI: 10.1021/acs.jctc.9b00143
   
   for SPH calculations refer to:
   * S. Spicher and S. Grimme, J. Chem. Theory Comput., 2021, 17, 1701-1714
     DOI: 10.1021/acs.jctc.0c01306
   
   with help from (in alphabetical order)
   P. Atkinson, C. Bannwarth, F. Bohle, G. Brandenburg, E. Caldeweyher
   M. Checinski, S. Dohm, S. Ehlert, S. Ehrlich, I. Gerasimov, C. Hölzer
   A. Katbashev, J. Koopman, C. Lavigne, S. Lehtola, F. März, M. Müller,
   F. Musil, H. Neugebauer, J. Pisarek, C. Plett, P. Pracht, F. Pultar,
   J. Seibert, P. Shushkov, S. Spicher, M. Stahn, M. Steiner, T. Strunk,
   J. Stückrath, T. Rose, and J. Unsleber
   
 * started run on 2022/07/30 at 10:50:55.263     

           -------------------------------------------------
          |                Calculation Setup                |
           -------------------------------------------------

          program call               : xtb Ni_BSA_C2_4.xyz --gfn 1 --opt -T 48
          hostname                   : cx3-15-13.cx3.hpc.ic.ac.uk
          coordinate file            : Ni_BSA_C2_4.xyz
          omp threads                :                     1

   ID    Z sym.   atoms
    1   28 Ni     1, 65, 135, 198
    2    6 C      2-6, 8-12, 17-21, 23-28, 30-34, 39-44, 66-70, 72-76, 81-85,
                  87-92, 94-98, 103-108, 129-134, 136-140, 142-146, 151-155,
                  157-162, 164-168, 173-178, 199-203, 205-209, 214-218,
                  220-225, 227-231, 236-241
    3    7 N      7, 22, 29, 45, 71, 86, 93, 109, 141, 156, 163, 179, 204,
                  219, 226, 242
    4   16 S      13, 35, 77, 99, 147, 169, 210, 232
    5    8 O      14-16, 36-38, 78-80, 100-102, 148-150, 170-172, 211-213,
                  233-235
    6    1 H      46-64, 110-128, 180-197, 243-260

molecular fragmentation (1/2 indicates fragments):
111111111111111111111111111111111111111111111111111111111111111122222222
222222222222222222222222222222222222222222222222222222222222222222222222
222222222222222222222222222222222222222222222222222222222222222222222222
22222222222222222222222222222222222222222222
# atoms in fragment 1/2:    64   196
 fragment masses (1/2) :      678.34     2105.07
CMA distance (Bohr)    :  42.618
constraining FC (au)   :  0.0500
########################################################################
[WARNING] Please study the warnings concerning your input carefully
-1- prog_main_parseArguments: Unknown option '-T' provided
########################################################################

           -------------------------------------------------
          |                 G F N 1 - x T B                 |
           -------------------------------------------------

        Reference                      10.1021/acs.jctc.7b00118
      * Hamiltonian:
        H0-scaling (s, p, d)           1.850000    2.250000    2.000000
        zeta-weighting                 0.000000
      * Dispersion:
        s8                             2.400000
        a1                             0.630000
        a2                             5.000000
        s9                             0.000000
      * Repulsion:
        kExp                           1.500000
        rExp                           1.000000
      * Coulomb:
        alpha                          2.000000
        third order                    atomic
        anisotropic                    false
      * Halogen bond correction:
        rad-scale                      1.300000
        damping                        0.440000


          ...................................................
          :                      SETUP                      :
          :.................................................:
          :  # basis functions                 964          :
          :  # atomic orbitals                 952          :
          :  # shells                          532          :
          :  # electrons                       922          :
          :  # halogen bonds                     0          :
          :  max. iterations                   250          :
          :  Hamiltonian                  GFN1-xTB          :
          :  restarted?                      false          :
          :  GBSA solvation                  false          :
          :  PC potential                    false          :
          :  electronic temp.          300.0000000     K    :
          :  accuracy                    1.0000000          :
          :  -> integral cutoff          0.2500000E+02      :
          :  -> integral neglect         0.1000000E-07      :
          :  -> SCF convergence          0.1000000E-05 Eh   :
          :  -> wf. convergence          0.2000000E-04 e    :
          :  Broyden damping             0.4000000          :
          ...................................................

 iter      E             dE          RMSdq      gap      omega  full diag
   1   -536.6295026 -0.536630E+03  0.103E+01    0.38       0.0  T
   2   -483.8289321  0.528006E+02  0.939E+00    0.05       1.0  T
   3   -430.3311426  0.534978E+02  0.947E+00    0.05       1.0  T
   4    -77.8711247  0.352460E+03  0.112E+01    0.10       1.0  T
   5   1910.2895609  0.198816E+04  0.184E+01    0.01       1.0  T
   6   1676.7847815 -0.233505E+03  0.178E+01    0.04       1.0  T
   7   -313.9096222 -0.199069E+04  0.863E+00    0.03       1.0  T
   8   -406.9702691 -0.930606E+02  0.652E+00    0.03       1.0  T
   9   -507.3637864 -0.100394E+03  0.466E+00    0.09       1.0  T
  10   -532.6896493 -0.253259E+02  0.355E+00    0.10       1.0  T
  11   -536.0064582 -0.331681E+01  0.299E+00    0.13       1.0  T
  12   -536.6392911 -0.632833E+00  0.277E+00    0.18       1.0  T
  13   -536.4633750  0.175916E+00  0.260E+00    0.11       1.0  T
  14   -536.5052443 -0.418693E-01  0.227E+00    0.16       1.0  T
  15   -537.2336151 -0.728371E+00  0.210E+00    0.14       1.0  T
  16   -537.2100389  0.235762E-01  0.197E+00    0.06       1.0  T
  17   -537.5491679 -0.339129E+00  0.154E+00    0.19       1.0  T
  18   -537.6485091 -0.993412E-01  0.115E+00    0.05       1.0  T
  19   -537.8279597 -0.179451E+00  0.916E-01    0.11       1.0  T
  20   -537.2500608  0.577899E+00  0.752E-01    0.16       1.0  T
  21   -537.2589850 -0.892418E-02  0.746E-01    0.16       1.0  T
  22   -537.3895491 -0.130564E+00  0.701E-01    0.08       1.0  T
  23   -537.7486893 -0.359140E+00  0.319E-01    0.05       1.0  T
  24   -537.9970808 -0.248392E+00  0.196E-01    0.06       1.0  T
  25   -537.9830446  0.140363E-01  0.164E-01    0.04       1.0  T
  26   -538.0571291 -0.740845E-01  0.148E-01    0.22       1.0  T
  27   -538.0596751 -0.254595E-02  0.136E-01    0.24       1.0  T
  28   -538.0618731 -0.219805E-02  0.121E-01    0.29       1.0  T
  29   -538.0648262 -0.295309E-02  0.966E-02    0.32       1.0  T
  30   -538.0665791 -0.175288E-02  0.750E-02    0.30       1.0  T
  31   -538.0680301 -0.145102E-02  0.586E-02    0.30       1.0  T
  32   -538.0690393 -0.100917E-02  0.483E-02    0.32       1.0  T
  33   -538.0698502 -0.810936E-03  0.395E-02    0.37       1.0  T
  34   -538.0704607 -0.610480E-03  0.321E-02    0.43       1.0  T
  35   -538.0707745 -0.313831E-03  0.268E-02    0.50       1.0  T
  36   -538.0710624 -0.287847E-03  0.217E-02    0.59       1.0  T
  37   -538.0712949 -0.232493E-03  0.171E-02    0.68       1.0  T
  38   -538.0714449 -0.150088E-03  0.148E-02    0.76       1.0  T
  39   -538.0715590 -0.114058E-03  0.131E-02    0.83       1.0  T
  40   -538.0716278 -0.688103E-04  0.118E-02    0.88       1.0  T
  41   -538.0717014 -0.735425E-04  0.997E-03    0.93       1.0  T
  42   -538.0717748 -0.734729E-04  0.792E-03    0.98       1.0  T
  43   -538.0718037 -0.288434E-04  0.707E-03    1.00       1.0  T
  44   -538.0718401 -0.364346E-04  0.568E-03    1.00       1.1  T
  45   -538.0718642 -0.240686E-04  0.433E-03    1.00       1.4  T
  46   -538.0718763 -0.121056E-04  0.344E-03    1.00       1.8  T
  47   -538.0718913 -0.150056E-04  0.192E-03    1.00       3.2  T
  48   -538.0718956 -0.428297E-05  0.106E-03    0.99       5.9  T
  49   -538.0718969 -0.134449E-05  0.508E-04    0.99      12.2  T
  50   -538.0718971 -0.179284E-06  0.345E-04    0.99      18.0  T
  51   -538.0718971 -0.498397E-07  0.226E-04    0.99      27.4  T
  52   -538.0718972 -0.755881E-08  0.181E-04    0.99      34.2  T
  53   -538.0718972 -0.982652E-08  0.135E-04    0.99      46.1  T

   *** convergence criteria satisfied after 53 iterations ***

         #    Occupation            Energy/Eh            Energy/eV
      -------------------------------------------------------------
         1        2.0000           -1.0347321             -28.1565
       ...           ...                  ...                  ...
       455        2.0000           -0.4244619             -11.5502
       456        2.0000           -0.4236845             -11.5290
       457        2.0000           -0.4220322             -11.4841
       458        2.0000           -0.4171538             -11.3513
       459        2.0000           -0.4158124             -11.3148
       460        2.0000           -0.4148290             -11.2881
       461        2.0000           -0.4101427             -11.1606 (HOMO)
       462                         -0.3737490             -10.1702 (LUMO)
       463                         -0.3697465             -10.0613
       464                         -0.3687011             -10.0329
       465                         -0.3674857              -9.9998
       466                         -0.3674164              -9.9979
       ...                                ...                  ...
       952                          1.3701726              37.2843
      -------------------------------------------------------------
                  HL-Gap            0.0363936 Eh            0.9903 eV
             Fermi-level           -0.3919519 Eh          -10.6656 eV

 SCC (total)                   0 d,  0 h,  0 min, 17.985 sec
 SCC setup                      ...        0 min,  0.019 sec (  0.105%)
 Dispersion                     ...        0 min,  0.012 sec (  0.066%)
 classical contributions        ...        0 min,  0.004 sec (  0.021%)
 integral evaluation            ...        0 min,  0.325 sec (  1.806%)
 iterations                     ...        0 min, 16.785 sec ( 93.328%)
 molecular gradient             ...        0 min,  0.776 sec (  4.315%)
 printout                       ...        0 min,  0.064 sec (  0.358%)

         :::::::::::::::::::::::::::::::::::::::::::::::::::::
         ::                     SUMMARY                     ::
         :::::::::::::::::::::::::::::::::::::::::::::::::::::
         :: total energy            -531.581891930693 Eh    ::
         :: gradient norm              0.721584822597 Eh/a0 ::
         :: HOMO-LUMO gap              0.990321612756 eV    ::
         ::.................................................::
         :: SCC energy              -538.071897160094 Eh    ::
         :: -> electrostatic           1.080103349489 Eh    ::
         :: repulsion energy           6.735266636567 Eh    ::
         :: dispersion energy         -0.245261407166 Eh    ::
         :: halogen bond corr.         0.000000000000 Eh    ::
         :: add. restraining           0.000000000000 Eh    ::
         :: total charge              -0.000000000111 e     ::
         :::::::::::::::::::::::::::::::::::::::::::::::::::::

      ----------------------------------------------------------- 
     |                   =====================                   |
     |                        A N C O P T                        |
     |                   =====================                   |
     |               Approximate Normal Coordinate               |
     |                Rational Function Optimizer                |
      ----------------------------------------------------------- 

          ...................................................
          :                      SETUP                      :
          :.................................................:
          :   optimization level            normal          :
          :   max. optcycles                   780          :
          :   ANC micro-cycles                  20          :
          :   degrees of freedom               774          :
          :.................................................:
          :   RF solver                   davidson          :
          :   write xtbopt.log                true          :
          :   linear?                        false          :
          :   energy convergence         0.5000000E-05 Eh   :
          :   grad. convergence          0.1000000E-02 Eh/α :
          :   maximium RF displ.         1.0000000          :
          :   Hlow (freq-cutoff)         0.1000000E-01      :
          :   Hmax (freq-cutoff)         5.0000000          :
          :   S6 in model hess.         20.0000000          :
          ...................................................

generating ANC from model Hessian ...
Using Lindh-Hessian (1995)
 Shifting diagonal of input Hessian by    1.0018351310769436E-002
 Lowest  eigenvalues of input Hessian
    0.010000    0.010000    0.010004    0.010006    0.010007    0.010010
    0.010011    0.010012    0.000000    0.000000    0.000000    0.000000
    0.000000    0.000000    0.010022    0.010030    0.010051    0.010059
 Highest eigenvalues
    2.701682    2.702241    2.702241    2.703938    2.703944    2.775726


........................................................................
.............................. CYCLE    1 ..............................
........................................................................
   1   -538.0718972 -0.538072E+03  0.109E-04    0.99       0.0  T
   2   -538.0718972 -0.110315E-07  0.113E-04    0.99      54.9  T
   3   -538.0718972 -0.347814E-08  0.643E-05    0.99      96.5  T
     SCC iter.                  ...        0 min,  0.967 sec
     gradient                   ...        0 min,  0.771 sec
 * total energy  :  -531.5818920 Eh     change       -0.2099944E-07 Eh
   gradient norm :     0.7215828 Eh/α   predicted     0.0000000E+00 (-100.00%)
   displ. norm   :     0.5156950 α      lambda       -0.2964141E+00
   maximum displ.:     0.0950923 α      in ANC's #353, #538, #217, ...

........................................................................
.............................. CYCLE    2 ..............................
........................................................................
   1   -538.2308930 -0.538231E+03  0.157E-01    1.01       0.0  T
   2   -538.2368121 -0.591912E-02  0.821E-02    1.03       1.0  T
   3   -538.2385577 -0.174563E-02  0.456E-02    1.03       1.0  T
   4   -538.2388090 -0.251303E-03  0.295E-02    1.03       1.0  T
   5   -538.2390634 -0.254354E-03  0.131E-02    1.03       1.0  T
   6   -538.2391934 -0.130053E-03  0.307E-03    1.03       2.0  T
   7   -538.2391978 -0.433224E-05  0.220E-03    1.03       2.8  T
   8   -538.2392008 -0.308308E-05  0.453E-04    1.03      13.7  T
   9   -538.2392009 -0.884427E-07  0.211E-04    1.03      29.3  T
  10   -538.2392010 -0.217341E-07  0.966E-05    1.03      64.2  T
  11   -538.2392010 -0.630973E-08  0.298E-05    1.03     207.9  T
     SCC iter.                  ...        0 min,  3.499 sec
     gradient                   ...        0 min,  0.774 sec
 * total energy  :  -531.8266721 Eh     change       -0.2447802E+00 Eh
   gradient norm :     0.4552455 Eh/α   predicted    -0.1876647E+00 ( -23.33%)
   displ. norm   :     0.6408103 α      lambda       -0.2470570E+00
   maximum displ.:     0.1058372 α      in ANC's #353, #217, #397, ...

........................................................................
.............................. CYCLE    3 ..............................
........................................................................
   1   -538.4475722 -0.538448E+03  0.208E-01    1.06       0.0  T
   2   -538.4566942 -0.912194E-02  0.109E-01    1.05       1.0  T
   3   -538.4594300 -0.273579E-02  0.665E-02    1.07       1.0  T
   4   -538.4607952 -0.136520E-02  0.429E-02    1.06       1.0  T
   5   -538.4615702 -0.775041E-03  0.148E-02    1.06       1.0  T
   6   -538.4617141 -0.143874E-03  0.437E-03    1.06       1.4  T
   7   -538.4617251 -0.110178E-04  0.290E-03    1.06       2.1  T
   8   -538.4617305 -0.538670E-05  0.574E-04    1.06      10.8  T
   9   -538.4617306 -0.102507E-06  0.389E-04    1.06      15.9  T
  10   -538.4617307 -0.108177E-06  0.123E-04    1.06      50.3  T
  11   -538.4617307 -0.909779E-08  0.389E-05    1.06     159.2  T
     SCC iter.                  ...        0 min,  3.493 sec
     gradient                   ...        0 min,  0.767 sec
 * total energy  :  -532.0033518 Eh     change       -0.1766797E+00 Eh
   gradient norm :     0.1722611 Eh/α   predicted    -0.1742807E+00 (  -1.36%)
   displ. norm   :     0.7082548 α      lambda       -0.1021205E+00
   maximum displ.:     0.1576135 α      in ANC's #69, #186, #68, ...

........................................................................
.............................. CYCLE    4 ..............................
........................................................................
   1   -538.5740634 -0.538574E+03  0.998E-02    1.08       0.0  T
   2   -538.5752488 -0.118536E-02  0.669E-02    1.08       1.0  T
   3   -538.5764449 -0.119609E-02  0.331E-02    1.08       1.0  T
   4   -538.5766643 -0.219465E-03  0.260E-02    1.08       1.0  T
   5   -538.5769855 -0.321184E-03  0.690E-03    1.08       1.0  T
   6   -538.5770108 -0.252292E-04  0.258E-03    1.08       2.4  T
   7   -538.5770156 -0.479821E-05  0.134E-03    1.08       4.6  T
   8   -538.5770167 -0.111461E-05  0.336E-04    1.08      18.5  T
   9   -538.5770167 -0.390626E-07  0.177E-04    1.08      35.1  T
  10   -538.5770167 -0.197439E-07  0.674E-05    1.08      92.0  T
     SCC iter.                  ...        0 min,  3.182 sec
     gradient                   ...        0 min,  0.778 sec
 * total energy  :  -532.0846108 Eh     change       -0.8125892E-01 Eh
   gradient norm :     0.1079240 Eh/α   predicted    -0.7667341E-01 (  -5.64%)
   displ. norm   :     0.7777912 α      lambda       -0.6713006E-01
   maximum displ.:     0.2221700 α      in ANC's #69, #68, #186, ...

........................................................................
.............................. CYCLE    5 ..............................
........................................................................
   1   -538.6186829 -0.538619E+03  0.560E-02    1.09       0.0  T
   2   -538.6187513 -0.684739E-04  0.550E-02    1.08       1.0  T
   3   -538.6195955 -0.844176E-03  0.229E-02    1.08       1.0  T
   4   -538.6193437  0.251772E-03  0.216E-02    1.08       1.0  T
   5   -538.6196119 -0.268137E-03  0.494E-03    1.08       1.3  T
   6   -538.6196235 -0.116062E-04  0.163E-03    1.08       3.8  T
   7   -538.6196258 -0.235048E-05  0.491E-04    1.08      12.6  T
   8   -538.6196260 -0.197913E-06  0.181E-04    1.08      34.2  T
   9   -538.6196260 -0.135402E-07  0.785E-05    1.08      79.0  T
     SCC iter.                  ...        0 min,  2.867 sec
     gradient                   ...        0 min,  0.779 sec
 * total energy  :  -532.1367209 Eh     change       -0.5211010E-01 Eh
   gradient norm :     0.0727363 Eh/α   predicted    -0.5387090E-01 (   3.38%)
   displ. norm   :     0.7639386 α      lambda       -0.3759245E-01
   maximum displ.:     0.2853424 α      in ANC's #68, #69, #49, ...

........................................................................
.............................. CYCLE    6 ..............................
........................................................................
   1   -538.6631078 -0.538663E+03  0.309E-02    1.09       0.0  T
   2   -538.6632115 -0.103683E-03  0.267E-02    1.09       1.0  T
   3   -538.6634643 -0.252822E-03  0.986E-03    1.09       1.0  T
   4   -538.6634245  0.398529E-04  0.107E-02    1.09       1.0  T
   5   -538.6634854 -0.609066E-04  0.356E-03    1.09       1.7  T
   6   -538.6634902 -0.481582E-05  0.124E-03    1.09       5.0  T
   7   -538.6634918 -0.161388E-05  0.363E-04    1.09      17.1  T
   8   -538.6634919 -0.732292E-07  0.141E-04    1.09      44.1  T
   9   -538.6634919 -0.132068E-07  0.686E-05    1.09      90.3  T
     SCC iter.                  ...        0 min,  2.869 sec
     gradient                   ...        0 min,  0.779 sec
 * total energy  :  -532.1678997 Eh     change       -0.3117884E-01 Eh
   gradient norm :     0.0541797 Eh/α   predicted    -0.2976576E-01 (  -4.53%)
   displ. norm   :     0.8048343 α      lambda       -0.3017858E-01
   maximum displ.:     0.3161852 α      in ANC's #69, #68, #49, ...

........................................................................
.............................. CYCLE    7 ..............................
........................................................................
   1   -538.7195701 -0.538720E+03  0.243E-02    1.11       0.0  T
   2   -538.7196838 -0.113694E-03  0.160E-02    1.11       1.0  T
   3   -538.7197829 -0.991607E-04  0.767E-03    1.11       1.0  T
   4   -538.7197986 -0.157121E-04  0.645E-03    1.11       1.0  T
   5   -538.7198209 -0.222191E-04  0.217E-03    1.11       2.9  T
   6   -538.7198225 -0.163393E-05  0.106E-03    1.11       5.9  T
   7   -538.7198234 -0.952991E-06  0.351E-04    1.11      17.6  T
   8   -538.7198235 -0.675576E-07  0.113E-04    1.11      54.9  T
   9   -538.7198235 -0.819284E-08  0.574E-05    1.11     108.0  T
     SCC iter.                  ...        0 min,  2.868 sec
     gradient                   ...        0 min,  0.772 sec
 * total energy  :  -532.1937437 Eh     change       -0.2584401E-01 Eh
   gradient norm :     0.0458097 Eh/α   predicted    -0.2486357E-01 (  -3.79%)
   displ. norm   :     0.8547410 α      lambda       -0.2448002E-01
   maximum displ.:     0.3523298 α      in ANC's #68, #69, #30, ...

........................................................................
.............................. CYCLE    8 ..............................
........................................................................
   1   -538.7783948 -0.538778E+03  0.169E-02    1.11       0.0  T
   2   -538.7784051 -0.103162E-04  0.122E-02    1.11       1.0  T
   3   -538.7784490 -0.439027E-04  0.626E-03    1.11       1.0  T
   4   -538.7784514 -0.241134E-05  0.557E-03    1.11       1.1  T
   5   -538.7784732 -0.217747E-04  0.133E-03    1.11       4.6  T
   6   -538.7784741 -0.915008E-06  0.526E-04    1.11      11.8  T
   7   -538.7784744 -0.269290E-06  0.192E-04    1.11      32.3  T
   8   -538.7784744 -0.226552E-07  0.550E-05    1.11     112.7  T
     SCC iter.                  ...        0 min,  2.542 sec
     gradient                   ...        0 min,  0.777 sec
 * total energy  :  -532.2154845 Eh     change       -0.2174076E-01 Eh
   gradient norm :     0.0387352 Eh/α   predicted    -0.2118235E-01 (  -2.57%)
   displ. norm   :     0.8664587 α      lambda       -0.2086370E-01
   maximum displ.:     0.3502679 α      in ANC's #69, #68, #30, ...

........................................................................
.............................. CYCLE    9 ..............................
........................................................................
   1   -538.8369371 -0.538837E+03  0.148E-02    1.12       0.0  T
   2   -538.8369563 -0.192341E-04  0.990E-03    1.12       1.0  T
   3   -538.8369736 -0.173233E-04  0.522E-03    1.12       1.2  T
   4   -538.8369695  0.417415E-05  0.476E-03    1.12       1.3  T
   5   -538.8369874 -0.179628E-04  0.111E-03    1.12       5.6  T
   6   -538.8369881 -0.663369E-06  0.451E-04    1.12      13.8  T
   7   -538.8369883 -0.179083E-06  0.172E-04    1.12      36.2  T
   8   -538.8369883 -0.218051E-07  0.472E-05    1.12     131.3  T
     SCC iter.                  ...        0 min,  2.550 sec
     gradient                   ...        0 min,  0.776 sec
 * total energy  :  -532.2336235 Eh     change       -0.1813903E-01 Eh
   gradient norm :     0.0315255 Eh/α   predicted    -0.1826357E-01 (   0.69%)
   displ. norm   :     0.8740529 α      lambda       -0.1778579E-01
   maximum displ.:     0.3428052 α      in ANC's #68, #69, #30, ...

........................................................................
.............................. CYCLE   10 ..............................
........................................................................
   1   -538.8901683 -0.538890E+03  0.141E-02    1.12       0.0  T
   2   -538.8901910 -0.227431E-04  0.920E-03    1.12       1.0  T
   3   -538.8902060 -0.149985E-04  0.483E-03    1.12       1.3  T
   4   -538.8902041  0.193934E-05  0.426E-03    1.12       1.5  T
   5   -538.8902166 -0.125662E-04  0.108E-03    1.12       5.8  T
   6   -538.8902173 -0.649560E-06  0.528E-04    1.12      11.7  T
   7   -538.8902176 -0.291697E-06  0.162E-04    1.12      38.2  T
   8   -538.8902176 -0.202434E-07  0.519E-05    1.12     119.6  T
     SCC iter.                  ...        0 min,  2.547 sec
     gradient                   ...        0 min,  0.774 sec
 * total energy  :  -532.2483669 Eh     change       -0.1474341E-01 Eh
   gradient norm :     0.0285356 Eh/α   predicted    -0.1568680E-01 (   6.40%)
   displ. norm   :     0.8470661 α      lambda       -0.1398297E-01
   maximum displ.:     0.3461314 α      in ANC's #30, #69, #68, ...

........................................................................
.............................. CYCLE   11 ..............................
........................................................................
   1   -538.9353917 -0.538935E+03  0.129E-02    1.12       0.0  T
   2   -538.9354122 -0.205114E-04  0.703E-03    1.12       1.0  T
   3   -538.9354133 -0.103452E-05  0.462E-03    1.12       1.3  T
   4   -538.9354142 -0.891450E-06  0.355E-03    1.12       1.7  T
   5   -538.9354227 -0.855393E-05  0.829E-04    1.12       7.5  T
   6   -538.9354230 -0.282314E-06  0.392E-04    1.12      15.8  T
   7   -538.9354231 -0.112425E-06  0.167E-04    1.12      37.2  T
   8   -538.9354231 -0.225708E-07  0.560E-05    1.12     110.8  T
     SCC iter.                  ...        0 min,  2.539 sec
     gradient                   ...        0 min,  0.780 sec
 * total energy  :  -532.2601812 Eh     change       -0.1181431E-01 Eh
   gradient norm :     0.0245647 Eh/α   predicted    -0.1200803E-01 (   1.64%)
   displ. norm   :     0.8371207 α      lambda       -0.1081269E-01
   maximum displ.:     0.3972610 α      in ANC's #30, #49, #69, ...

........................................................................
.............................. CYCLE   12 ..............................
........................................................................
   1   -538.9744411 -0.538974E+03  0.134E-02    1.12       0.0  T
   2   -538.9744673 -0.261832E-04  0.809E-03    1.12       1.0  T
   3   -538.9744788 -0.114783E-04  0.421E-03    1.12       1.5  T
   4   -538.9744756  0.311666E-05  0.361E-03    1.12       1.7  T
   5   -538.9744836 -0.793885E-05  0.990E-04    1.12       6.3  T
   6   -538.9744838 -0.258657E-06  0.491E-04    1.12      12.6  T
   7   -538.9744840 -0.152815E-06  0.193E-04    1.12      32.1  T
   8   -538.9744840 -0.276436E-07  0.584E-05    1.12     106.2  T
     SCC iter.                  ...        0 min,  2.547 sec
     gradient                   ...        0 min,  0.780 sec
 * total energy  :  -532.2691929 Eh     change       -0.9011730E-02 Eh
   gradient norm :     0.0234883 Eh/α   predicted    -0.9194966E-02 (   2.03%)
   displ. norm   :     0.8313975 α      lambda       -0.9009616E-02
   maximum displ.:     0.4430553 α      in ANC's #30, #49, #68, ...

........................................................................
.............................. CYCLE   13 ..............................
........................................................................
   1   -539.0086375 -0.539009E+03  0.142E-02    1.11       0.0  T
   2   -539.0086639 -0.264387E-04  0.103E-02    1.12       1.0  T
   3   -539.0086905 -0.265353E-04  0.439E-03    1.11       1.4  T
   4   -539.0086845  0.591262E-05  0.414E-03    1.11       1.5  T
   5   -539.0086943 -0.979999E-05  0.123E-03    1.11       5.0  T
   6   -539.0086948 -0.483880E-06  0.517E-04    1.11      12.0  T
   7   -539.0086950 -0.163916E-06  0.185E-04    1.11      33.6  T
   8   -539.0086950 -0.233672E-07  0.578E-05    1.11     107.3  T
     SCC iter.                  ...        0 min,  2.551 sec
     gradient                   ...        0 min,  0.786 sec
 * total energy  :  -532.2762511 Eh     change       -0.7058122E-02 Eh
   gradient norm :     0.0236289 Eh/α   predicted    -0.7618636E-02 (   7.94%)
   displ. norm   :     0.7887029 α      lambda       -0.6791388E-02
   maximum displ.:     0.4811791 α      in ANC's #30, #49, #29, ...

........................................................................
.............................. CYCLE   14 ..............................
........................................................................
   1   -539.0396739 -0.539040E+03  0.115E-02    1.12       0.0  T
   2   -539.0396851 -0.112071E-04  0.792E-03    1.12       1.0  T
   3   -539.0396978 -0.127673E-04  0.404E-03    1.12       1.5  T
   4   -539.0396952  0.259995E-05  0.330E-03    1.12       1.9  T
   5   -539.0397023 -0.709032E-05  0.931E-04    1.12       6.7  T
   6   -539.0397025 -0.234066E-06  0.373E-04    1.12      16.6  T
   7   -539.0397026 -0.870976E-07  0.150E-04    1.12      41.3  T
   8   -539.0397027 -0.172067E-07  0.436E-05    1.12     142.3  T
     SCC iter.                  ...        0 min,  2.550 sec
     gradient                   ...        0 min,  0.783 sec
 * total energy  :  -532.2818545 Eh     change       -0.5603383E-02 Eh
   gradient norm :     0.0151426 Eh/α   predicted    -0.5507999E-02 (  -1.70%)
   displ. norm   :     0.8088676 α      lambda       -0.5631037E-02
   maximum displ.:     0.5263152 α      in ANC's #30, #49, #29, ...

........................................................................
.............................. CYCLE   15 ..............................
........................................................................
   1   -539.0548294 -0.539055E+03  0.125E-02    1.12       0.0  T
   2   -539.0548470 -0.175858E-04  0.682E-03    1.12       1.0  T
   3   -539.0548491 -0.212890E-05  0.484E-03    1.12       1.3  T
   4   -539.0548555 -0.642488E-05  0.316E-03    1.12       2.0  T
   5   -539.0548608 -0.531518E-05  0.678E-04    1.12       9.1  T
   6   -539.0548610 -0.130231E-06  0.271E-04    1.12      22.9  T
   7   -539.0548610 -0.422406E-07  0.100E-04    1.12      61.8  T
   8   -539.0548610 -0.665989E-08  0.477E-05    1.12     130.1  T
     SCC iter.                  ...        0 min,  2.552 sec
     gradient                   ...        0 min,  0.780 sec
 * total energy  :  -532.2860298 Eh     change       -0.4175335E-02 Eh
   gradient norm :     0.0366821 Eh/α   predicted    -0.4657625E-02 (  11.55%)
   displ. norm   :     0.7453117 α      lambda       -0.5795430E-02
   maximum displ.:     0.5126231 α      in ANC's #30, #29, #49, ...

........................................................................
.............................. CYCLE   16 ..............................
........................................................................
   1   -539.0883041 -0.539088E+03  0.156E-02    1.12       0.0  T
   2   -539.0883174 -0.132885E-04  0.789E-03    1.12       1.0  T
   3   -539.0883052  0.121373E-04  0.632E-03    1.12       1.0  T
   4   -539.0883193 -0.140966E-04  0.300E-03    1.12       2.1  T
   5   -539.0883262 -0.689271E-05  0.870E-04    1.12       7.1  T
   6   -539.0883265 -0.260660E-06  0.367E-04    1.12      16.9  T
   7   -539.0883266 -0.995103E-07  0.144E-04    1.12      43.1  T
   8   -539.0883266 -0.171704E-07  0.515E-05    1.12     120.5  T
     SCC iter.                  ...        0 min,  2.549 sec
     gradient                   ...        0 min,  0.782 sec
 * total energy  :  -532.2900286 Eh     change       -0.3998849E-02 Eh
   gradient norm :     0.0251769 Eh/α   predicted    -0.4507367E-02 (  12.72%)
   displ. norm   :     0.7461167 α      lambda       -0.4755124E-02
   maximum displ.:     0.5289873 α      in ANC's #30, #29, #35, ...

........................................................................
.............................. CYCLE   17 ..............................
........................................................................
   1   -539.0969158 -0.539097E+03  0.838E-03    1.11       0.0  T
   2   -539.0969202 -0.441173E-05  0.669E-03    1.11       1.0  T
   3   -539.0969330 -0.127261E-04  0.298E-03    1.12       2.1  T
   4   -539.0969304  0.253767E-05  0.271E-03    1.11       2.3  T
   5   -539.0969349 -0.444163E-05  0.716E-04    1.11       8.7  T
   6   -539.0969351 -0.223030E-06  0.240E-04    1.11      25.8  T
   7   -539.0969351 -0.517512E-07  0.705E-05    1.11      88.0  T
   8   -539.0969351 -0.308899E-08  0.262E-05    1.11     236.5  T
     SCC iter.                  ...        0 min,  2.550 sec
     gradient                   ...        0 min,  0.790 sec
 * total energy  :  -532.2937878 Eh     change       -0.3759132E-02 Eh
   gradient norm :     0.0175673 Eh/α   predicted    -0.3701133E-02 (  -1.54%)
   displ. norm   :     0.7786319 α      lambda       -0.4584963E-02
   maximum displ.:     0.5477988 α      in ANC's #30, #29, #24, ...

........................................................................
.............................. CYCLE   18 ..............................
........................................................................
   1   -539.1042450 -0.539104E+03  0.132E-02    1.11       0.0  T
   2   -539.1042557 -0.106984E-04  0.693E-03    1.11       1.0  T
   3   -539.1042469  0.879294E-05  0.541E-03    1.11       1.1  T
   4   -539.1042585 -0.115760E-04  0.290E-03    1.11       2.1  T
   5   -539.1042639 -0.540911E-05  0.689E-04    1.11       9.0  T
   6   -539.1042641 -0.157747E-06  0.239E-04    1.11      25.9  T
   7   -539.1042641 -0.469739E-07  0.897E-05    1.11      69.2  T
   8   -539.1042641 -0.709451E-08  0.361E-05    1.11     171.9  T
     SCC iter.                  ...        0 min,  2.557 sec
     gradient                   ...        0 min,  0.788 sec
 * total energy  :  -532.2967884 Eh     change       -0.3000651E-02 Eh
   gradient norm :     0.0368549 Eh/α   predicted    -0.3682342E-02 (  22.72%)
   displ. norm   :     0.7177450 α      lambda       -0.4839208E-02
   maximum displ.:     0.5145962 α      in ANC's #30, #29, #35, ...

........................................................................
.............................. CYCLE   19 ..............................
........................................................................
   1   -539.1048568 -0.539105E+03  0.143E-02    1.11       0.0  T
   2   -539.1048700 -0.131179E-04  0.756E-03    1.11       1.0  T
   3   -539.1048630  0.699711E-05  0.522E-03    1.11       1.2  T
   4   -539.1048688 -0.588343E-05  0.335E-03    1.11       1.9  T
   5   -539.1048770 -0.817183E-05  0.698E-04    1.11       8.9  T
   6   -539.1048772 -0.185007E-06  0.249E-04    1.11      24.9  T
   7   -539.1048773 -0.512947E-07  0.894E-05    1.11      69.4  T
   8   -539.1048773 -0.708530E-08  0.319E-05    1.11     194.2  T
     SCC iter.                  ...        0 min,  2.552 sec
     gradient                   ...        0 min,  0.790 sec
 * total energy  :  -532.2997058 Eh     change       -0.2917348E-02 Eh
   gradient norm :     0.0335880 Eh/α   predicted    -0.3666085E-02 (  25.66%)
   displ. norm   :     0.6665366 α      lambda       -0.4357917E-02
   maximum displ.:     0.4610538 α      in ANC's #30, #29, #35, ...

........................................................................
.............................. CYCLE   20 ..............................
........................................................................
   1   -539.1143769 -0.539114E+03  0.846E-03    1.11       0.0  T
   2   -539.1143844 -0.751371E-05  0.560E-03    1.11       1.1  T
   3   -539.1143907 -0.633422E-05  0.273E-03    1.11       2.3  T
   4   -539.1143893  0.141478E-05  0.222E-03    1.11       2.8  T
   5   -539.1143928 -0.344046E-05  0.637E-04    1.11       9.7  T
   6   -539.1143929 -0.139526E-06  0.247E-04    1.11      25.1  T
   7   -539.1143929 -0.431603E-07  0.711E-05    1.11      87.2  T
   8   -539.1143929 -0.307978E-08  0.283E-05    1.11     218.9  T
     SCC iter.                  ...        0 min,  2.552 sec
     gradient                   ...        0 min,  0.783 sec
 * total energy  :  -532.3027605 Eh     change       -0.3054761E-02 Eh
   gradient norm :     0.0197090 Eh/α   predicted    -0.3147010E-02 (   3.02%)
   displ. norm   :     0.7831285 α      lambda       -0.3370884E-02
   maximum displ.:     0.5616406 α      in ANC's #30, #29, #35, ...
 * RMSD in coord.:     0.7260579 α      energy gain  -0.7208686E+00 Eh

generating ANC from model Hessian ...
Using Lindh-Hessian (1995)
 Shifting diagonal of input Hessian by    1.0010986314054891E-002
 Lowest  eigenvalues of input Hessian
    0.010000    0.010001    0.010002    0.010003    0.010004    0.010005
    0.010006    0.000000    0.000000    0.000000    0.000000    0.000000
    0.000000    0.010015    0.010020    0.010049    0.010069    0.010073
 Highest eigenvalues
    3.648686    3.659771    3.660724    3.660839    3.665785    3.670060


........................................................................
.............................. CYCLE   21 ..............................
........................................................................
   1   -539.1200907 -0.539120E+03  0.973E-03    1.11       0.0  T
   2   -539.1200979 -0.721097E-05  0.494E-03    1.11       1.3  T
   3   -539.1200945  0.334347E-05  0.378E-03    1.11       1.6  T
   4   -539.1200991 -0.461582E-05  0.215E-03    1.11       2.9  T
   5   -539.1201020 -0.288719E-05  0.495E-04    1.11      12.5  T
   6   -539.1201021 -0.678457E-07  0.192E-04    1.11      32.3  T
   7   -539.1201021 -0.237825E-07  0.740E-05    1.11      83.8  T
     SCC iter.                  ...        0 min,  2.238 sec
     gradient                   ...        0 min,  0.777 sec
 * total energy  :  -532.3052373 Eh     change       -0.2476755E-02 Eh
   gradient norm :     0.0239565 Eh/α   predicted     0.0000000E+00 (-100.00%)
   displ. norm   :     0.2524584 α      lambda       -0.1443554E-02
   maximum displ.:     0.1649943 α      in ANC's #34, #30, #14, ...

........................................................................
.............................. CYCLE   22 ..............................
........................................................................
   1   -539.1232347 -0.539123E+03  0.461E-03    1.11       0.0  T
   2   -539.1232365 -0.175440E-05  0.223E-03    1.11       2.8  T
   3   -539.1232349  0.159659E-05  0.173E-03    1.11       3.6  T
   4   -539.1232365 -0.169460E-05  0.976E-04    1.11       6.4  T
   5   -539.1232373 -0.758972E-06  0.219E-04    1.11      28.3  T
   6   -539.1232373 -0.201596E-07  0.957E-05    1.11      64.8  T
   7   -539.1232373 -0.811406E-08  0.346E-05    1.11     179.1  T
     SCC iter.                  ...        0 min,  2.239 sec
     gradient                   ...        0 min,  0.784 sec
 * total energy  :  -532.3063716 Eh     change       -0.1134326E-02 Eh
   gradient norm :     0.0088823 Eh/α   predicted    -0.7678495E-03 ( -32.31%)
   displ. norm   :     0.5203474 α      lambda       -0.1923835E-02
   maximum displ.:     0.3329403 α      in ANC's #34, #30, #14, ...

........................................................................
.............................. CYCLE   23 ..............................
........................................................................
   1   -539.1278308 -0.539128E+03  0.718E-03    1.11       0.0  T
   2   -539.1278368 -0.599871E-05  0.338E-03    1.11       1.8  T
   3   -539.1278341  0.267523E-05  0.271E-03    1.11       2.3  T
   4   -539.1278378 -0.369538E-05  0.157E-03    1.11       4.0  T
   5   -539.1278397 -0.190774E-05  0.339E-04    1.11      18.3  T
   6   -539.1278397 -0.344019E-07  0.160E-04    1.11      38.8  T
   7   -539.1278397 -0.224600E-07  0.607E-05    1.11     102.2  T
     SCC iter.                  ...        0 min,  2.233 sec
     gradient                   ...        0 min,  0.783 sec
 * total energy  :  -532.3078650 Eh     change       -0.1493371E-02 Eh
   gradient norm :     0.0170219 Eh/α   predicted    -0.1222370E-02 ( -18.15%)
   displ. norm   :     0.5904744 α      lambda       -0.1630355E-02
   maximum displ.:     0.3709353 α      in ANC's #34, #30, #14, ...

........................................................................
.............................. CYCLE   24 ..............................
........................................................................
   1   -539.1307951 -0.539131E+03  0.501E-03    1.11       0.0  T
   2   -539.1308000 -0.484741E-05  0.239E-03    1.11       2.6  T
   3   -539.1308006 -0.590009E-06  0.187E-03    1.11       3.3  T
   4   -539.1308028 -0.219227E-05  0.900E-04    1.11       6.9  T
   5   -539.1308031 -0.320022E-06  0.264E-04    1.11      23.5  T
   6   -539.1308031 -0.121832E-07  0.157E-04    1.11      39.4  T
   7   -539.1308031 -0.247585E-07  0.519E-05    1.11     119.4  T
     SCC iter.                  ...        0 min,  2.235 sec
     gradient                   ...        0 min,  0.785 sec
 * total energy  :  -532.3093252 Eh     change       -0.1460192E-02 Eh
   gradient norm :     0.0217023 Eh/α   predicted    -0.1099408E-02 ( -24.71%)
   displ. norm   :     0.6976306 α      lambda       -0.1965693E-02
   maximum displ.:     0.4326881 α      in ANC's #34, #30, #14, ...

........................................................................
.............................. CYCLE   25 ..............................
........................................................................
   1   -539.1338944 -0.539134E+03  0.567E-03    1.11       0.0  T
   2   -539.1338999 -0.549662E-05  0.303E-03    1.11       2.0  T
   3   -539.1339017 -0.179580E-05  0.217E-03    1.11       2.9  T
   4   -539.1339042 -0.256858E-05  0.111E-03    1.11       5.6  T
   5   -539.1339047 -0.428035E-06  0.314E-04    1.11      19.7  T
   6   -539.1339047 -0.231793E-07  0.202E-04    1.11      30.8  T
   7   -539.1339047 -0.372446E-07  0.581E-05    1.11     106.8  T
   8   -539.1339047 -0.185787E-08  0.218E-05    1.11     285.0  T
     SCC iter.                  ...        0 min,  2.543 sec
     gradient                   ...        0 min,  0.787 sec
 * total energy  :  -532.3110718 Eh     change       -0.1746653E-02 Eh
   gradient norm :     0.0158555 Eh/α   predicted    -0.1461198E-02 ( -16.34%)
   displ. norm   :     0.7640696 α      lambda       -0.1909685E-02
   maximum displ.:     0.4749323 α      in ANC's #34, #30, #14, ...

........................................................................
.............................. CYCLE   26 ..............................
........................................................................
   1   -539.1391483 -0.539139E+03  0.628E-03    1.11       0.0  T
   2   -539.1391537 -0.543245E-05  0.345E-03    1.11       1.8  T
   3   -539.1391556 -0.188850E-05  0.250E-03    1.11       2.5  T
   4   -539.1391585 -0.291720E-05  0.133E-03    1.11       4.7  T
   5   -539.1391592 -0.678863E-06  0.352E-04    1.11      17.6  T
   6   -539.1391592 -0.314850E-07  0.230E-04    1.11      27.0  T
   7   -539.1391593 -0.414764E-07  0.670E-05    1.11      92.6  T
   8   -539.1391593 -0.288321E-08  0.232E-05    1.11     267.2  T
     SCC iter.                  ...        0 min,  2.550 sec
     gradient                   ...        0 min,  0.785 sec
 * total energy  :  -532.3126755 Eh     change       -0.1603638E-02 Eh
   gradient norm :     0.0131269 Eh/α   predicted    -0.1512284E-02 (  -5.70%)
   displ. norm   :     0.7459760 α      lambda       -0.1475135E-02
   maximum displ.:     0.4606071 α      in ANC's #34, #30, #14, ...

........................................................................
.............................. CYCLE   27 ..............................
........................................................................
   1   -539.1459099 -0.539146E+03  0.527E-03    1.10       0.0  T
   2   -539.1459142 -0.430240E-05  0.285E-03    1.10       2.2  T
   3   -539.1459161 -0.196340E-05  0.205E-03    1.10       3.0  T
   4   -539.1459183 -0.216294E-05  0.944E-04    1.10       6.6  T
   5   -539.1459186 -0.269827E-06  0.300E-04    1.10      20.7  T
   6   -539.1459186 -0.124354E-07  0.204E-04    1.10      30.4  T
   7   -539.1459186 -0.282265E-07  0.684E-05    1.10      90.7  T
   8   -539.1459186 -0.318641E-08  0.234E-05    1.10     264.9  T
     SCC iter.                  ...        0 min,  2.553 sec
     gradient                   ...        0 min,  0.817 sec
 * total energy  :  -532.3139363 Eh     change       -0.1260790E-02 Eh
   gradient norm :     0.0147510 Eh/α   predicted    -0.1148029E-02 (  -8.94%)
   displ. norm   :     0.7262699 α      lambda       -0.1307129E-02
   maximum displ.:     0.4369804 α      in ANC's #34, #30, #14, ...

........................................................................
.............................. CYCLE   28 ..............................
........................................................................
   1   -539.1549569 -0.539155E+03  0.539E-03    1.10       0.0  T
   2   -539.1549613 -0.436791E-05  0.279E-03    1.10       2.2  T
   3   -539.1549632 -0.184070E-05  0.214E-03    1.10       2.9  T
   4   -539.1549658 -0.264886E-05  0.824E-04    1.10       7.5  T
   5   -539.1549660 -0.175466E-06  0.301E-04    1.10      20.6  T
   6   -539.1549660 -0.103636E-07  0.187E-04    1.10      33.2  T
   7   -539.1549660 -0.222385E-07  0.699E-05    1.10      88.7  T
     SCC iter.                  ...        0 min,  2.226 sec
     gradient                   ...        0 min,  0.790 sec
 * total energy  :  -532.3150488 Eh     change       -0.1112550E-02 Eh
   gradient norm :     0.0097658 Eh/α   predicted    -0.9983419E-03 ( -10.27%)
   displ. norm   :     0.7220215 α      lambda       -0.1055781E-02
   maximum displ.:     0.4143651 α      in ANC's #34, #30, #14, ...

........................................................................
.............................. CYCLE   29 ..............................
........................................................................
   1   -539.1638328 -0.539164E+03  0.559E-03    1.10       0.0  T
   2   -539.1638380 -0.514188E-05  0.308E-03    1.10       2.0  T
   3   -539.1638411 -0.315472E-05  0.216E-03    1.10       2.9  T
   4   -539.1638439 -0.276844E-05  0.805E-04    1.10       7.7  T
   5   -539.1638440 -0.136711E-06  0.308E-04    1.10      20.1  T
   6   -539.1638441 -0.101792E-07  0.193E-04    1.10      32.1  T
   7   -539.1638441 -0.250276E-07  0.705E-05    1.10      87.9  T
     SCC iter.                  ...        0 min,  2.238 sec
     gradient                   ...        0 min,  0.790 sec
 * total energy  :  -532.3159081 Eh     change       -0.8592751E-03 Eh
   gradient norm :     0.0070503 Eh/α   predicted    -0.8030886E-03 (  -6.54%)
   displ. norm   :     0.6689654 α      lambda       -0.7340298E-03
   maximum displ.:     0.3626777 α      in ANC's #30, #34, #14, ...

........................................................................
.............................. CYCLE   30 ..............................
........................................................................
   1   -539.1716940 -0.539172E+03  0.529E-03    1.10       0.0  T
   2   -539.1716997 -0.572000E-05  0.288E-03    1.10       2.2  T
   3   -539.1717029 -0.315901E-05  0.193E-03    1.10       3.2  T
   4   -539.1717052 -0.227848E-05  0.669E-04    1.10       9.3  T
   5   -539.1717052 -0.661424E-07  0.270E-04    1.10      22.9  T
   6   -539.1717052 -0.496448E-08  0.174E-04    1.10      35.7  T
   7   -539.1717052 -0.209824E-07  0.636E-05    1.10      97.5  T
     SCC iter.                  ...        0 min,  2.236 sec
     gradient                   ...        0 min,  0.789 sec
 * total energy  :  -532.3164883 Eh     change       -0.5802584E-03 Eh
   gradient norm :     0.0067815 Eh/α   predicted    -0.5312618E-03 (  -8.44%)
   displ. norm   :     0.5881845 α      lambda       -0.4925675E-03
   maximum displ.:     0.3165429 α      in ANC's #30, #14, #34, ...

........................................................................
.............................. CYCLE   31 ..............................
........................................................................
   1   -539.1774306 -0.539177E+03  0.516E-03    1.10       0.0  T
   2   -539.1774374 -0.674711E-05  0.258E-03    1.10       2.4  T
   3   -539.1774397 -0.234899E-05  0.173E-03    1.10       3.6  T
   4   -539.1774416 -0.185936E-05  0.613E-04    1.10      10.1  T
   5   -539.1774416 -0.551713E-07  0.232E-04    1.10      26.7  T
   6   -539.1774416  0.470777E-09  0.157E-04    1.10      39.4  T
   7   -539.1774417 -0.186224E-07  0.549E-05    1.10     112.9  T
     SCC iter.                  ...        0 min,  2.235 sec
     gradient                   ...        0 min,  0.794 sec
 * total energy  :  -532.3168677 Eh     change       -0.3793523E-03 Eh
   gradient norm :     0.0062991 Eh/α   predicted    -0.3314930E-03 ( -12.62%)
   displ. norm   :     0.5015846 α      lambda       -0.3582213E-03
   maximum displ.:     0.2729332 α      in ANC's #14, #30, #34, ...

........................................................................
.............................. CYCLE   32 ..............................
........................................................................
   1   -539.1817408 -0.539182E+03  0.521E-03    1.10       0.0  T
   2   -539.1817487 -0.783988E-05  0.232E-03    1.10       2.7  T
   3   -539.1817503 -0.166203E-05  0.158E-03    1.10       3.9  T
   4   -539.1817519 -0.153917E-05  0.594E-04    1.10      10.4  T
   5   -539.1817519 -0.675398E-07  0.214E-04    1.10      29.0  T
   6   -539.1817519  0.240539E-08  0.141E-04    1.10      44.0  T
   7   -539.1817519 -0.165029E-07  0.473E-05    1.10     131.2  T
     SCC iter.                  ...        0 min,  2.228 sec
     gradient                   ...        0 min,  0.796 sec
 * total energy  :  -532.3171477 Eh     change       -0.2799632E-03 Eh
   gradient norm :     0.0048743 Eh/α   predicted    -0.2241740E-03 ( -19.93%)
   displ. norm   :     0.4597105 α      lambda       -0.3175909E-03
   maximum displ.:     0.2780793 α      in ANC's #14, #30, #24, ...

........................................................................
.............................. CYCLE   33 ..............................
........................................................................
   1   -539.1836270 -0.539184E+03  0.551E-03    1.10       0.0  T
   2   -539.1836371 -0.100387E-04  0.229E-03    1.10       2.7  T
   3   -539.1836388 -0.172685E-05  0.144E-03    1.10       4.3  T
   4   -539.1836402 -0.142300E-05  0.524E-04    1.10      11.8  T
   5   -539.1836402 -0.417493E-07  0.217E-04    1.10      28.6  T
   6   -539.1836402  0.352100E-08  0.139E-04    1.10      44.8  T
   7   -539.1836403 -0.179626E-07  0.407E-05    1.10     152.4  T
     SCC iter.                  ...        0 min,  2.235 sec
     gradient                   ...        0 min,  0.795 sec
 * total energy  :  -532.3174120 Eh     change       -0.2643350E-03 Eh
   gradient norm :     0.0046648 Eh/α   predicted    -0.1923578E-03 ( -27.23%)
   displ. norm   :     0.5072735 α      lambda       -0.3979470E-03
   maximum displ.:     0.3349327 α      in ANC's #14, #30, #24, ...

........................................................................
.............................. CYCLE   34 ..............................
........................................................................
   1   -539.1858054 -0.539186E+03  0.701E-03    1.09       0.0  T
   2   -539.1858212 -0.157986E-04  0.268E-03    1.09       2.3  T
   3   -539.1858231 -0.185196E-05  0.175E-03    1.09       3.6  T
   4   -539.1858247 -0.165639E-05  0.817E-04    1.09       7.6  T
   5   -539.1858249 -0.205958E-06  0.291E-04    1.09      21.3  T
   6   -539.1858249 -0.329817E-08  0.164E-04    1.09      37.7  T
   7   -539.1858250 -0.266346E-07  0.418E-05    1.09     148.5  T
     SCC iter.                  ...        0 min,  2.240 sec
     gradient                   ...        0 min,  0.789 sec
 * total energy  :  -532.3177332 Eh     change       -0.3212520E-03 Eh
   gradient norm :     0.0054979 Eh/α   predicted    -0.2501802E-03 ( -22.12%)
   displ. norm   :     0.6476625 α      lambda       -0.4798773E-03
   maximum displ.:     0.4248593 α      in ANC's #14, #30, #24, ...

........................................................................
.............................. CYCLE   35 ..............................
........................................................................
   1   -539.1789732 -0.539179E+03  0.875E-03    1.09       0.0  T
   2   -539.1789976 -0.243278E-04  0.382E-03    1.09       1.6  T
   3   -539.1790011 -0.352578E-05  0.221E-03    1.09       2.8  T
   4   -539.1790030 -0.193196E-05  0.149E-03    1.09       4.2  T
   5   -539.1790039 -0.865485E-06  0.344E-04    1.09      18.0  T
   6   -539.1790039 -0.252710E-07  0.212E-04    1.09      29.3  T
   7   -539.1790040 -0.460661E-07  0.391E-05    1.09     158.4  T
   8   -539.1790040 -0.575255E-09  0.185E-05    1.09     335.1  T
     SCC iter.                  ...        0 min,  2.548 sec
     gradient                   ...        0 min,  0.789 sec
 * total energy  :  -532.3179914 Eh     change       -0.2582027E-03 Eh
   gradient norm :     0.0151145 Eh/α   predicted    -0.3405873E-03 (  31.91%)
   displ. norm   :     0.3760754 α      lambda       -0.4312409E-03
   maximum displ.:     0.2436071 α      in ANC's #14, #34, #24, ...

........................................................................
.............................. CYCLE   36 ..............................
........................................................................
   1   -539.1808271 -0.539181E+03  0.469E-03    1.09       0.0  T
   2   -539.1808323 -0.525497E-05  0.179E-03    1.09       3.5  T
   3   -539.1808327 -0.303102E-06  0.115E-03    1.09       5.4  T
   4   -539.1808326  0.617432E-07  0.866E-04    1.09       7.2  T
   5   -539.1808331 -0.556323E-06  0.207E-04    1.09      29.9  T
   6   -539.1808332 -0.917328E-08  0.988E-05    1.09      62.8  T
   7   -539.1808332 -0.841806E-08  0.229E-05    1.09     271.2  T
     SCC iter.                  ...        0 min,  2.236 sec
     gradient                   ...        0 min,  0.792 sec
 * total energy  :  -532.3183257 Eh     change       -0.3343020E-03 Eh
   gradient norm :     0.0074125 Eh/α   predicted    -0.2461180E-03 ( -26.38%)
   displ. norm   :     0.4884310 α      lambda       -0.3746472E-03
   maximum displ.:     0.3228823 α      in ANC's #14, #34, #24, ...

........................................................................
.............................. CYCLE   37 ..............................
........................................................................
   1   -539.1810570 -0.539181E+03  0.433E-03    1.09       0.0  T
   2   -539.1810630 -0.594502E-05  0.185E-03    1.09       3.4  T
   3   -539.1810640 -0.100286E-05  0.106E-03    1.09       5.8  T
   4   -539.1810645 -0.520144E-06  0.597E-04    1.09      10.4  T
   5   -539.1810647 -0.158146E-06  0.202E-04    1.09      30.7  T
   6   -539.1810647 -0.235741E-08  0.133E-04    1.09      46.6  T
   7   -539.1810647 -0.139038E-07  0.301E-05    1.09     206.3  T
     SCC iter.                  ...        0 min,  2.231 sec
     gradient                   ...        0 min,  0.790 sec
 * total energy  :  -532.3186335 Eh     change       -0.3077220E-03 Eh
   gradient norm :     0.0058978 Eh/α   predicted    -0.2320136E-03 ( -24.60%)
   displ. norm   :     0.5895112 α      lambda       -0.4126914E-03
   maximum displ.:     0.3909638 α      in ANC's #14, #34, #24, ...

........................................................................
.............................. CYCLE   38 ..............................
........................................................................
   1   -539.1793071 -0.539179E+03  0.541E-03    1.09       0.0  T
   2   -539.1793153 -0.812622E-05  0.256E-03    1.09       2.4  T
   3   -539.1793170 -0.168354E-05  0.156E-03    1.09       4.0  T
   4   -539.1793180 -0.104645E-05  0.945E-04    1.09       6.6  T
   5   -539.1793184 -0.364837E-06  0.294E-04    1.09      21.1  T
   6   -539.1793184 -0.129079E-07  0.198E-04    1.09      31.3  T
   7   -539.1793184 -0.317669E-07  0.396E-05    1.09     156.8  T
     SCC iter.                  ...        0 min,  2.232 sec
     gradient                   ...        0 min,  0.781 sec
 * total energy  :  -532.3189263 Eh     change       -0.2928063E-03 Eh
   gradient norm :     0.0080719 Eh/α   predicted    -0.2780600E-03 (  -5.04%)
   displ. norm   :     0.5474490 α      lambda       -0.3640504E-03
   maximum displ.:     0.3605191 α      in ANC's #14, #34, #24, ...

........................................................................
.............................. CYCLE   39 ..............................
........................................................................
   1   -539.1773139 -0.539177E+03  0.532E-03    1.09       0.0  T
   2   -539.1773202 -0.628959E-05  0.275E-03    1.09       2.3  T
   3   -539.1773216 -0.138737E-05  0.180E-03    1.09       3.4  T
   4   -539.1773227 -0.114451E-05  0.114E-03    1.09       5.4  T
   5   -539.1773233 -0.605007E-06  0.310E-04    1.09      20.0  T
   6   -539.1773234 -0.256816E-07  0.210E-04    1.09      29.6  T
   7   -539.1773234 -0.379580E-07  0.408E-05    1.09     152.2  T
   8   -539.1773234 -0.253181E-09  0.209E-05    1.09     296.4  T
     SCC iter.                  ...        0 min,  2.547 sec
     gradient                   ...        0 min,  0.791 sec
 * total energy  :  -532.3191405 Eh     change       -0.2142268E-03 Eh
   gradient norm :     0.0080749 Eh/α   predicted    -0.2365784E-03 (  10.43%)
   displ. norm   :     0.3026314 α      lambda       -0.1814001E-03
   maximum displ.:     0.1755209 α      in ANC's #14, #34, #35, ...

........................................................................
.............................. CYCLE   40 ..............................
........................................................................
   1   -539.1792057 -0.539179E+03  0.331E-03    1.09       0.0  T
   2   -539.1792074 -0.162886E-05  0.170E-03    1.09       3.6  T
   3   -539.1792074 -0.352808E-07  0.133E-03    1.09       4.7  T
   4   -539.1792083 -0.857794E-06  0.671E-04    1.09       9.2  T
   5   -539.1792085 -0.214604E-06  0.205E-04    1.09      30.3  T
   6   -539.1792085 -0.168468E-07  0.120E-04    1.09      51.6  T
   7   -539.1792085 -0.136231E-07  0.271E-05    1.09     229.1  T
     SCC iter.                  ...        0 min,  2.233 sec
     gradient                   ...        0 min,  0.793 sec
 * total energy  :  -532.3192439 Eh     change       -0.1034509E-03 Eh
   gradient norm :     0.0074093 Eh/α   predicted    -0.9901083E-04 (  -4.29%)
   displ. norm   :     0.4261973 α      lambda       -0.2152486E-03
   maximum displ.:     0.3003255 α      in ANC's #14, #34, #33, ...

........................................................................
.............................. CYCLE   41 ..............................
........................................................................
   1   -539.1734722 -0.539173E+03  0.509E-03    1.09       0.0  T
   2   -539.1734783 -0.607921E-05  0.232E-03    1.09       2.7  T
   3   -539.1734791 -0.762622E-06  0.146E-03    1.09       4.2  T
   4   -539.1734793 -0.265004E-06  0.112E-03    1.09       5.5  T
   5   -539.1734802 -0.895047E-06  0.235E-04    1.09      26.3  T
   6   -539.1734803 -0.181676E-07  0.140E-04    1.09      44.2  T
   7   -539.1734803 -0.200019E-07  0.327E-05    1.09     189.9  T
     SCC iter.                  ...        0 min,  2.235 sec
     gradient                   ...        0 min,  0.791 sec
 * total energy  :  -532.3193399 Eh     change       -0.9597700E-04 Eh
   gradient norm :     0.0086618 Eh/α   predicted    -0.1271778E-03 (  32.51%)
   displ. norm   :     0.1444696 α      lambda       -0.1310259E-03
   maximum displ.:     0.0950652 α      in ANC's #14, #34, #33, ...

........................................................................
.............................. CYCLE   42 ..............................
........................................................................
   1   -539.1740177 -0.539174E+03  0.265E-03    1.09       0.0  T
   2   -539.1740191 -0.149387E-05  0.110E-03    1.09       5.6  T
   3   -539.1740192 -0.563267E-07  0.824E-04    1.09       7.5  T
   4   -539.1740196 -0.386140E-06  0.461E-04    1.09      13.5  T
   5   -539.1740197 -0.883607E-07  0.138E-04    1.09      44.9  T
   6   -539.1740197 -0.760269E-08  0.563E-05    1.09     110.1  T
     SCC iter.                  ...        0 min,  1.912 sec
     gradient                   ...        0 min,  0.791 sec
 * total energy  :  -532.3194326 Eh     change       -0.9272424E-04 Eh
   gradient norm :     0.0048850 Eh/α   predicted    -0.6688234E-04 ( -27.87%)
   displ. norm   :     0.2090355 α      lambda       -0.1253770E-03
   maximum displ.:     0.1208705 α      in ANC's #14, #34, #33, ...
 * RMSD in coord.:     0.5627429 α      energy gain  -0.1667212E-01 Eh

generating ANC from model Hessian ...
Using Lindh-Hessian (1995)
 Shifting diagonal of input Hessian by    1.0015467832573375E-002
 Lowest  eigenvalues of input Hessian
    0.010000    0.010005    0.010006    0.010006    0.010007    0.010009
    0.010010    0.000000    0.000000    0.000000    0.000000    0.000000
    0.000000    0.010017    0.010023    0.010056    0.010073    0.010076
 Highest eigenvalues
    3.592516    3.596955    3.597744    3.598378    3.600569    3.602298


........................................................................
.............................. CYCLE   43 ..............................
........................................................................
   1   -539.1772772 -0.539177E+03  0.340E-03    1.09       0.0  T
   2   -539.1772792 -0.191528E-05  0.158E-03    1.09       3.9  T
   3   -539.1772791  0.670567E-07  0.124E-03    1.09       5.0  T
   4   -539.1772796 -0.491114E-06  0.727E-04    1.09       8.5  T
   5   -539.1772798 -0.258214E-06  0.173E-04    1.09      35.8  T
   6   -539.1772799 -0.162145E-07  0.609E-05    1.09     101.8  T
     SCC iter.                  ...        0 min,  1.917 sec
     gradient                   ...        0 min,  0.791 sec
 * total energy  :  -532.3194982 Eh     change       -0.6554872E-04 Eh
   gradient norm :     0.0052275 Eh/α   predicted     0.0000000E+00 (-100.00%)
   displ. norm   :     0.0400500 α      lambda       -0.3037706E-04
   maximum displ.:     0.0168151 α      in ANC's #44, #23, #29, ...

........................................................................
.............................. CYCLE   44 ..............................
........................................................................
   1   -539.1763320 -0.539176E+03  0.107E-03    1.09       0.0  T
   2   -539.1763323 -0.233346E-06  0.543E-04    1.09      11.4  T
   3   -539.1763323 -0.140495E-07  0.353E-04    1.09      17.6  T
   4   -539.1763323 -0.292259E-07  0.262E-04    1.09      23.6  T
   5   -539.1763324 -0.462651E-07  0.709E-05    1.09      87.4  T
   6   -539.1763324 -0.299201E-08  0.260E-05    1.09     238.7  T
     SCC iter.                  ...        0 min,  1.919 sec
     gradient                   ...        0 min,  0.792 sec
 * total energy  :  -532.3195362 Eh     change       -0.3804697E-04 Eh
   gradient norm :     0.0026187 Eh/α   predicted    -0.2474172E-04 ( -34.97%)
   displ. norm   :     0.1065537 α      lambda       -0.7448789E-04
   maximum displ.:     0.0483014 α      in ANC's #44, #23, #29, ...

........................................................................
.............................. CYCLE   45 ..............................
........................................................................
   1   -539.1748943 -0.539175E+03  0.222E-03    1.09       0.0  T
   2   -539.1748955 -0.124404E-05  0.106E-03    1.09       5.8  T
   3   -539.1748956 -0.126373E-06  0.668E-04    1.09       9.3  T
   4   -539.1748958 -0.142362E-06  0.488E-04    1.09      12.7  T
   5   -539.1748959 -0.149884E-06  0.143E-04    1.09      43.3  T
   6   -539.1748959 -0.111512E-07  0.501E-05    1.09     123.7  T
     SCC iter.                  ...        0 min,  1.919 sec
     gradient                   ...        0 min,  0.798 sec
 * total energy  :  -532.3195837 Eh     change       -0.4748540E-04 Eh
   gradient norm :     0.0031515 Eh/α   predicted    -0.3766774E-04 ( -20.68%)
   displ. norm   :     0.0956858 α      lambda       -0.3493894E-04
   maximum displ.:     0.0437557 α      in ANC's #44, #23, #14, ...

........................................................................
.............................. CYCLE   46 ..............................
........................................................................
   1   -539.1749258 -0.539175E+03  0.122E-03    1.09       0.0  T
   2   -539.1749262 -0.452143E-06  0.479E-04    1.09      12.9  T
   3   -539.1749263 -0.427048E-07  0.285E-04    1.09      21.8  T
   4   -539.1749263 -0.432616E-07  0.187E-04    1.09      33.1  T
   5   -539.1749263 -0.190566E-07  0.653E-05    1.09      95.0  T
     SCC iter.                  ...        0 min,  1.597 sec
     gradient                   ...        0 min,  0.792 sec
 * total energy  :  -532.3196119 Eh     change       -0.2819925E-04 Eh
   gradient norm :     0.0037681 Eh/α   predicted    -0.1763157E-04 ( -37.48%)
   displ. norm   :     0.2076296 α      lambda       -0.6818123E-04
   maximum displ.:     0.0935956 α      in ANC's #44, #23, #14, ...

........................................................................
.............................. CYCLE   47 ..............................
........................................................................
   1   -539.1756734 -0.539176E+03  0.194E-03    1.09       0.0  T
   2   -539.1756746 -0.116328E-05  0.694E-04    1.09       8.9  T
   3   -539.1756747 -0.102665E-06  0.395E-04    1.09      15.7  T
   4   -539.1756747 -0.526630E-07  0.280E-04    1.09      22.2  T
   5   -539.1756748 -0.405217E-07  0.905E-05    1.09      68.5  T
   6   -539.1756748 -0.258433E-08  0.388E-05    1.09     159.7  T
     SCC iter.                  ...        0 min,  1.919 sec
     gradient                   ...        0 min,  0.795 sec
 * total energy  :  -532.3196618 Eh     change       -0.4992053E-04 Eh
   gradient norm :     0.0037536 Eh/α   predicted    -0.3557424E-04 ( -28.74%)
   displ. norm   :     0.2225985 α      lambda       -0.5997573E-04
   maximum displ.:     0.0948761 α      in ANC's #44, #23, #14, ...

........................................................................
.............................. CYCLE   48 ..............................
........................................................................
   1   -539.1766785 -0.539177E+03  0.163E-03    1.09       0.0  T
   2   -539.1766792 -0.775258E-06  0.642E-04    1.09       9.7  T
   3   -539.1766793 -0.762126E-07  0.396E-04    1.09      15.7  T
   4   -539.1766793 -0.418662E-07  0.282E-04    1.09      22.0  T
   5   -539.1766794 -0.472853E-07  0.722E-05    1.09      85.9  T
   6   -539.1766794 -0.801947E-09  0.379E-05    1.09     163.6  T
     SCC iter.                  ...        0 min,  1.918 sec
     gradient                   ...        0 min,  0.797 sec
 * total energy  :  -532.3197063 Eh     change       -0.4449524E-04 Eh
   gradient norm :     0.0033196 Eh/α   predicted    -0.3148764E-04 ( -29.23%)
   displ. norm   :     0.2359667 α      lambda       -0.5925572E-04
   maximum displ.:     0.0940378 α      in ANC's #23, #44, #14, ...

........................................................................
.............................. CYCLE   49 ..............................
........................................................................
   1   -539.1776694 -0.539178E+03  0.167E-03    1.09       0.0  T
   2   -539.1776702 -0.752920E-06  0.772E-04    1.09       8.0  T
   3   -539.1776703 -0.128633E-06  0.492E-04    1.09      12.6  T
   4   -539.1776705 -0.135177E-06  0.302E-04    1.09      20.5  T
   5   -539.1776705 -0.509718E-07  0.902E-05    1.09      68.8  T
   6   -539.1776705 -0.143041E-08  0.434E-05    1.09     142.8  T
     SCC iter.                  ...        0 min,  1.914 sec
     gradient                   ...        0 min,  0.792 sec
 * total energy  :  -532.3197500 Eh     change       -0.4366877E-04 Eh
   gradient norm :     0.0028795 Eh/α   predicted    -0.3127836E-04 ( -28.37%)
   displ. norm   :     0.2211330 α      lambda       -0.5403772E-04
   maximum displ.:     0.0904691 α      in ANC's #23, #14, #29, ...

........................................................................
.............................. CYCLE   50 ..............................
........................................................................
   1   -539.1784146 -0.539178E+03  0.175E-03    1.09       0.0  T
   2   -539.1784154 -0.781640E-06  0.838E-04    1.09       7.4  T
   3   -539.1784155 -0.179561E-06  0.526E-04    1.09      11.8  T
   4   -539.1784157 -0.198050E-06  0.295E-04    1.09      21.0  T
   5   -539.1784158 -0.447620E-07  0.105E-04    1.09      58.9  T
   6   -539.1784158 -0.230818E-08  0.478E-05    1.09     129.6  T
     SCC iter.                  ...        0 min,  1.908 sec
     gradient                   ...        0 min,  0.792 sec
 * total energy  :  -532.3197886 Eh     change       -0.3857330E-04 Eh
   gradient norm :     0.0026600 Eh/α   predicted    -0.2834307E-04 ( -26.52%)
   displ. norm   :     0.1814596 α      lambda       -0.4173120E-04
   maximum displ.:     0.0746021 α      in ANC's #23, #14, #33, ...

........................................................................
.............................. CYCLE   51 ..............................
........................................................................
   1   -539.1785568 -0.539179E+03  0.143E-03    1.09       0.0  T
   2   -539.1785574 -0.547628E-06  0.662E-04    1.09       9.4  T
   3   -539.1785575 -0.110865E-06  0.400E-04    1.09      15.5  T
   4   -539.1785576 -0.106230E-06  0.232E-04    1.09      26.7  T
   5   -539.1785576 -0.290726E-07  0.842E-05    1.09      73.6  T
   6   -539.1785576 -0.154137E-08  0.402E-05    1.09     154.2  T
     SCC iter.                  ...        0 min,  1.918 sec
     gradient                   ...        0 min,  0.788 sec
 * total energy  :  -532.3198190 Eh     change       -0.3043789E-04 Eh
   gradient norm :     0.0026449 Eh/α   predicted    -0.2158724E-04 ( -29.08%)
   displ. norm   :     0.1727737 α      lambda       -0.3907498E-04
   maximum displ.:     0.0679219 α      in ANC's #23, #14, #34, ...

........................................................................
.............................. CYCLE   52 ..............................
........................................................................
   1   -539.1781775 -0.539178E+03  0.126E-03    1.09       0.0  T
   2   -539.1781780 -0.458704E-06  0.602E-04    1.09      10.3  T
   3   -539.1781780 -0.840746E-07  0.345E-04    1.09      18.0  T
   4   -539.1781781 -0.408585E-07  0.233E-04    1.09      26.6  T
   5   -539.1781781 -0.288977E-07  0.746E-05    1.09      83.1  T
   6   -539.1781781 -0.128341E-08  0.385E-05    1.09     161.0  T
     SCC iter.                  ...        0 min,  1.913 sec
     gradient                   ...        0 min,  0.790 sec
 * total energy  :  -532.3198480 Eh     change       -0.2900385E-04 Eh
   gradient norm :     0.0027672 Eh/α   predicted    -0.2012643E-04 ( -30.61%)
   displ. norm   :     0.2006604 α      lambda       -0.4063653E-04
   maximum displ.:     0.0762752 α      in ANC's #14, #23, #34, ...

........................................................................
.............................. CYCLE   53 ..............................
........................................................................
   1   -539.1771049 -0.539177E+03  0.134E-03    1.09       0.0  T
   2   -539.1771055 -0.573868E-06  0.680E-04    1.09       9.1  T
   3   -539.1771056 -0.114688E-06  0.365E-04    1.09      17.0  T
   4   -539.1771056 -0.216780E-07  0.273E-04    1.09      22.7  T
   5   -539.1771056 -0.363799E-07  0.756E-05    1.09      82.0  T
   6   -539.1771057 -0.137095E-08  0.401E-05    1.09     154.7  T
     SCC iter.                  ...        0 min,  1.914 sec
     gradient                   ...        0 min,  0.784 sec
 * total energy  :  -532.3198783 Eh     change       -0.3027600E-04 Eh
   gradient norm :     0.0029840 Eh/α   predicted    -0.2114127E-04 ( -30.17%)
   displ. norm   :     0.2080629 α      lambda       -0.4114924E-04
   maximum displ.:     0.0796894 α      in ANC's #14, #34, #23, ...

........................................................................
.............................. CYCLE   54 ..............................
........................................................................
   1   -539.1760879 -0.539176E+03  0.149E-03    1.09       0.0  T
   2   -539.1760886 -0.735415E-06  0.701E-04    1.09       8.8  T
   3   -539.1760887 -0.137851E-06  0.359E-04    1.09      17.3  T
   4   -539.1760888 -0.435110E-07  0.259E-04    1.09      23.9  T
   5   -539.1760888 -0.299597E-07  0.809E-05    1.09      76.7  T
   6   -539.1760888 -0.167449E-08  0.395E-05    1.09     156.9  T
     SCC iter.                  ...        0 min,  1.913 sec
     gradient                   ...        0 min,  0.791 sec
 * total energy  :  -532.3199101 Eh     change       -0.3176305E-04 Eh
   gradient norm :     0.0031370 Eh/α   predicted    -0.2147016E-04 ( -32.41%)
   displ. norm   :     0.2387479 α      lambda       -0.4842600E-04
   maximum displ.:     0.0920078 α      in ANC's #34, #14, #23, ...

........................................................................
.............................. CYCLE   55 ..............................
........................................................................
   1   -539.1753756 -0.539175E+03  0.189E-03    1.09       0.0  T
   2   -539.1753768 -0.122550E-05  0.750E-04    1.09       8.3  T
   3   -539.1753770 -0.173996E-06  0.353E-04    1.09      17.6  T
   4   -539.1753770 -0.617335E-07  0.247E-04    1.09      25.1  T
   5   -539.1753770 -0.282516E-07  0.844E-05    1.09      73.5  T
   6   -539.1753770 -0.111322E-08  0.427E-05    1.09     145.4  T
     SCC iter.                  ...        0 min,  1.916 sec
     gradient                   ...        0 min,  0.792 sec
 * total energy  :  -532.3199473 Eh     change       -0.3721297E-04 Eh
   gradient norm :     0.0032568 Eh/α   predicted    -0.2559619E-04 ( -31.22%)
   displ. norm   :     0.2692063 α      lambda       -0.5124074E-04
   maximum displ.:     0.1054906 α      in ANC's #34, #14, #23, ...

........................................................................
.............................. CYCLE   56 ..............................
........................................................................
   1   -539.1749365 -0.539175E+03  0.224E-03    1.09       0.0  T
   2   -539.1749383 -0.182900E-05  0.773E-04    1.09       8.0  T
   3   -539.1749385 -0.207654E-06  0.329E-04    1.09      18.8  T
   4   -539.1749386 -0.419050E-07  0.230E-04    1.09      27.0  T
   5   -539.1749386 -0.267659E-07  0.806E-05    1.09      76.9  T
   6   -539.1749386 -0.649152E-09  0.415E-05    1.09     149.3  T
     SCC iter.                  ...        0 min,  1.915 sec
     gradient                   ...        0 min,  0.793 sec
 * total energy  :  -532.3199861 Eh     change       -0.3878108E-04 Eh
   gradient norm :     0.0032766 Eh/α   predicted    -0.2747851E-04 ( -29.14%)
   displ. norm   :     0.2895267 α      lambda       -0.4810258E-04
   maximum displ.:     0.1135754 α      in ANC's #34, #14, #6, ...

........................................................................
.............................. CYCLE   57 ..............................
........................................................................
   1   -539.1747314 -0.539175E+03  0.253E-03    1.09       0.0  T
   2   -539.1747338 -0.237575E-05  0.868E-04    1.09       7.1  T
[...]
    26   6 C       27   6 C                                       1.3550046
    27   6 C       28   6 C                                       1.4320100
    25   6 C       29   7 N                                       1.3689922
    28   6 C       29   7 N                                       1.3750281
    28   6 C       30   6 C                                       1.3897527
    31   6 C       32   6 C                                       1.3968423
    32   6 C       33   6 C                                       1.3853938
    33   6 C       34   6 C                                       1.3852379
    34   6 C       35  16 S                                       1.7536194
    35  16 S       36   8 O                                       1.4336579
    35  16 S       37   8 O                                       1.6242002
    35  16 S       38   8 O                                       1.4323604
    34   6 C       39   6 C                                       1.3855363
    31   6 C       40   6 C                                       1.3974478
    39   6 C       40   6 C                                       1.3848227
    30   6 C       41   6 C                                       1.3892535
    41   6 C       42   6 C                                       1.4343964
    42   6 C       43   6 C                                       1.3534904
     2   6 C       44   6 C                                       1.3796581
    43   6 C       44   6 C                                       1.4315871
    41   6 C       45   7 N                                       1.3719482
    44   6 C       45   7 N                                       1.3726938
     2   6 C       46   1 H                                       1.0836046
     4   6 C       47   1 H                                       1.0782527
     5   6 C       48   1 H                                       1.0778770
    10   6 C       49   1 H                                       1.0837259
    11   6 C       50   1 H                                       1.0827533
    15   8 O       51   1 H                                       0.9649853
    17   6 C       52   1 H                                       1.0827421
    18   6 C       53   1 H                                       1.0837747
    20   6 C       54   1 H                                       1.0777472
    21   6 C       55   1 H                                       1.0780873
    26   6 C       56   1 H                                       1.0781356
    27   6 C       57   1 H                                       1.0777758
    32   6 C       58   1 H                                       1.0837283
    33   6 C       59   1 H                                       1.0827399
    37   8 O       60   1 H                                       0.9649555 (min)
    39   6 C       61   1 H                                       1.0827647
    40   6 C       62   1 H                                       1.0837586
    42   6 C       63   1 H                                       1.0778580
    43   6 C       64   1 H                                       1.0782376
    66   6 C       67   6 C                                       1.3791375
    67   6 C       68   6 C                                       1.4313798
    68   6 C       69   6 C                                       1.3530709
    69   6 C       70   6 C                                       1.4343213
    67   6 C       71   7 N                                       1.3725067
    70   6 C       71   7 N                                       1.3722100
    70   6 C       72   6 C                                       1.3884025
    73   6 C       74   6 C                                       1.3969034
    74   6 C       75   6 C                                       1.3852131
    75   6 C       76   6 C                                       1.3853379
    76   6 C       77  16 S                                       1.7534409
    77  16 S       78   8 O                                       1.4330964
    77  16 S       79   8 O                                       1.6238469
    77  16 S       80   8 O                                       1.4334033
    76   6 C       81   6 C                                       1.3854188
    73   6 C       82   6 C                                       1.3969503
    81   6 C       82   6 C                                       1.3851653
    72   6 C       83   6 C                                       1.3888613
    83   6 C       84   6 C                                       1.4323805
    84   6 C       85   6 C                                       1.3539236
    83   6 C       86   7 N                                       1.3749469
    85   6 C       87   6 C                                       1.4292423
    86   7 N       87   6 C                                       1.3697729
    87   6 C       88   6 C                                       1.3929660
    88   6 C       89   6 C                                       1.3928954
    89   6 C       90   6 C                                       1.4292102
    90   6 C       91   6 C                                       1.3540176
    91   6 C       92   6 C                                       1.4324525
    89   6 C       93   7 N                                       1.3695962
    92   6 C       93   7 N                                       1.3749942
    92   6 C       94   6 C                                       1.3887495
    95   6 C       96   6 C                                       1.3967668
    96   6 C       97   6 C                                       1.3852973
    97   6 C       98   6 C                                       1.3852643
    98   6 C       99  16 S                                       1.7536593
    99  16 S      100   8 O                                       1.4336793
    99  16 S      101   8 O                                       1.6244809
    99  16 S      102   8 O                                       1.4324168
    98   6 C      103   6 C                                       1.3854706
    95   6 C      104   6 C                                       1.3970096
   103   6 C      104   6 C                                       1.3851073
    94   6 C      105   6 C                                       1.3884813
   105   6 C      106   6 C                                       1.4344219
   106   6 C      107   6 C                                       1.3529529
    66   6 C      108   6 C                                       1.3788955
   107   6 C      108   6 C                                       1.4315208
   105   6 C      109   7 N                                       1.3719275
   108   6 C      109   7 N                                       1.3727672
    66   6 C      110   1 H                                       1.0836444
    68   6 C      111   1 H                                       1.0782480
    69   6 C      112   1 H                                       1.0778460
    74   6 C      113   1 H                                       1.0837293
    75   6 C      114   1 H                                       1.0827415
    79   8 O      115   1 H                                       0.9649729
    81   6 C      116   1 H                                       1.0827449
    82   6 C      117   1 H                                       1.0837432
    84   6 C      118   1 H                                       1.0776773
    85   6 C      119   1 H                                       1.0780021
    90   6 C      120   1 H                                       1.0780480
    91   6 C      121   1 H                                       1.0777164
    96   6 C      122   1 H                                       1.0837273
    97   6 C      123   1 H                                       1.0827350
   101   8 O      124   1 H                                       0.9649874
   103   6 C      125   1 H                                       1.0827740
   104   6 C      126   1 H                                       1.0837466
   106   6 C      127   1 H                                       1.0778275
   107   6 C      128   1 H                                       1.0782304
   129   6 C      130   6 C                                       1.2149311
   131   6 C      132   6 C                                       1.2159515
   133   6 C      134   6 C                                       1.2137559
   136   6 C      137   6 C                                       1.3962306
   137   6 C      138   6 C                                       1.4285258
   138   6 C      139   6 C                                       1.3555563
   139   6 C      140   6 C                                       1.4314909
   137   6 C      141   7 N                                       1.3688710
   140   6 C      141   7 N                                       1.3747508
   140   6 C      142   6 C                                       1.3901290
   143   6 C      144   6 C                                       1.3972034
   144   6 C      145   6 C                                       1.3851752
   145   6 C      146   6 C                                       1.3852921
   146   6 C      147  16 S                                       1.7538003
   147  16 S      148   8 O                                       1.4336704
   147  16 S      149   8 O                                       1.6232358
   147  16 S      150   8 O                                       1.4323939
   146   6 C      151   6 C                                       1.3855285
   143   6 C      152   6 C                                       1.3974846
   151   6 C      152   6 C                                       1.3849073
   142   6 C      153   6 C                                       1.3895535
   153   6 C      154   6 C                                       1.4315240
   154   6 C      155   6 C                                       1.3554773
   153   6 C      156   7 N                                       1.3759401
   155   6 C      157   6 C                                       1.4280771
   156   7 N      157   6 C                                       1.3680439
   157   6 C      158   6 C                                       1.3977207
   158   6 C      159   6 C                                       1.3976195
   159   6 C      160   6 C                                       1.4281333
   160   6 C      161   6 C                                       1.3554829
   161   6 C      162   6 C                                       1.4315021
   159   6 C      163   7 N                                       1.3680656
   162   6 C      163   7 N                                       1.3758714
   162   6 C      164   6 C                                       1.3895055
   165   6 C      166   6 C                                       1.3971679
   166   6 C      167   6 C                                       1.3851544
   167   6 C      168   6 C                                       1.3852703
   168   6 C      169  16 S                                       1.7536704
   169  16 S      170   8 O                                       1.4336653
   169  16 S      171   8 O                                       1.6236590
   169  16 S      172   8 O                                       1.4323193
   168   6 C      173   6 C                                       1.3855406
   165   6 C      174   6 C                                       1.3974109
   173   6 C      174   6 C                                       1.3849376
   164   6 C      175   6 C                                       1.3900893
   175   6 C      176   6 C                                       1.4314878
   176   6 C      177   6 C                                       1.3555852
   136   6 C      178   6 C                                       1.3963005
   177   6 C      178   6 C                                       1.4284864
   175   6 C      179   7 N                                       1.3747593
   178   6 C      179   7 N                                       1.3690411
   138   6 C      180   1 H                                       1.0780937
   139   6 C      181   1 H                                       1.0777856
   144   6 C      182   1 H                                       1.0837387
   145   6 C      183   1 H                                       1.0827569
   149   8 O      184   1 H                                       0.9649914
   151   6 C      185   1 H                                       1.0827640
   152   6 C      186   1 H                                       1.0837715
   154   6 C      187   1 H                                       1.0777173
   155   6 C      188   1 H                                       1.0778683
   160   6 C      189   1 H                                       1.0778725
   161   6 C      190   1 H                                       1.0777344
   166   6 C      191   1 H                                       1.0837350
   167   6 C      192   1 H                                       1.0827442
   171   8 O      193   1 H                                       0.9650112
   173   6 C      194   1 H                                       1.0827520
   174   6 C      195   1 H                                       1.0837576
   176   6 C      196   1 H                                       1.0778011
   177   6 C      197   1 H                                       1.0781265
   199   6 C      200   6 C                                       1.3970553
   200   6 C      201   6 C                                       1.4282846
   201   6 C      202   6 C                                       1.3549490
   202   6 C      203   6 C                                       1.4314409
   200   6 C      204   7 N                                       1.3681430
   203   6 C      204   7 N                                       1.3758772
   203   6 C      205   6 C                                       1.3886549
   206   6 C      207   6 C                                       1.3968180
   207   6 C      208   6 C                                       1.3853606
   208   6 C      209   6 C                                       1.3851296
   209   6 C      210  16 S                                       1.7540648 (max)
   210  16 S      211   8 O                                       1.4337508
   210  16 S      212   8 O                                       1.6226411
   210  16 S      213   8 O                                       1.4317952
   209   6 C      214   6 C                                       1.3855826
   206   6 C      215   6 C                                       1.3972463
   214   6 C      215   6 C                                       1.3849425
   205   6 C      216   6 C                                       1.3891949
   216   6 C      217   6 C                                       1.4320017
   217   6 C      218   6 C                                       1.3545427
   216   6 C      219   7 N                                       1.3747210
   218   6 C      220   6 C                                       1.4290521
   219   7 N      220   6 C                                       1.3695942
   220   6 C      221   6 C                                       1.3935935
   221   6 C      222   6 C                                       1.3935503
   222   6 C      223   6 C                                       1.4290074
   223   6 C      224   6 C                                       1.3545733
   224   6 C      225   6 C                                       1.4320226
   222   6 C      226   7 N                                       1.3697230
   225   6 C      226   7 N                                       1.3746310
   225   6 C      227   6 C                                       1.3893089
   228   6 C      229   6 C                                       1.3968529
   229   6 C      230   6 C                                       1.3853333
   230   6 C      231   6 C                                       1.3851536
   231   6 C      232  16 S                                       1.7540483
   232  16 S      233   8 O                                       1.4337790
   232  16 S      234   8 O                                       1.6228701
   232  16 S      235   8 O                                       1.4319094
   231   6 C      236   6 C                                       1.3855500
   228   6 C      237   6 C                                       1.3971877
   236   6 C      237   6 C                                       1.3850072
   227   6 C      238   6 C                                       1.3885993
   238   6 C      239   6 C                                       1.4315440
   239   6 C      240   6 C                                       1.3549451
   199   6 C      241   6 C                                       1.3970422
   240   6 C      241   6 C                                       1.4282547
   238   6 C      242   7 N                                       1.3758572
   241   6 C      242   7 N                                       1.3681568
   201   6 C      243   1 H                                       1.0778436
   202   6 C      244   1 H                                       1.0777159
   207   6 C      245   1 H                                       1.0837419
   208   6 C      246   1 H                                       1.0827283
   212   8 O      247   1 H                                       0.9651665
   214   6 C      248   1 H                                       1.0827787
   215   6 C      249   1 H                                       1.0837465
   217   6 C      250   1 H                                       1.0777012
   218   6 C      251   1 H                                       1.0779943
   223   6 C      252   1 H                                       1.0780236
   224   6 C      253   1 H                                       1.0777202
   229   6 C      254   1 H                                       1.0837497
   230   6 C      255   1 H                                       1.0827281
   234   8 O      256   1 H                                       0.9651555
   236   6 C      257   1 H                                       1.0827730
   237   6 C      258   1 H                                       1.0837473
   239   6 C      259   1 H                                       1.0777144
   240   6 C      260   1 H                                       1.0778626

 * 6 distinct bonds (by element types)

   Z      Z             #   av. dist./Å        max./Å        min./Å
   1 H    6 C          66     1.0806717     1.0837747     1.0776773
   6 C    6 C         131     1.3914389     1.4344219     1.2137559
   6 C    7 N          32     1.3721367     1.3759401     1.3680439
   1 H    8 O           8     0.9650282     0.9651665     0.9649555
   6 C   16 S           8     1.7537212     1.7540648     1.7534409
   8 O   16 S          24     1.4965370     1.6244809     1.4317952


optimized geometry written to: xtbopt.xyz


           -------------------------------------------------
          | TOTAL ENERGY             -532.320179204376 Eh   |
          | GRADIENT NORM               0.000923798526 Eh/α |
          | HOMO-LUMO GAP               1.080667692236 eV   |
           -------------------------------------------------

------------------------------------------------------------------------
 * finished run on 2022/07/30 at 10:55:15.085     
------------------------------------------------------------------------
 total:
 * wall-time:     0 d,  0 h,  4 min, 19.822 sec
 *  cpu-time:     0 d,  0 h,  4 min, 18.688 sec
 * ratio c/w:     0.996 speedup
 SCF:
 * wall-time:     0 d,  0 h,  0 min, 17.987 sec
 *  cpu-time:     0 d,  0 h,  0 min, 17.905 sec
 * ratio c/w:     0.995 speedup
 ANC optimizer:
 * wall-time:     0 d,  0 h,  4 min,  1.517 sec
 *  cpu-time:     0 d,  0 h,  4 min,  0.470 sec
 * ratio c/w:     0.996 speedup

