      -----------------------------------------------------------      
     |                   =====================                   |     
     |                           x T B                           |     
     |                   =====================                   |     
     |                         S. Grimme                         |     
     |          Mulliken Center for Theoretical Chemistry        |     
     |                    University of Bonn                     |     
      -----------------------------------------------------------      

   * xtb version 6.5.1 (b24c23e) compiled by 'conda@728c89f4b128' on 2022-07-12

   xtb is free software: you can redistribute it and/or modify it under
   the terms of the GNU Lesser General Public License as published by
   the Free Software Foundation, either version 3 of the License, or
   (at your option) any later version.
   
   xtb is distributed in the hope that it will be useful,
   but WITHOUT ANY WARRANTY; without even the implied warranty of
   MERCHANTABILITY or FITNESS FOR A PARTICULAR PURPOSE.  See the
   GNU Lesser General Public License for more details.
   
   Cite this work as:
   * C. Bannwarth, E. Caldeweyher, S. Ehlert, A. Hansen, P. Pracht,
     J. Seibert, S. Spicher, S. Grimme, WIREs Comput. Mol. Sci., 2020, 11,
     e01493. DOI: 10.1002/wcms.1493
   
   for GFN2-xTB:
   * C. Bannwarth, S. Ehlert and S. Grimme., J. Chem. Theory Comput., 2019,
     15, 1652-1671. DOI: 10.1021/acs.jctc.8b01176
   for GFN1-xTB:
   * S. Grimme, C. Bannwarth, P. Shushkov, J. Chem. Theory Comput., 2017,
     13, 1989-2009. DOI: 10.1021/acs.jctc.7b00118
   for GFN0-xTB:
   * P. Pracht, E. Caldeweyher, S. Ehlert, S. Grimme, ChemRxiv, 2019, preprint.
     DOI: 10.26434/chemrxiv.8326202.v1
   for GFN-FF:
   * S. Spicher and S. Grimme, Angew. Chem. Int. Ed., 2020, 59, 15665-15673.
     DOI: 10.1002/anie.202004239
   
   for ALPB and GBSA implicit solvation:
   * S. Ehlert, M. Stahn, S. Spicher, S. Grimme, J. Chem. Theory Comput.,
     2021, 17, 4250-4261. DOI: 10.1021/acs.jctc.1c00471
   
   for DFT-D4:
   * E. Caldeweyher, C. Bannwarth and S. Grimme, J. Chem. Phys., 2017,
     147, 034112. DOI: 10.1063/1.4993215
   * E. Caldeweyher, S. Ehlert, A. Hansen, H. Neugebauer, S. Spicher,
     C. Bannwarth and S. Grimme, J. Chem. Phys., 2019, 150, 154122.
     DOI: 10.1063/1.5090222
   * E. Caldeweyher, J.-M. Mewes, S. Ehlert and S. Grimme, Phys. Chem. Chem. Phys.
     2020, 22, 8499-8512. DOI: 10.1039/D0CP00502A
   
   for sTDA-xTB:
   * S. Grimme and C. Bannwarth, J. Chem. Phys., 2016, 145, 054103.
     DOI: 10.1063/1.4959605
   
   in the mass-spec context:
   * V. Asgeirsson, C. Bauer and S. Grimme, Chem. Sci., 2017, 8, 4879.
     DOI: 10.1039/c7sc00601b
   * J. Koopman and S. Grimme, ACS Omega 2019, 4, 12, 15120-15133.
     DOI: 10.1021/acsomega.9b02011
   
   for metadynamics refer to:
   * S. Grimme, J. Chem. Theory Comput., 2019, 155, 2847-2862
     DOI: 10.1021/acs.jctc.9b00143
   
   for SPH calculations refer to:
   * S. Spicher and S. Grimme, J. Chem. Theory Comput., 2021, 17, 1701-1714
     DOI: 10.1021/acs.jctc.0c01306
   
   with help from (in alphabetical order)
   P. Atkinson, C. Bannwarth, F. Bohle, G. Brandenburg, E. Caldeweyher
   M. Checinski, S. Dohm, S. Ehlert, S. Ehrlich, I. Gerasimov, C. Hölzer
   A. Katbashev, J. Koopman, C. Lavigne, S. Lehtola, F. März, M. Müller,
   F. Musil, H. Neugebauer, J. Pisarek, C. Plett, P. Pracht, F. Pultar,
   J. Seibert, P. Shushkov, S. Spicher, M. Stahn, M. Steiner, T. Strunk,
   J. Stückrath, T. Rose, and J. Unsleber
   
 * started run on 2022/07/30 at 10:55:15.096     

           -------------------------------------------------
          |                Calculation Setup                |
           -------------------------------------------------

          program call               : xtb xtbopt.xyz --gfn 1 --vipea
          hostname                   : cx3-15-13.cx3.hpc.ic.ac.uk
          coordinate file            : xtbopt.xyz
          omp threads                :                     1

   ID    Z sym.   atoms
    1   28 Ni     1, 65, 135, 198
    2    6 C      2-6, 8-12, 17-21, 23-28, 30-34, 39-44, 66-70, 72-76, 81-85,
                  87-92, 94-98, 103-108, 129-134, 136-140, 142-146, 151-155,
                  157-162, 164-168, 173-178, 199-203, 205-209, 214-218,
                  220-225, 227-231, 236-241
    3    7 N      7, 22, 29, 45, 71, 86, 93, 109, 141, 156, 163, 179, 204,
                  219, 226, 242
    4   16 S      13, 35, 77, 99, 147, 169, 210, 232
    5    8 O      14-16, 36-38, 78-80, 100-102, 148-150, 170-172, 211-213,
                  233-235
    6    1 H      46-64, 110-128, 180-197, 243-260

           -------------------------------------------------
          |                 I P E A - x T B                 |
           -------------------------------------------------

        Reference                      10.1039/c7sc00601b
      * Hamiltonian:
        H0-scaling (s, p, d)           2.150000    2.300000    2.000000
        zeta-weighting                 0.000000
      * Dispersion:
        s8                             2.400000
        a1                             0.630000
        a2                             5.000000
        s9                             0.000000
      * Repulsion:
        kExp                           1.500000
        rExp                           1.000000
      * Coulomb:
        alpha                          1.000000
        third order                    atomic
        anisotropic                    false
      * Halogen bond correction:
        rad-scale                      1.300000
        damping                        0.440000


          ...................................................
          :                      SETUP                      :
          :.................................................:
          :  # basis functions                1138          :
          :  # atomic orbitals                1126          :
          :  # shells                          706          :
          :  # electrons                       922          :
          :  # halogen bonds                     0          :
          :  max. iterations                   250          :
          :  Hamiltonian                  GFN1-xTB          :
          :  restarted?                      false          :
          :  GBSA solvation                  false          :
          :  PC potential                    false          :
          :  electronic temp.          300.0000000     K    :
          :  accuracy                    1.0000000          :
          :  -> integral cutoff          0.2500000E+02      :
          :  -> integral neglect         0.1000000E-07      :
          :  -> SCF convergence          0.1000000E-05 Eh   :
          :  -> wf. convergence          0.2000000E-04 e    :
          :  Broyden damping             0.4000000          :
          ...................................................

 iter      E             dE          RMSdq      gap      omega  full diag
   1   -587.3363416 -0.587336E+03  0.105E+01    1.22       0.0  T
   2   -586.7207819  0.615560E+00  0.696E+00    1.03       1.0  T
   3   -586.1028431  0.617939E+00  0.497E+00    1.08       1.0  T
   4   -592.3813713 -0.627853E+01  0.125E+00    1.65       1.0  T
   5   -593.2601599 -0.878789E+00  0.436E-01    1.40       1.0  T
   6   -593.3359571 -0.757972E-01  0.224E-01    1.45       1.0  T
   7   -593.3509959 -0.150388E-01  0.110E-01    1.42       1.0  T
   8   -593.3526156 -0.161970E-02  0.548E-02    1.42       1.0  T
   9   -593.3537294 -0.111387E-02  0.205E-02    1.42       1.0  T
  10   -593.3538998 -0.170375E-03  0.107E-02    1.42       1.0  T
  11   -593.3539491 -0.493077E-04  0.552E-03    1.42       1.1  T
  12   -593.3539657 -0.166125E-04  0.129E-03    1.42       4.8  T
  13   -593.3539665 -0.775832E-06  0.261E-04    1.42      23.7  T
  14   -593.3539665 -0.307818E-08  0.255E-04    1.42      24.3  T
  15   -593.3539665 -0.249848E-07  0.123E-04    1.42      50.4  T
  16   -593.3539665 -0.657894E-08  0.292E-05    1.42     212.6  T

   *** convergence criteria satisfied after 16 iterations ***

         #    Occupation            Energy/Eh            Energy/eV
      -------------------------------------------------------------
         1        2.0000           -1.1187394             -30.4424
       ...           ...                  ...                  ...
       455        2.0000           -0.3886653             -10.5761
       456        2.0000           -0.3882499             -10.5648
       457        2.0000           -0.3880595             -10.5596
       458        2.0000           -0.3870690             -10.5327
       459        2.0000           -0.3868179             -10.5258
       460        2.0000           -0.3866387             -10.5210
       461        2.0000           -0.3815818             -10.3834 (HOMO)
       462                         -0.3293095              -8.9610 (LUMO)
       463                         -0.3164086              -8.6099
       464                         -0.3149706              -8.5708
       465                         -0.3137999              -8.5389
       466                         -0.3131597              -8.5215
       ...                                ...                  ...
      1126                        557.9472917           15182.5186
      -------------------------------------------------------------
                  HL-Gap            0.0522723 Eh            1.4224 eV
             Fermi-level           -0.3554457 Eh           -9.6722 eV

 SCC (total)                   0 d,  0 h,  0 min, 10.690 sec
 SCC setup                      ...        0 min,  0.008 sec (  0.076%)
 Dispersion                     ...        0 min,  0.012 sec (  0.116%)
 classical contributions        ...        0 min,  0.004 sec (  0.038%)
 integral evaluation            ...        0 min,  0.815 sec (  7.626%)
 iterations                     ...        0 min,  7.971 sec ( 74.564%)
 molecular gradient             ...        0 min,  1.778 sec ( 16.634%)
 printout                       ...        0 min,  0.101 sec (  0.946%)

         :::::::::::::::::::::::::::::::::::::::::::::::::::::
         ::                     SUMMARY                     ::
         :::::::::::::::::::::::::::::::::::::::::::::::::::::
         :: total energy            -583.820521002446 Eh    ::
         :: gradient norm              0.106604581216 Eh/a0 ::
         :: HOMO-LUMO gap              1.422402301941 eV    ::
         ::.................................................::
         :: SCC energy              -593.353966533116 Eh    ::
         :: -> electrostatic           0.562452717335 Eh    ::
         :: repulsion energy           9.783887265735 Eh    ::
         :: dispersion energy         -0.250441735065 Eh    ::
         :: halogen bond corr.         0.000000000000 Eh    ::
         :: add. restraining           0.000000000000 Eh    ::
         :: total charge               0.000000000000 e     ::
         :::::::::::::::::::::::::::::::::::::::::::::::::::::

           ------------------------------------------------- 
          |        vertical delta SCC IP calculation        |
           ------------------------------------------------- 
   1   -592.9364840 -0.592936E+03  0.997E-02    1.42       0.0  T
   2   -592.9027452  0.337387E-01  0.209E-01    1.30       1.0  T
   3   -592.9334864 -0.307411E-01  0.126E-01    1.39       1.0  T
   4   -592.8740383  0.594480E-01  0.333E-01    1.38       1.0  T
   5   -592.9098559 -0.358175E-01  0.158E-01    1.34       1.0  T
   6   -592.9404797 -0.306238E-01  0.768E-02    1.41       1.0  T
   7   -592.9453786 -0.489889E-02  0.515E-02    1.41       1.0  T
   8   -592.9462081 -0.829529E-03  0.217E-02    1.40       1.0  T
   9   -592.9454636  0.744553E-03  0.311E-02    1.40       1.0  T
  10   -592.9460769 -0.613372E-03  0.280E-02    1.41       1.0  T
  11   -592.9464118 -0.334867E-03  0.162E-02    1.40       1.0  T
  12   -592.9465117 -0.999277E-04  0.734E-03    1.40       1.0  T
  13   -592.9465342 -0.224621E-04  0.252E-03    1.40       2.5  T
  14   -592.9465387 -0.445959E-05  0.182E-03    1.40       3.4  T
  15   -592.9465399 -0.125593E-05  0.425E-04    1.40      14.6  T
  16   -592.9465400 -0.423723E-07  0.472E-04    1.40      13.1  T
  17   -592.9465399  0.439800E-07  0.520E-04    1.40      11.9  T
  18   -592.9465400 -0.109110E-06  0.209E-04    1.40      29.7  T
  19   -592.9465400 -0.175319E-07  0.859E-05    1.40      72.2  T
  20   -592.9465400 -0.370619E-08  0.170E-05    1.40     364.3  T
     SCC iter.                  ...        0 min,  9.930 sec
     gradient                   ...        0 min,  1.800 sec
------------------------------------------------------------------------
empirical IP shift (eV):    4.8455
delta SCC IP (eV):    6.2411
------------------------------------------------------------------------
           ------------------------------------------------- 
          |        vertical delta SCC EA calculation        |
           ------------------------------------------------- 
   1   -593.6206264 -0.593621E+03  0.166E-01    0.39       0.0  T
   2   -593.6137069  0.691951E-02  0.178E-01    0.02       1.0  T
   3   -593.6479515 -0.342447E-01  0.882E-02    0.23       1.0  T
   4   -593.6518335 -0.388194E-02  0.635E-02    0.17       1.0  T
   5   -593.6530176 -0.118412E-02  0.483E-02    0.09       1.0  T
   6   -593.6524643  0.553283E-03  0.367E-02    0.07       1.0  T
   7   -593.6528670 -0.402717E-03  0.288E-02    0.17       1.0  T
   8   -593.6544757 -0.160871E-02  0.120E-02    0.09       1.0  T
   9   -593.6546656 -0.189884E-03  0.700E-03    0.12       1.0  T
  10   -593.6547330 -0.673432E-04  0.314E-03    0.11       2.0  T
  11   -593.6547387 -0.577255E-05  0.135E-03    0.11       4.6  T
  12   -593.6547398 -0.103094E-05  0.546E-04    0.11      11.4  T
  13   -593.6547397  0.798279E-07  0.420E-04    0.11      14.8  T
  14   -593.6547400 -0.292637E-06  0.140E-04    0.11      44.2  T
  15   -593.6547400 -0.194211E-08  0.758E-05    0.11      81.9  T
     SCC iter.                  ...        0 min,  7.455 sec
     gradient                   ...        0 min,  1.797 sec
------------------------------------------------------------------------
empirical EA shift (eV):    4.8455
delta SCC EA (eV):    3.3390
------------------------------------------------------------------------
           -------------------------------------------------
          |                Property Printout                |
           -------------------------------------------------

    * Orbital Energies and Occupations

         #    Occupation            Energy/Eh            Energy/eV
      -------------------------------------------------------------
         1        2.0000           -1.0853445             -29.5337
       ...           ...                  ...                  ...
       450        2.0000           -0.3407520              -9.2723
       451        2.0000           -0.3402137              -9.2577
       452        2.0000           -0.3401905              -9.2571
       453        2.0000           -0.3381389              -9.2012
       454        2.0000           -0.3360206              -9.1436
       455        2.0000           -0.3354798              -9.1289
       456        2.0000           -0.3354294              -9.1275
       457        2.0000           -0.3353833              -9.1262
       458        2.0000           -0.3333114              -9.0699
       459        2.0000           -0.3326091              -9.0508
       460        2.0000           -0.3325351              -9.0487
       461        2.0000           -0.3269956              -8.8980
       462        0.8441           -0.2742225              -7.4620 (HOMO)
       463        0.0809           -0.2703091              -7.3555 (LUMO)
       464        0.0723           -0.2701925              -7.3523
       465        0.0024           -0.2668847              -7.2623
       466        0.0003           -0.2647708              -7.2048
       467        0.0000           -0.2618401              -7.1250
       468        0.0000           -0.2599284              -7.0730
       469                         -0.2511101              -6.8331
       470                         -0.2344217              -6.3789
       471                         -0.2328866              -6.3372
       472                         -0.2293600              -6.2412
       473                         -0.2270328              -6.1779
       ...                                ...                  ...
      1126                        557.9972794           15183.8788
      -------------------------------------------------------------
                  HL-Gap            0.0039133 Eh            0.1065 eV
             Fermi-level           -0.2866133 Eh           -7.7991 eV

  Mulliken/CM5 charges         n(s)   n(p)   n(d)
     1Ni    0.27492  0.65316   0.573  0.786  8.366
     2C    -0.02424 -0.06552   1.081  2.944  0.000
     3C     0.05906  0.11964   1.111  2.830  0.000
     4C    -0.03809 -0.08460   1.085  2.953  0.000
     5C    -0.03577 -0.08191   1.080  2.956  0.000
     6C     0.05886  0.12286   1.104  2.837  0.000
     7N    -0.21049 -0.46400   1.314  3.896  0.000
     8C     0.00849  0.01388   1.084  2.907  0.000
     9C     0.01587  0.00713   1.094  2.890  0.000
    10C    -0.01690 -0.07008   1.081  2.936  0.000
    11C    -0.01141 -0.06205   1.095  2.916  0.000
    12C     0.03130  0.04025   1.151  2.818  0.000
    13S     0.45057  0.53768   1.582  2.658  1.309
    14O    -0.28198 -0.33241   1.700  4.582  0.000
    15O    -0.29282 -0.48762   1.691  4.602  0.000
    16O    -0.28037 -0.33072   1.700  4.580  0.000
    17C    -0.01066 -0.06128   1.096  2.915  0.000
    18C    -0.01603 -0.06913   1.081  2.935  0.000
    19C     0.05850  0.12205   1.102  2.839  0.000
    20C    -0.03508 -0.08119   1.076  2.959  0.000
    21C    -0.03358 -0.07928   1.081  2.953  0.000
    22N    -0.20725 -0.46085   1.316  3.891  0.000
    23C     0.06299  0.12781   1.115  2.822  0.000
    24C     0.01733  0.02433   1.079  2.904  0.000
    25C     0.06292  0.12780   1.115  2.822  0.000
    26C    -0.03388 -0.07957   1.081  2.953  0.000
    27C    -0.03546 -0.08157   1.076  2.959  0.000
    28C     0.05831  0.12184   1.102  2.840  0.000
    29N    -0.20723 -0.46065   1.316  3.891  0.000
    30C     0.00849  0.01388   1.084  2.907  0.000
    31C     0.01582  0.00708   1.094  2.890  0.000
    32C    -0.01695 -0.07010   1.081  2.936  0.000
    33C    -0.01136 -0.06200   1.096  2.916  0.000
    34C     0.03116  0.04010   1.151  2.818  0.000
    35S     0.45025  0.53735   1.582  2.657  1.310
    36O    -0.28295 -0.33365   1.699  4.584  0.000
    37O    -0.29126 -0.48603   1.691  4.600  0.000
    38O    -0.28064 -0.33086   1.702  4.579  0.000
    39C    -0.01088 -0.06151   1.095  2.916  0.000
    40C    -0.01603 -0.06914   1.081  2.935  0.000
    41C     0.05906  0.12313   1.104  2.837  0.000
    42C    -0.03542 -0.08155   1.080  2.956  0.000
    43C    -0.03788 -0.08439   1.085  2.953  0.000
    44C     0.05910  0.11962   1.112  2.829  0.000
    45N    -0.21049 -0.46402   1.314  3.896  0.000
    46H     0.02445  0.08342   0.976  0.000  0.000
    47H     0.02999  0.08663   0.970  0.000  0.000
    48H     0.02334  0.08219   0.977  0.000  0.000
    49H     0.02877  0.08678   0.971  0.000  0.000
    50H     0.04205  0.10295   0.958  0.000  0.000
    51H     0.22649  0.40463   0.774  0.000  0.000
    52H     0.04344  0.10439   0.957  0.000  0.000
    53H     0.02994  0.08798   0.970  0.000  0.000
    54H     0.02424  0.08311   0.976  0.000  0.000
    55H     0.02313  0.08136   0.977  0.000  0.000
    56H     0.02302  0.08121   0.977  0.000  0.000
    57H     0.02459  0.08345   0.975  0.000  0.000
    58H     0.02881  0.08678   0.971  0.000  0.000
    59H     0.04165  0.10267   0.958  0.000  0.000
    60H     0.22739  0.40567   0.773  0.000  0.000
    61H     0.04365  0.10448   0.956  0.000  0.000
    62H     0.02988  0.08794   0.970  0.000  0.000
    63H     0.02297  0.08182   0.977  0.000  0.000
    64H     0.03016  0.08680   0.970  0.000  0.000
    65Ni    0.27718  0.64732   0.572  0.783  8.367
    66C    -0.02025 -0.06160   1.084  2.936  0.000
    67C     0.05904  0.11963   1.110  2.831  0.000
    68C    -0.03677 -0.08332   1.086  2.951  0.000
    69C    -0.03558 -0.08170   1.079  2.956  0.000
    70C     0.06087  0.12494   1.105  2.834  0.000
    71N    -0.20941 -0.46096   1.315  3.894  0.000
    72C     0.00765  0.01297   1.083  2.910  0.000
    73C     0.01549  0.00665   1.094  2.891  0.000
    74C    -0.01710 -0.07027   1.081  2.936  0.000
    75C    -0.01121 -0.06185   1.096  2.915  0.000
    76C     0.03134  0.04029   1.151  2.818  0.000
    77S     0.45080  0.53787   1.582  2.657  1.309
    78O    -0.28108 -0.33141   1.700  4.581  0.000
    79O    -0.29274 -0.48753   1.691  4.602  0.000
    80O    -0.28060 -0.33104   1.700  4.581  0.000
    81C    -0.01054 -0.06118   1.096  2.915  0.000
    82C    -0.01640 -0.06955   1.081  2.936  0.000
    83C     0.06106  0.12469   1.104  2.835  0.000
    84C    -0.03406 -0.08016   1.078  2.956  0.000
    85C    -0.03234 -0.07798   1.085  2.947  0.000
    86N    -0.20738 -0.45865   1.315  3.892  0.000
    87C     0.06379  0.12858   1.115  2.821  0.000
    88C     0.02103  0.02792   1.079  2.900  0.000
    89C     0.06367  0.12851   1.115  2.822  0.000
    90C    -0.03265 -0.07828   1.085  2.948  0.000
    91C    -0.03450 -0.08059   1.078  2.956  0.000
    92C     0.06086  0.12449   1.104  2.835  0.000
    93N    -0.20734 -0.45847   1.315  3.892  0.000
    94C     0.00762  0.01295   1.083  2.910  0.000
    95C     0.01544  0.00659   1.094  2.891  0.000
    96C    -0.01719 -0.07033   1.081  2.936  0.000
    97C    -0.01122 -0.06185   1.096  2.915  0.000
    98C     0.03119  0.04013   1.151  2.818  0.000
    99S     0.45049  0.53757   1.582  2.657  1.310
   100O    -0.28246 -0.33321   1.698  4.584  0.000
   101O    -0.29125 -0.48598   1.691  4.600  0.000
   102O    -0.28032 -0.33050   1.702  4.578  0.000
   103C    -0.01074 -0.06138   1.095  2.916  0.000
   104C    -0.01638 -0.06955   1.081  2.936  0.000
   105C     0.06109  0.12522   1.105  2.834  0.000
   106C    -0.03519 -0.08129   1.079  2.956  0.000
   107C    -0.03650 -0.08306   1.086  2.950  0.000
   108C     0.05910  0.11963   1.111  2.830  0.000
   109N    -0.20944 -0.46109   1.315  3.895  0.000
   110H     0.02656  0.08559   0.973  0.000  0.000
   111H     0.03162  0.08827   0.968  0.000  0.000
   112H     0.02485  0.08376   0.975  0.000  0.000
   113H     0.02901  0.08695   0.971  0.000  0.000
   114H     0.04239  0.10333   0.958  0.000  0.000
   115H     0.22689  0.40505   0.773  0.000  0.000
   116H     0.04413  0.10505   0.956  0.000  0.000
   117H     0.03063  0.08855   0.969  0.000  0.000
   118H     0.02584  0.08483   0.974  0.000  0.000
   119H     0.02480  0.08304   0.975  0.000  0.000
   120H     0.02468  0.08287   0.975  0.000  0.000
   121H     0.02623  0.08521   0.974  0.000  0.000
   122H     0.02901  0.08692   0.971  0.000  0.000
   123H     0.04211  0.10313   0.958  0.000  0.000
   124H     0.22775  0.40601   0.772  0.000  0.000
   125H     0.04419  0.10502   0.956  0.000  0.000
   126H     0.03060  0.08853   0.969  0.000  0.000
   127H     0.02451  0.08342   0.975  0.000  0.000
   128H     0.03182  0.08847   0.968  0.000  0.000
   129C    -0.02905 -0.03133   1.069  2.960  0.000
   130C    -0.02447 -0.02671   1.074  2.950  0.000
   131C    -0.02764 -0.02987   1.071  2.956  0.000
   132C    -0.02954 -0.03182   1.069  2.960  0.000
   133C    -0.01920 -0.02162   1.076  2.944  0.000
   134C    -0.02510 -0.02756   1.068  2.957  0.000
   135Ni    0.27253  0.65453   0.573  0.786  8.368
   136C     0.01187  0.01895   1.074  2.914  0.000
   137C     0.06213  0.12703   1.115  2.822  0.000
   138C    -0.03672 -0.08240   1.079  2.958  0.000
   139C    -0.03601 -0.08214   1.077  2.959  0.000
   140C     0.05632  0.11984   1.100  2.843  0.000
   141N    -0.20867 -0.46301   1.315  3.894  0.000
   142C     0.01020  0.01560   1.086  2.904  0.000
   143C     0.01632  0.00764   1.094  2.890  0.000
   144C    -0.01576 -0.06893   1.081  2.935  0.000
   145C    -0.01079 -0.06142   1.096  2.915  0.000
   146C     0.03118  0.04012   1.151  2.818  0.000
   147S     0.44997  0.53714   1.582  2.658  1.310
   148O    -0.28370 -0.33450   1.698  4.586  0.000
   149O    -0.29179 -0.48659   1.691  4.601  0.000
   150O    -0.27953 -0.32970   1.702  4.578  0.000
   151C    -0.01144 -0.06207   1.095  2.916  0.000
   152C    -0.01621 -0.06930   1.081  2.935  0.000
   153C     0.05643  0.11974   1.100  2.843  0.000
   154C    -0.03549 -0.08167   1.076  2.960  0.000
   155C    -0.03568 -0.08150   1.078  2.958  0.000
   156N    -0.20807 -0.46239   1.315  3.893  0.000
   157C     0.06279  0.12781   1.116  2.822  0.000
   158C     0.01239  0.01940   1.075  2.913  0.000
   159C     0.06276  0.12777   1.116  2.822  0.000
   160C    -0.03570 -0.08152   1.078  2.958  0.000
   161C    -0.03557 -0.08174   1.076  2.960  0.000
   162C     0.05638  0.11970   1.100  2.843  0.000
   163N    -0.20806 -0.46250   1.315  3.893  0.000
   164C     0.01005  0.01546   1.086  2.904  0.000
   165C     0.01636  0.00767   1.094  2.890  0.000
   166C    -0.01581 -0.06896   1.081  2.935  0.000
   167C    -0.01085 -0.06148   1.096  2.915  0.000
   168C     0.03112  0.04007   1.151  2.818  0.000
   169S     0.44995  0.53709   1.582  2.658  1.310
   170O    -0.28371 -0.33452   1.698  4.586  0.000
   171O    -0.29210 -0.48687   1.691  4.601  0.000
   172O    -0.27941 -0.32958   1.702  4.577  0.000
   173C    -0.01147 -0.06211   1.095  2.916  0.000
   174C    -0.01623 -0.06932   1.081  2.935  0.000
   175C     0.05621  0.11972   1.100  2.843  0.000
   176C    -0.03625 -0.08236   1.077  2.959  0.000
   177C    -0.03693 -0.08260   1.079  2.958  0.000
   178C     0.06197  0.12683   1.116  2.822  0.000
   179N    -0.20873 -0.46320   1.315  3.894  0.000
   180H     0.01953  0.07770   0.980  0.000  0.000
   181H     0.02228  0.08105   0.978  0.000  0.000
   182H     0.02973  0.08782   0.970  0.000  0.000
   183H     0.04245  0.10347   0.958  0.000  0.000
   184H     0.22630  0.40457   0.774  0.000  0.000
   185H     0.04208  0.10292   0.958  0.000  0.000
   186H     0.02843  0.08654   0.972  0.000  0.000
   187H     0.02157  0.08043   0.978  0.000  0.000
   188H     0.01897  0.07731   0.981  0.000  0.000
   189H     0.01895  0.07728   0.981  0.000  0.000
   190H     0.02151  0.08036   0.978  0.000  0.000
   191H     0.02968  0.08776   0.970  0.000  0.000
   192H     0.04236  0.10338   0.958  0.000  0.000
   193H     0.22607  0.40436   0.774  0.000  0.000
   194H     0.04205  0.10289   0.958  0.000  0.000
   195H     0.02856  0.08665   0.971  0.000  0.000
   196H     0.02203  0.08079   0.978  0.000  0.000
   197H     0.01951  0.07765   0.980  0.000  0.000
   198Ni    0.27349  0.64849   0.573  0.785  8.369
   199C     0.01533  0.02227   1.077  2.907  0.000
   200C     0.06310  0.12814   1.115  2.822  0.000
   201C    -0.03448 -0.08032   1.079  2.956  0.000
   202C    -0.03534 -0.08148   1.076  2.960  0.000
   203C     0.05764  0.12102   1.101  2.842  0.000
   204N    -0.20723 -0.45988   1.315  3.892  0.000
   205C     0.01024  0.01558   1.085  2.904  0.000
   206C     0.01606  0.00729   1.094  2.890  0.000
   207C    -0.01636 -0.06950   1.081  2.936  0.000
   208C    -0.01106 -0.06169   1.096  2.915  0.000
   209C     0.03128  0.04020   1.151  2.818  0.000
   210S     0.45010  0.53736   1.582  2.656  1.312
   211O    -0.28360 -0.33457   1.697  4.586  0.000
   212O    -0.28993 -0.48471   1.691  4.599  0.000
   213O    -0.27917 -0.32935   1.702  4.577  0.000
   214C    -0.01085 -0.06149   1.095  2.916  0.000
   215C    -0.01589 -0.06902   1.081  2.935  0.000
   216C     0.05793  0.12152   1.102  2.840  0.000
   217C    -0.03497 -0.08109   1.079  2.956  0.000
   218C    -0.03653 -0.08215   1.083  2.954  0.000
   219N    -0.20918 -0.46170   1.314  3.895  0.000
   220C     0.06278  0.12760   1.115  2.822  0.000
   221C     0.01284  0.01981   1.072  2.916  0.000
   222C     0.06272  0.12751   1.115  2.822  0.000
   223C    -0.03657 -0.08220   1.083  2.954  0.000
   224C    -0.03502 -0.08114   1.079  2.956  0.000
   225C     0.05791  0.12151   1.102  2.840  0.000
   226N    -0.20917 -0.46164   1.314  3.895  0.000
   227C     0.01021  0.01554   1.085  2.904  0.000
   228C     0.01609  0.00731   1.094  2.890  0.000
   229C    -0.01628 -0.06941   1.081  2.936  0.000
   230C    -0.01101 -0.06163   1.096  2.915  0.000
   231C     0.03127  0.04020   1.151  2.818  0.000
   232S     0.45006  0.53730   1.582  2.657  1.312
   233O    -0.28366 -0.33463   1.697  4.586  0.000
   234O    -0.29004 -0.48481   1.691  4.599  0.000
   235O    -0.27931 -0.32945   1.703  4.577  0.000
   236C    -0.01092 -0.06155   1.095  2.916  0.000
   237C    -0.01596 -0.06909   1.081  2.935  0.000
   238C     0.05765  0.12104   1.101  2.842  0.000
   239C    -0.03536 -0.08149   1.076  2.960  0.000
   240C    -0.03449 -0.08032   1.079  2.956  0.000
   241C     0.06310  0.12815   1.115  2.822  0.000
   242N    -0.20730 -0.45982   1.315  3.892  0.000
   243H     0.02023  0.07865   0.980  0.000  0.000
   244H     0.02337  0.08226   0.977  0.000  0.000
   245H     0.02910  0.08710   0.971  0.000  0.000
   246H     0.04164  0.10275   0.958  0.000  0.000
   247H     0.22745  0.40580   0.773  0.000  0.000
   248H     0.04365  0.10443   0.956  0.000  0.000
   249H     0.02978  0.08779   0.970  0.000  0.000
   250H     0.02261  0.08150   0.977  0.000  0.000
   251H     0.02009  0.07825   0.980  0.000  0.000
   252H     0.02018  0.07831   0.980  0.000  0.000
   253H     0.02251  0.08139   0.977  0.000  0.000
   254H     0.02941  0.08741   0.971  0.000  0.000
   255H     0.04180  0.10288   0.958  0.000  0.000
   256H     0.22741  0.40572   0.773  0.000  0.000
   257H     0.04351  0.10431   0.956  0.000  0.000
   258H     0.02966  0.08766   0.970  0.000  0.000
   259H     0.02338  0.08227   0.977  0.000  0.000
   260H     0.02028  0.07869   0.980  0.000  0.000

Wiberg/Mayer (AO) data.
largest (>0.10) Wiberg bond orders for each atom

 ---------------------------------------------------------------------------
     #   Z sym  total        # sym  WBO       # sym  WBO       # sym  WBO
 ---------------------------------------------------------------------------
     1  28 Ni   3.347 --    22 N    0.716    29 N    0.716    45 N    0.715
                             7 N    0.715
     2   6 C    3.803 --    44 C    1.390     3 C    1.389    46 H    0.996
     3   6 C    3.945 --     2 C    1.389     7 N    1.254     4 C    1.202
     4   6 C    3.844 --     5 C    1.640     3 C    1.202    47 H    0.993
     5   6 C    3.832 --     4 C    1.640     6 C    1.208    48 H    0.998
     6   6 C    3.916 --     8 C    1.370     7 N    1.247     5 C    1.208
     7   7 N    3.005 --     3 C    1.254     6 C    1.247     1 Ni   0.715
     8   6 C    3.837 --     6 C    1.370    19 C    1.361     9 C    1.053
     9   6 C    3.896 --    10 C    1.422    18 C    1.421     8 C    1.053
    10   6 C    3.868 --    11 C    1.454     9 C    1.422    49 H    0.988
    11   6 C    3.914 --    10 C    1.454    12 C    1.418    50 H    0.985
    12   6 C    3.938 --    11 C    1.418    17 C    1.418    13 S    0.891
    13  16 S    5.801 --    16 O    1.894    14 O    1.892    15 O    1.079
                            12 C    0.891
    14   8 O    2.227 --    13 S    1.892    16 O    0.135
    15   8 O    2.282 --    13 S    1.079    51 H    0.938
    16   8 O    2.230 --    13 S    1.894    14 O    0.135
    17   6 C    3.914 --    18 C    1.454    12 C    1.418    52 H    0.985
    18   6 C    3.869 --    17 C    1.454     9 C    1.421    53 H    0.988
    19   6 C    3.903 --     8 C    1.361    22 N    1.244    20 C    1.219
    20   6 C    3.823 --    21 C    1.621    19 C    1.219    54 H    0.997
    21   6 C    3.822 --    20 C    1.621    23 C    1.227    55 H    0.998
    22   7 N    3.018 --    23 C    1.272    19 C    1.244     1 Ni   0.716
    23   6 C    3.924 --    24 C    1.309    22 N    1.272    21 C    1.227
    24   6 C    3.824 --    23 C    1.309    25 C    1.307   129 C    1.193
    25   6 C    3.924 --    24 C    1.307    29 N    1.273    26 C    1.228
    26   6 C    3.822 --    27 C    1.621    25 C    1.228    56 H    0.998
    27   6 C    3.823 --    26 C    1.621    28 C    1.219    57 H    0.997
    28   6 C    3.903 --    30 C    1.361    29 N    1.243    27 C    1.219
    29   7 N    3.019 --    25 C    1.273    28 C    1.243     1 Ni   0.716
    30   6 C    3.837 --    41 C    1.369    28 C    1.361    31 C    1.053
    31   6 C    3.896 --    32 C    1.423    40 C    1.421    30 C    1.053
    32   6 C    3.869 --    33 C    1.453    31 C    1.423    58 H    0.988
    33   6 C    3.915 --    32 C    1.453    34 C    1.420    59 H    0.985
    34   6 C    3.938 --    33 C    1.420    39 C    1.417    35 S    0.890
    35  16 S    5.803 --    38 O    1.898    36 O    1.889    37 O    1.081
                            34 C    0.890
    36   8 O    2.221 --    35 S    1.889    38 O    0.134
    37   8 O    2.283 --    35 S    1.081    60 H    0.938    38 O    0.101
    38   8 O    2.236 --    35 S    1.898    36 O    0.134    37 O    0.101
    39   6 C    3.914 --    40 C    1.455    34 C    1.417    61 H    0.985
    40   6 C    3.869 --    39 C    1.455    31 C    1.421    62 H    0.988
    41   6 C    3.916 --    30 C    1.369    45 N    1.248    42 C    1.207
    42   6 C    3.832 --    43 C    1.641    41 C    1.207    63 H    0.998
    43   6 C    3.844 --    42 C    1.641    44 C    1.201    64 H    0.993
    44   6 C    3.945 --     2 C    1.390    45 N    1.253    43 C    1.201
    45   7 N    3.005 --    44 C    1.253    41 C    1.248     1 Ni   0.715
    46   1 H    1.038 --     2 C    0.996
    47   1 H    1.026 --     4 C    0.993
    48   1 H    1.041 --     5 C    0.998
    49   1 H    1.050 --    10 C    0.988
    50   1 H    1.043 --    11 C    0.985
    51   1 H    1.017 --    15 O    0.938
    52   1 H    1.043 --    17 C    0.985
    53   1 H    1.050 --    18 C    0.988
    54   1 H    1.041 --    20 C    0.997
    55   1 H    1.042 --    21 C    0.998
    56   1 H    1.042 --    26 C    0.998
    57   1 H    1.040 --    27 C    0.997
    58   1 H    1.050 --    32 C    0.988
    59   1 H    1.045 --    33 C    0.985
    60   1 H    1.017 --    37 O    0.938
    61   1 H    1.041 --    39 C    0.985
    62   1 H    1.050 --    40 C    0.988
    63   1 H    1.042 --    42 C    0.998
    64   1 H    1.026 --    43 C    0.993
    65  28 Ni   3.331 --    86 N    0.714    93 N    0.713   109 N    0.712
                            71 N    0.712
    66   6 C    3.817 --   108 C    1.394    67 C    1.392   110 H    0.996
    67   6 C    3.941 --    66 C    1.392    71 N    1.251    68 C    1.202
    68   6 C    3.847 --    69 C    1.640    67 C    1.202   111 H    0.993
    69   6 C    3.827 --    68 C    1.640    70 C    1.208   112 H    0.998
    70   6 C    3.919 --    72 C    1.364    71 N    1.255    69 C    1.208
    71   7 N    3.010 --    70 C    1.255    67 C    1.251    65 Ni   0.712
    72   6 C    3.825 --    83 C    1.365    70 C    1.364    73 C    1.050
    73   6 C    3.895 --    74 C    1.423    82 C    1.423    72 C    1.050
    74   6 C    3.868 --    75 C    1.453    73 C    1.423   113 H    0.988
    75   6 C    3.914 --    74 C    1.453    76 C    1.418   114 H    0.985
    76   6 C    3.937 --    75 C    1.418    81 C    1.418    77 S    0.891
    77  16 S    5.801 --    78 O    1.893    80 O    1.892    79 O    1.079
                            76 C    0.891
    78   8 O    2.230 --    77 S    1.893    80 O    0.135
    79   8 O    2.282 --    77 S    1.079   115 H    0.938
    80   8 O    2.228 --    77 S    1.892    78 O    0.135
    81   6 C    3.914 --    82 C    1.453    76 C    1.418   116 H    0.985
    82   6 C    3.869 --    81 C    1.453    73 C    1.423   117 H    0.987
    83   6 C    3.910 --    72 C    1.365    86 N    1.250    84 C    1.213
    84   6 C    3.824 --    85 C    1.631    83 C    1.213   118 H    0.997
    85   6 C    3.838 --    84 C    1.631    87 C    1.220   119 H    0.996
    86   7 N    3.017 --    87 C    1.265    83 C    1.250    65 Ni   0.714
    87   6 C    3.928 --    88 C    1.327    86 N    1.265    85 C    1.220
    88   6 C    3.838 --    87 C    1.327    89 C    1.327   134 C    1.159
    89   6 C    3.928 --    88 C    1.327    93 N    1.266    90 C    1.220
    90   6 C    3.839 --    91 C    1.631    89 C    1.220   120 H    0.996
    91   6 C    3.824 --    90 C    1.631    92 C    1.213   121 H    0.997
    92   6 C    3.910 --    94 C    1.365    93 N    1.249    91 C    1.213
    93   7 N    3.017 --    89 C    1.266    92 C    1.249    65 Ni   0.713
    94   6 C    3.825 --    92 C    1.365   105 C    1.365    95 C    1.049
    95   6 C    3.895 --    96 C    1.423   104 C    1.423    94 C    1.049
    96   6 C    3.868 --    97 C    1.453    95 C    1.423   122 H    0.988
    97   6 C    3.915 --    96 C    1.453    98 C    1.419   123 H    0.985
    98   6 C    3.937 --    97 C    1.419   103 C    1.418    99 S    0.890
    99  16 S    5.803 --   102 O    1.898   100 O    1.889   101 O    1.081
                            98 C    0.890
   100   8 O    2.221 --    99 S    1.889   102 O    0.134
   101   8 O    2.283 --    99 S    1.081   124 H    0.938   102 O    0.101
   102   8 O    2.237 --    99 S    1.898   100 O    0.134   101 O    0.101
   103   6 C    3.913 --   104 C    1.454    98 C    1.418   125 H    0.984
   104   6 C    3.868 --   103 C    1.454    95 C    1.423   126 H    0.988
   105   6 C    3.919 --    94 C    1.365   109 N    1.255   106 C    1.207
   106   6 C    3.827 --   107 C    1.641   105 C    1.207   127 H    0.998
   107   6 C    3.848 --   106 C    1.641   108 C    1.202   128 H    0.992
   108   6 C    3.941 --    66 C    1.394   109 N    1.251   107 C    1.202
   109   7 N    3.009 --   105 C    1.255   108 C    1.251    65 Ni   0.712
   110   1 H    1.038 --    66 C    0.996
   111   1 H    1.025 --    68 C    0.993
   112   1 H    1.042 --    69 C    0.998
   113   1 H    1.050 --    74 C    0.988
   114   1 H    1.044 --    75 C    0.985
   115   1 H    1.017 --    79 O    0.938
   116   1 H    1.042 --    81 C    0.985
   117   1 H    1.050 --    82 C    0.987
   118   1 H    1.042 --    84 C    0.997
   119   1 H    1.044 --    85 C    0.996
   120   1 H    1.044 --    90 C    0.996
   121   1 H    1.040 --    91 C    0.997
   122   1 H    1.050 --    96 C    0.988
   123   1 H    1.045 --    97 C    0.985
   124   1 H    1.016 --   101 O    0.938
   125   1 H    1.041 --   103 C    0.984
   126   1 H    1.050 --   104 C    0.988
   127   1 H    1.043 --   106 C    0.998
   128   1 H    1.025 --   107 C    0.992
   129   6 C    3.761 --   130 C    2.628    24 C    1.193
   130   6 C    3.764 --   129 C    2.628   136 C    1.194
   131   6 C    3.764 --   132 C    2.614   158 C    1.213
   132   6 C    3.763 --   131 C    2.614   199 C    1.212
   133   6 C    3.764 --   134 C    2.659   221 C    1.161
   134   6 C    3.756 --   133 C    2.659    88 C    1.159
   135  28 Ni   3.339 --   163 N    0.715   156 N    0.715   179 N    0.715
                           141 N    0.714
   136   6 C    3.808 --   178 C    1.303   137 C    1.303   130 C    1.194
   137   6 C    3.925 --   136 C    1.303   141 N    1.275   138 C    1.228
   138   6 C    3.817 --   139 C    1.619   137 C    1.228   180 H    0.999
   139   6 C    3.825 --   138 C    1.619   140 C    1.221   181 H    0.998
   140   6 C    3.901 --   142 C    1.364   141 N    1.239   139 C    1.221
   141   7 N    3.002 --   137 C    1.275   140 C    1.239   135 Ni   0.714
   142   6 C    3.833 --   153 C    1.366   140 C    1.364   143 C    1.057
   143   6 C    3.895 --   144 C    1.422   152 C    1.421   142 C    1.057
   144   6 C    3.867 --   145 C    1.454   143 C    1.422   182 H    0.988
   145   6 C    3.914 --   144 C    1.454   146 C    1.419   183 H    0.985
   146   6 C    3.937 --   145 C    1.419   151 C    1.417   147 S    0.890
   147  16 S    5.804 --   150 O    1.899   148 O    1.888   149 O    1.082
                           146 C    0.890
   148   8 O    2.219 --   147 S    1.888   150 O    0.134
   149   8 O    2.285 --   147 S    1.082   184 H    0.939   150 O    0.101
   150   8 O    2.238 --   147 S    1.899   148 O    0.134   149 O    0.101
   151   6 C    3.914 --   152 C    1.455   146 C    1.417   185 H    0.985
   152   6 C    3.868 --   151 C    1.455   143 C    1.421   186 H    0.988
   153   6 C    3.900 --   142 C    1.366   156 N    1.236   154 C    1.221
   154   6 C    3.819 --   155 C    1.616   153 C    1.221   187 H    0.998
   155   6 C    3.814 --   154 C    1.616   157 C    1.231   188 H    0.998
   156   7 N    3.004 --   157 C    1.280   153 C    1.236   135 Ni   0.715
   157   6 C    3.920 --   158 C    1.295   156 N    1.280   155 C    1.231
   158   6 C    3.810 --   159 C    1.295   157 C    1.295   131 C    1.213
   159   6 C    3.920 --   158 C    1.295   163 N    1.280   160 C    1.231
   160   6 C    3.814 --   161 C    1.617   159 C    1.231   189 H    0.998
   161   6 C    3.819 --   160 C    1.617   162 C    1.221   190 H    0.998
   162   6 C    3.900 --   164 C    1.366   163 N    1.236   161 C    1.221
   163   7 N    3.004 --   159 C    1.280   162 C    1.236   135 Ni   0.715
   164   6 C    3.833 --   162 C    1.366   175 C    1.365   165 C    1.056
   165   6 C    3.896 --   166 C    1.422   174 C    1.421   164 C    1.056
   166   6 C    3.868 --   167 C    1.454   165 C    1.422   191 H    0.988
   167   6 C    3.914 --   166 C    1.454   168 C    1.419   192 H    0.985
   168   6 C    3.937 --   167 C    1.419   173 C    1.417   169 S    0.890
   169  16 S    5.804 --   172 O    1.899   170 O    1.888   171 O    1.081
                           168 C    0.890
   170   8 O    2.219 --   169 S    1.888   172 O    0.134
   171   8 O    2.284 --   169 S    1.081   193 H    0.939   172 O    0.101
   172   8 O    2.239 --   169 S    1.899   170 O    0.134   171 O    0.101
   173   6 C    3.914 --   174 C    1.455   168 C    1.417   194 H    0.985
   174   6 C    3.868 --   173 C    1.455   165 C    1.421   195 H    0.988
   175   6 C    3.901 --   164 C    1.365   179 N    1.238   176 C    1.221
   176   6 C    3.825 --   177 C    1.619   175 C    1.221   196 H    0.998
   177   6 C    3.817 --   176 C    1.619   178 C    1.228   197 H    0.999
   178   6 C    3.925 --   136 C    1.303   179 N    1.275   177 C    1.228
   179   7 N    3.002 --   178 C    1.275   175 C    1.238   135 Ni   0.715
   180   1 H    1.042 --   138 C    0.999
   181   1 H    1.041 --   139 C    0.998
   182   1 H    1.049 --   144 C    0.988
   183   1 H    1.044 --   145 C    0.985
   184   1 H    1.018 --   149 O    0.939
   185   1 H    1.042 --   151 C    0.985
   186   1 H    1.051 --   152 C    0.988
   187   1 H    1.043 --   154 C    0.998
   188   1 H    1.046 --   155 C    0.998
   189   1 H    1.045 --   160 C    0.998
   190   1 H    1.043 --   161 C    0.998
   191   1 H    1.050 --   166 C    0.988
   192   1 H    1.044 --   167 C    0.985
   193   1 H    1.018 --   171 O    0.939
   194   1 H    1.042 --   173 C    0.985
   195   1 H    1.050 --   174 C    0.988
   196   1 H    1.041 --   176 C    0.998
   197   1 H    1.041 --   177 C    0.999
   198  28 Ni   3.330 --   204 N    0.713   219 N    0.713   226 N    0.713
                           242 N    0.713
   199   6 C    3.817 --   241 C    1.298   200 C    1.298   132 C    1.212
   200   6 C    3.920 --   199 C    1.298   204 N    1.279   201 C    1.231
   201   6 C    3.816 --   202 C    1.617   200 C    1.231   243 H    0.998
   202   6 C    3.818 --   201 C    1.617   203 C    1.221   244 H    0.998
   203   6 C    3.900 --   205 C    1.363   204 N    1.241   202 C    1.221
   204   7 N    3.010 --   200 C    1.279   203 C    1.241   198 Ni   0.713
   205   6 C    3.834 --   216 C    1.370   203 C    1.363   206 C    1.053
   206   6 C    3.895 --   207 C    1.423   215 C    1.422   205 C    1.053
   207   6 C    3.868 --   208 C    1.452   206 C    1.423   245 H    0.988
   208   6 C    3.915 --   207 C    1.452   209 C    1.420   246 H    0.985
   209   6 C    3.937 --   208 C    1.420   214 C    1.418   210 S    0.889
   210  16 S    5.808 --   213 O    1.902   211 O    1.887   212 O    1.086
                           209 C    0.889
   211   8 O    2.216 --   210 S    1.887   213 O    0.134
   212   8 O    2.287 --   210 S    1.086   247 H    0.939   213 O    0.101
   213   8 O    2.242 --   210 S    1.902   211 O    0.134   212 O    0.101
   214   6 C    3.913 --   215 C    1.454   209 C    1.418   248 H    0.985
   215   6 C    3.868 --   214 C    1.454   206 C    1.422   249 H    0.988
   216   6 C    3.904 --   205 C    1.370   219 N    1.241   217 C    1.215
   217   6 C    3.830 --   218 C    1.629   216 C    1.215   250 H    0.998
   218   6 C    3.831 --   217 C    1.629   220 C    1.221   251 H    0.997
   219   7 N    3.002 --   220 C    1.271   216 C    1.241   198 Ni   0.713
   220   6 C    3.932 --   221 C    1.320   219 N    1.271   218 C    1.221
   221   6 C    3.808 --   222 C    1.320   220 C    1.320   133 C    1.161
   222   6 C    3.932 --   221 C    1.320   226 N    1.270   223 C    1.221
   223   6 C    3.830 --   224 C    1.628   222 C    1.221   252 H    0.997
   224   6 C    3.830 --   223 C    1.628   225 C    1.215   253 H    0.998
   225   6 C    3.904 --   227 C    1.370   226 N    1.241   224 C    1.215
   226   7 N    3.002 --   222 C    1.270   225 C    1.241   198 Ni   0.713
   227   6 C    3.834 --   225 C    1.370   238 C    1.364   228 C    1.053
   228   6 C    3.895 --   229 C    1.423   237 C    1.422   227 C    1.053
   229   6 C    3.868 --   230 C    1.452   228 C    1.423   254 H    0.988
   230   6 C    3.915 --   229 C    1.452   231 C    1.420   255 H    0.985
   231   6 C    3.937 --   230 C    1.420   236 C    1.418   232 S    0.889
   232  16 S    5.808 --   235 O    1.902   233 O    1.887   234 O    1.086
                           231 C    0.889
   233   8 O    2.216 --   232 S    1.887   235 O    0.134
   234   8 O    2.287 --   232 S    1.086   256 H    0.939   235 O    0.101
   235   8 O    2.242 --   232 S    1.902   233 O    0.134   234 O    0.101
   236   6 C    3.913 --   237 C    1.454   231 C    1.418   257 H    0.985
   237   6 C    3.868 --   236 C    1.454   228 C    1.422   258 H    0.988
   238   6 C    3.900 --   227 C    1.364   242 N    1.241   239 C    1.221
   239   6 C    3.818 --   240 C    1.617   238 C    1.221   259 H    0.998
   240   6 C    3.817 --   239 C    1.617   241 C    1.231   260 H    0.998
   241   6 C    3.920 --   199 C    1.298   242 N    1.279   240 C    1.231
   242   7 N    3.010 --   241 C    1.279   238 C    1.241   198 Ni   0.713
   243   1 H    1.046 --   201 C    0.998
   244   1 H    1.043 --   202 C    0.998
   245   1 H    1.050 --   207 C    0.988
   246   1 H    1.046 --   208 C    0.985
   247   1 H    1.018 --   212 O    0.939
   248   1 H    1.041 --   214 C    0.985
   249   1 H    1.049 --   215 C    0.988
   250   1 H    1.044 --   217 C    0.998
   251   1 H    1.045 --   218 C    0.997
   252   1 H    1.045 --   223 C    0.997
   253   1 H    1.044 --   224 C    0.998
   254   1 H    1.050 --   229 C    0.988
   255   1 H    1.045 --   230 C    0.985
   256   1 H    1.018 --   234 O    0.939
   257   1 H    1.041 --   236 C    0.985
   258   1 H    1.049 --   237 C    0.988
   259   1 H    1.043 --   239 C    0.998
   260   1 H    1.046 --   240 C    0.998
 ---------------------------------------------------------------------------

Topologies differ in total number of bonds
Writing topology from bond orders to xtbtopo.mol

 dipole moment from electron density (au)
     X       Y       Z   
-135.2417  -1.3880  -0.2125  total (Debye):  343.769


           -------------------------------------------------
          | TOTAL ENERGY             -584.121294459535 Eh   |
          | GRADIENT NORM               0.111268012622 Eh/α |
          | HOMO-LUMO GAP               0.106487658987 eV   |
           -------------------------------------------------
########################################################################
[WARNING] Runtime exception occurred
-1- restart_readRestart: Dimension missmatch in restart file.
########################################################################

------------------------------------------------------------------------
 * finished run on 2022/07/30 at 10:55:49.430     
------------------------------------------------------------------------
 total:
 * wall-time:     0 d,  0 h,  0 min, 34.335 sec
 *  cpu-time:     0 d,  0 h,  0 min, 34.178 sec
 * ratio c/w:     0.995 speedup
 SCF:
 * wall-time:     0 d,  0 h,  0 min, 33.560 sec
 *  cpu-time:     0 d,  0 h,  0 min, 33.409 sec
 * ratio c/w:     0.995 speedup

