190
 energy: -361.076960309438 gnorm: 4.501152354502 xtb: 6.5.1 (b24c23e)
C           28.57831800000000       -0.03107500000000       -0.16020500000000
C           29.31063200000000       -1.39617000000000        0.01762400000000
C           28.71055100000000       -2.63428800000000        0.04139300000000
C           29.73393900000000       -3.58713700000000        0.28384000000000
C           30.92360100000000       -2.89604900000000        0.40857300000000
N           30.66059500000000       -1.56718400000000        0.18937000000000
C           32.34073500000000       -3.50747100000000        0.76612900000000
C           32.37353700000000       -4.89427800000000        1.28196500000000
C           32.67492600000000       -5.95872700000000        0.42131400000000
C           32.69988600000000       -7.26887200000000        0.90215100000000
C           32.41853700000000       -7.50831600000000        2.25436600000000
N           32.44222900000000       -8.88311500000000        2.76574200000000
O           32.71167900000000       -9.79667200000000        1.97011500000000
O           32.18950700000000       -9.06323000000000        3.96729500000000
C           32.11415100000000       -6.45216600000000        3.12421600000000
C           32.09266800000000       -5.14631100000000        2.63144100000000
C           33.47159800000000       -2.76146800000000        0.64850300000000
C           34.77103700000000       -3.27373800000000        1.03356400000000
C           35.67392499999999       -2.32116100000000        0.83221300000000
N           33.67145100000000       -1.47997700000000        0.20952600000000
C           35.00015499999999       -1.15486100000000        0.29701300000000
C           35.66854600000000       -0.01304900000000       -0.01615100000000
C           34.89291599999999        1.23000600000000       -0.62337600000000
C           35.43300099999999        2.21860400000000       -1.42215300000000
C           34.40706400000000        3.15911000000000       -1.69004500000000
C           33.26786400000000        2.71316900000000       -1.05454000000000
N           33.55886600000000        1.51035600000000       -0.45602000000000
C           31.85974800000000        3.43972500000000       -1.03360900000000
C           31.83402100000000        4.90277100000000       -1.24220100000000
C           31.47249300000000        5.43373200000000       -2.48818000000000
C           31.45724800000000        6.81490300000000       -2.68934000000000
C           31.81025600000000        7.66523900000000       -1.63247200000000
N           31.79604400000000        9.11781500000000       -1.83707000000000
O           31.48149700000000        9.54556500000000       -2.95889100000000
O           32.10010800000000        9.84525600000000       -0.87871300000000
C           32.17693900000000        7.14632300000000       -0.38319100000000
C           32.18781500000000        5.76310000000000       -0.19467500000000
C           30.73125300000000        2.72062700000000       -0.80308800000000
C           29.40886900000000        3.31972100000000       -0.75787700000000
C           28.52165300000000        2.35626100000000       -0.52800400000000
C           29.24300800000000        1.11353200000000       -0.40526300000000
N           30.56505400000000        1.38458600000000       -0.57027200000000
H           27.49963899999999       -0.01614700000000       -0.05952400000000
H           27.65638200000000       -2.82792200000000       -0.08470100000000
H           29.60963100000000       -4.65479700000000        0.38149100000000
H           31.35661000000000       -0.82614000000000        0.16046400000000
H           32.89399400000000       -5.74659500000000       -0.62405000000000
H           32.93958600000000       -8.07544600000000        0.21498100000000
H           31.89468400000000       -6.61975700000000        4.17494000000000
H           31.86116500000000       -4.30920000000000        3.28830100000000
H           34.98196000000000       -4.25125500000000        1.42812000000000
H           36.72450000000000       -2.42156100000000        1.03540400000000
H           36.45508100000000        2.26694800000000       -1.76616500000000
H           34.49280300000000        4.06125700000000       -2.27634800000000
H           32.87617000000000        0.90096600000000       -0.01313700000000
H           31.19924000000000        4.75257400000000       -3.29273800000000
H           31.16946300000000        7.20016000000000       -3.66346100000000
H           32.45376300000000        7.79068400000000        0.44655100000000
H           32.46838300000000        5.33745600000000        0.76755700000000
H           29.17794500000000        4.36153100000000       -0.88581100000000
H           27.45714900000000        2.47614000000000       -0.43812800000000
C           63.55349399999999       -0.07152300000000       -0.14903200000000
C           62.82117900000000        1.19129000000000       -0.69712900000000
C           63.42126100000000        2.26605100000000       -1.31226300000000
C           62.39787299999999        3.20824100000000       -1.59329500000000
C           61.20821000000000        2.67917200000000       -1.13150900000000
N           61.47121700000000        1.42621300000000       -0.63751800000000
C           59.79107600000000        3.38743300000000       -1.13849900000000
C           59.75827399999999        4.84238000000000       -1.40766100000000
C           59.45688499999999        5.31412000000000       -2.69266500000000
C           59.43192500000000        6.68531100000000       -2.95251200000000
C           59.71327400000000        7.58490200000000       -1.91494100000000
N           59.68958300000000        9.02725500000000       -2.18176600000000
O           59.42013300000000        9.40287600000000       -3.33351200000000
O           59.94230500000000        9.79859400000000       -1.24304100000000
C           60.01766000000000        7.12500600000000       -0.62630300000000
C           60.03914300000000        5.75137000000000       -0.37890200000000
C           58.66021400000000        2.68683000000000       -0.85651900000000
C           57.36077399999999        3.32411800000000       -0.78900800000000
C           56.45788600000000        2.40325500000000       -0.47284600000000
N           58.46035999999999        1.36171800000000       -0.57545600000000
C           57.13165700000000        1.12760900000000       -0.33349000000000
C           56.46326500000000       -0.01304900000000       -0.01615100000000
C           57.23889500000000       -1.39153900000000        0.10079200000000
C           56.69881000000000       -2.64997600000000       -0.07727100000000
C           57.72474699999999       -3.59463400000000        0.17559000000000
C           58.86394799999999       -2.88571700000000        0.49208000000000
N           58.57294499999999       -1.54623300000000        0.38832300000000
C           60.27206400000000       -3.49850800000000        0.88298800000000
C           60.29779000000000       -4.86117400000000        1.45496300000000
C           60.65931900000000       -5.95641600000000        0.65820100000000
C           60.67456399999999       -7.24500100000000        1.19452700000000
C           60.32155500000000       -7.43226800000000        2.53802000000000
N           60.33576800000000       -8.78389900000000        3.10804800000000
O           60.65031399999999       -9.72683300000000        2.36486100000000
O           60.03170400000000       -8.91626400000000        4.30391400000000
C           59.95487299999999       -6.34566900000000        3.34379800000000
C           59.94399599999999       -5.06181300000000        2.79556700000000
C           61.40055800000000       -2.76304600000000        0.71170600000000
C           62.72294200000000       -3.25398500000000        1.05802400000000
C           63.61015900000000       -2.30914300000000        0.76075300000000
C           62.88880400000000       -1.17962200000000        0.22819100000000
N           61.56675700000000       -1.49694200000000        0.22571300000000
H           64.63217200000000       -0.03265500000000       -0.05496400000000
H           64.47543000000000        2.36750400000000       -1.51987000000000
H           62.52218000000000        4.17463800000000       -2.05752700000000
H           60.77520199999999        0.77540800000000       -0.28194300000000
H           59.23781800000000        4.59547600000000       -3.48091300000000
H           59.19222599999999        7.02478900000000       -3.95626400000000
H           60.23712699999999        7.80817700000000        0.18940900000000
H           60.27064600000000        5.37012600000000        0.61451200000000
H           57.14985100000000        4.36555600000000       -0.95216300000000
H           55.40731099999999        2.59371900000000       -0.35000200000000
H           55.67672999999999       -2.86804800000000       -0.34768900000000
H           57.63900800000000       -4.66981500000000        0.13549800000000
H           59.25564100000000       -0.79591600000000        0.45560400000000
H           60.93257100000000       -5.78482500000000       -0.38191700000000
H           60.96234900000000       -8.07565300000000        0.55628500000000
H           59.67804800000000       -6.47275300000000        4.38664200000000
H           59.66342800000000       -4.20260400000000        3.40287500000000
H           62.95386700000000       -4.21374100000000        1.48299700000000
H           64.67466200000000       -2.36588900000000        0.89942000000000
C           38.82319000000000       -0.00061300000000       -0.01371000000000
C           37.57091900000000       -0.01979400000000       -0.01805800000000
C           40.13685800000000       -0.00137900000000       -0.01177700000000
C           41.63999099999999       -0.01979400000000       -0.01805800000000
C           51.83409699999999       -0.00061300000000       -0.01371000000000
C           50.58182599999999       -0.01979400000000       -0.01805800000000
C           53.14776499999999       -0.00137900000000       -0.01177700000000
C           54.65089800000000       -0.01979400000000       -0.01805800000000
C           42.48624600000000        0.02917300000000        0.03524900000000
C           43.28194900000000        1.26486100000000       -0.55518700000000
C           42.78218099999999        2.52746000000000       -0.80059900000000
C           43.82115000000000        3.28423600000000       -1.40080600000000
C           44.92358200000000        2.46118600000000       -1.49767800000000
N           44.60825400000000        1.26182100000000       -0.91039300000000
C           46.30987800000000        2.82065100000000       -2.16977900000000
C           46.29734200000000        3.80937000000000       -3.27010200000000
C           46.73490400000000        5.12245900000000       -3.04677500000000
C           46.71256499999999        6.05973800000000       -4.08094700000000
C           46.24441299999999        5.67480000000000       -5.34478900000000
N           46.21791799999999        6.65509700000000       -6.43585700000000
O           45.81306400000000        6.28040100000000       -7.54747000000000
O           46.60091800000000        7.81001400000000       -6.19124000000000
C           45.80048800000000        4.36634800000000       -5.57959500000000
C           45.82829699999999        3.43814000000000       -4.53710400000000
C           47.44670799999999        2.19403700000000       -1.76955300000000
C           48.73200600000000        2.44524600000000       -2.38877500000000
C           49.64137800000000        1.68443300000000       -1.78912800000000
N           47.65691700000000        1.25450700000000       -0.79969100000000
C           48.98113500000000        0.90935200000000       -0.75844500000000
C           49.64555200000000        0.02917300000000        0.03524900000000
C           48.84979700000000       -0.78848900000000        1.13379900000000
C           49.34929899999999       -1.27217900000000        2.32573000000000
C           48.31034999999999       -2.00723100000000        2.95240900000000
C           47.20819299999999       -1.94419800000000        2.12570800000000
N           47.52366300000000       -1.13695600000000        1.06193100000000
C           45.82198200000000       -2.67314900000000        2.34859800000000
C           45.83456200000000       -3.94362600000000        3.10628700000000
C           46.30255400000000       -5.11535300000000        2.49707500000000
C           46.33035000000000       -6.31743200000000        3.20654800000000
C           45.88751800000000       -6.33940600000000        4.53608600000000
N           45.91405100000000       -7.59918800000000        5.28731600000000
O           45.53269000000000       -7.58179700000000        6.46825800000000
O           46.31730399999999       -8.61788500000000        4.70455100000000
C           45.42042499999999       -5.17342200000000        5.15813100000000
C           45.39802299999999       -3.97777000000000        4.43812500000000
C           44.68514000000000       -2.15952100000000        1.81103500000000
C           43.39984000000000       -2.81554500000000        1.93811600000000
C           42.49045000000000       -2.08033900000000        1.30735400000000
C           43.15069000000000       -0.91947600000000        0.74567800000000
N           44.47492100000000       -1.02659200000000        1.07631400000000
H           41.77732000000000        2.86220600000000       -0.59173100000000
H           43.76393099999999        4.30700000000000       -1.74114800000000
H           45.26492399999999        0.50904600000000       -0.72564000000000
H           47.09660500000000        5.39732400000000       -2.05705500000000
H           47.06108200000000        7.06927800000000       -3.88194200000000
H           45.43352400000000        4.05127000000000       -6.55244900000000
H           45.48777400000000        2.41623800000000       -4.69707800000000
H           48.92831900000000        3.12167600000000       -3.20090000000000
H           50.68560900000000        1.65893300000000       -2.04247300000000
H           50.35396500000000       -1.13124200000000        2.69480600000000
H           48.36739400000000       -2.53802700000000        3.89057600000000
H           46.86710200000000       -0.81088400000000        0.35864000000000
H           46.64223200000000       -5.07521400000000        1.46322900000000
H           46.69647300000000       -7.21134300000000        2.70929700000000
H           45.07278100000000       -5.17288400000000        6.18739100000000
H           45.03709200000000       -3.05956100000000        4.89916200000000
H           43.20352600000000       -3.74288500000000        2.44519800000000
H           41.44620400000000       -2.32396300000000        1.23353900000000
190
 energy: -362.304917441674 gnorm: 0.710205726207 xtb: 6.5.1 (b24c23e)
C           28.58429604649862       -0.04211091077692       -0.15867528212110
C           29.30761915317520       -1.38794507686176        0.01637464992955
C           28.71171167903935       -2.63710903406331        0.04235782323946
C           29.73156810994279       -3.58639327754364        0.28410505112343
C           30.93149634857699       -2.89831560037021        0.41009326328609
N           30.66073866473328       -1.56710444978544        0.18976033910411
C           32.33038029334755       -3.50207352693471        0.76326975138524
C           32.37254230069228       -4.89380284329055        1.28138674849780
C           32.67492601156987       -5.95911460067288        0.42220413366406
C           32.69980164159701       -7.26785411888075        0.90240110010466
C           32.41854124253021       -7.50904156833489        2.25462697011820
N           32.44221536833080       -8.88583085362717        2.76672890532893
O           32.71024665933440       -9.79168740249084        1.97437873446280
O           32.19088039891790       -9.06218662735955        3.96080604525854
C           32.11432974335529       -6.45152768218335        3.12338106029966
C           32.09268533592801       -5.14719109926089        2.63099633611694
C           33.47397030304047       -2.75962088405618        0.64829014059987
C           34.77155868478574       -3.27609807349400        1.03450935717775
C           35.67644257289562       -2.32170717774015        0.83260630392123
N           33.66981075364249       -1.47694731017501        0.20895581071729
C           35.00075382165466       -1.15675964625707        0.29811187913953
C           35.67603467256185       -0.00451404414812       -0.02198079786105
C           34.89807291090581        1.22289180879528       -0.62028092744907
C           35.43236018632575        2.22083492251469       -1.42234223479901
C           34.40923511385507        3.15848205240122       -1.68951526329931
C           33.26029515952715        2.71589498176843       -1.05402760872625
N           33.55927619696761        1.51018847164427       -0.45551401392581
C           31.86990291549321        3.43392252393649       -1.03338177968237
C           31.83509932422837        4.90204352026648       -1.24264693424510
C           31.47242558464936        5.43451442419397       -2.48761712281784
C           31.45734678660979        6.81409525129690       -2.68865123077526
C           31.81025118245583        7.66603618532023       -1.63259178712741
N           31.79604334354887        9.12063601798142       -1.83750299116655
O           31.48317457974851        9.54320478855226       -2.95284563764282
O           32.09848406821463        9.84128231516522       -0.88383306672860
C           32.17671939615266        7.14533833670057       -0.38358668525653
C           32.18785185219206        5.76372292964664       -0.19546196103139
C           30.72883388950996        2.71901620788518       -0.80225489883420
C           29.40818797497289        3.32230970957113       -0.75829228446168
C           28.51950833531593        2.35755533245679       -0.52800052681393
C           29.24461737209155        1.11590655093139       -0.40543482603692
N           30.56790421516505        1.38257173772874       -0.57002551240121
H           27.50096483934287       -0.01750488780427       -0.05978396190005
H           27.65677135129948       -2.82828220415912       -0.08463618929153
H           29.60942647859043       -4.65455980361113        0.38142266165497
H           31.35633407539457       -0.82650501208906        0.16052297753971
H           32.89382568447462       -5.74701477758156       -0.62337594543354
H           32.93938400904913       -8.07553585053134        0.21579510191489
H           31.89488071291375       -6.62035244511195        4.17437217065237
H           31.86125979198053       -4.30995333074771        3.28804140028055
H           34.98144300707914       -4.25231536924765        1.42841320955429
H           36.72562802683510       -2.42077716465240        1.03528177049515
H           36.45481330280491        2.26716056190430       -1.76608392677458
H           34.49304687707495        4.06098631908712       -2.27620536548003
H           32.87658906401478        0.90128437668780       -0.01329023719612
H           31.19943942464598        4.75326569428862       -3.29235722759814
H           31.16971484168912        7.20062130835796       -3.66280640336323
H           32.45351446981854        7.79093626824020        0.44578408146250
H           32.46825892490058        5.33798359465066        0.76698254301933
H           29.17841609998172        4.36267106595090       -0.88607495234094
H           27.45624288170566        2.47586880936585       -0.43802343100516
C           63.54753412948175       -0.06131372538687       -0.15336189488089
C           62.82417614890810        1.18364267152400       -0.69400588026679
C           63.42010537119495        2.26892757064471       -1.31286929154441
C           62.40019586910037        3.20774793635988       -1.59268393512691
C           61.20036953365037        2.68190695771416       -1.13140287491291
N           61.47108960241668        1.42634042360546       -0.63713275620098
C           59.80134598642591        3.38132475812477       -1.13815643044568
C           59.75926641736339        4.84166876729339       -1.40791749122024
C           59.45688618820909        5.31490763938929       -2.69210096833071
C           59.43200958474817        6.68456446965005       -2.95177553421421
C           59.71326953820531        7.58566023206253       -1.91509133792301
N           59.68959615682349        9.03008107240741       -2.18232337979501
O           59.42156630922258        9.40079027862256       -3.32728793682599
O           59.94093082436747        9.79437618207457       -1.24806540167559
C           60.01748119898505        7.12402675191908       -0.62669192144110
C           60.03912576515226        5.75189366387138       -0.37973423720116
C           58.65787859240437        2.68530473606377       -0.85571924105056
C           57.36032305937962        3.32667844545959       -0.78943254777677
C           56.45542258607900        2.40386161005206       -0.47278511037811
N           58.46174851627360        1.35863438383344       -0.57433148869890
C           57.13143524726135        1.13020635899325       -0.33396904384097
C           56.45338082046834       -0.02349967628572       -0.01669330368949
C           57.23382612833741       -1.38408342258602        0.10011582530847
C           56.69944984127119       -2.65185715242517       -0.07631150642399
C           57.72267835139296       -3.59382735734484        0.17573412280890
C           58.87143858259728       -2.88781623128281        0.49387530332125
N           58.57252883236248       -1.54583794464243        0.38869625132778
C           60.26198732477041       -3.49342721077848        0.88020676598826
C           60.29671236874879       -4.86076672900528        1.45421527127498
C           60.65938805780971       -5.95679887099308        0.65908795795581
C           60.67446592577095       -7.24395200332980        1.19470194588942
C           60.32155952525676       -7.43301797219948        2.53832935905272
N           60.33576496200757       -8.78652869837855        3.10912973415277
O           60.64863905060774       -9.72171386265853        2.36882966200605
O           60.03333080847283       -8.91548455244232        4.29747828342382
C           59.95509040915024       -6.34502505787373        3.34295478264526
C           59.94395640475472       -5.06275656543099        2.79521384326477
C           61.40295842503736       -2.76127288253722        0.71159213676579
C           62.72362694764187       -3.25641811411186        1.05899700158360
C           63.61230115622404       -2.31025577974773        0.76142192993250
C           62.88720989414757       -1.18173455266834        0.22925521380107
N           61.56389722054455       -1.49506932357319        0.22488440048805
H           64.63084791953280       -0.03162319631187       -0.05588079090307
H           64.47504039794956        2.36784487706620       -1.51999784106927
H           62.52238191455253        4.17440154074310       -2.05746319176917
H           60.77548261807642        0.77574859255280       -0.28207922401361
H           59.23798573873886        4.59618268804087       -3.48054992025020
H           59.19242743010421        7.02528347418014       -3.95561156094515
H           60.23693052209569        7.80839521468367        0.18861607758271
H           60.27055133629376        5.37063934131995        0.61390315563954
H           57.15036840586508        4.36661915463627       -0.95245835630034
H           55.40616620589950        2.59294281625729       -0.34969932236679
H           55.67698758956846       -2.86816165877804       -0.34751216052341
H           57.63876501991987       -4.66950761860536        0.13548615400139
H           59.25522328641559       -0.79626998052092        0.45564289979217
H           60.93237213769632       -5.78522268091820       -0.38123508242479
H           60.96209692012792       -8.07571259236910        0.55708371270498
H           59.67829685097956       -6.47336370254968        4.38611375360894
H           59.66355218719502       -4.20335240563192        3.40265275782391
H           62.95339691941655       -4.21485588682869        1.48335642994149
H           64.67556912660545       -2.36560313494422        0.89937070956889
C           38.81906655284148       -0.00085633189624       -0.01351442175093
C           37.55651670146712       -0.01926893629624       -0.01810939468956
C           40.12910583851973       -0.00159168644908       -0.01330938419230
C           41.42403136068464       -0.02416832094963       -0.03520612818791
C           51.87307913032324       -0.00226297735766       -0.01444998061926
C           50.70118974420838       -0.03089981326687       -0.02015510401763
C           53.17637658258477       -0.00149804501561       -0.01194634171629
C           54.64161294121309       -0.01982143346861       -0.01785941431032
C           42.66562138916509        0.04560114209444        0.04281211636512
C           43.29449135421851        1.26898615233126       -0.55514960113111
C           42.78267018536633        2.52736730058449       -0.80149841851803
C           43.82021747636784        3.28347171018481       -1.40121863245337
C           44.93005986147195        2.46328791491336       -1.50047903517057
N           44.61016689996852        1.26262928806092       -0.91236099898119
C           46.30177949864251        2.81732195475489       -2.16504463333551
C           46.29640780475081        3.80931346615138       -3.26919160588317
C           46.73490770551135        5.12238938234170       -3.04770067416848
C           46.71241524735393        6.05870462591600       -4.08066296409995
C           46.24440031191021        5.67532936697938       -5.34535044817840
N           46.21784156064308        6.65711904623546       -6.43802736712262
O           45.81523877614895        6.28233047550751       -7.54141615268042
O           46.59886691186261        7.80370278063413       -6.19249836156671
C           45.80077671088145        4.36611980762090       -5.57855414640146
C           45.82826287933897        3.43911867055356       -4.53715993752402
C           47.44819485437874        2.19451945191626       -1.77065178224279
C           48.73206147458379        2.44747149978323       -2.39110289796492
C           49.64320379842617        1.68377592267333       -1.78884162516410
N           47.65433881489300        1.25312408301655       -0.79813286556094
C           48.95733949488289        0.92084119341662       -0.76757912800708
C           49.52087345515538        0.02984147318714        0.04838846317163
C           48.84147472855743       -0.78818017416632        1.13503264317782
C           49.34867047306259       -1.27322768216764        2.32567246864608
C           48.31152713635530       -2.00745018689467        2.95162225766308
C           47.20149039718682       -1.94738170793149        2.12712882984647
N           47.52239916912925       -1.13853792437489        1.06215356496339
C           45.83050202417742       -2.66777140292073        2.34629488488342
C           45.83547107687777       -3.94272631417107        3.10641887983944
C           46.30257615325899       -5.11557296158259        2.49800483689429
C           46.33005244619760       -6.31636552872351        3.20653988046775
C           45.88753231547080       -6.34003829994159        4.53648029720065
N           45.91413869163664       -7.60177616848400        5.28889555246257
O           45.53473293057657       -7.58179767463977        6.46180557640788
O           46.31512298631622       -8.61227231311830        4.70763024679218
C           45.42058814569087       -5.17295532652545        5.15716704755546
C           45.39802502552908       -3.97864460096244        4.43787281851651
C           44.68342206046305       -2.16103671874466        1.81151282131927
C           43.40012328065951       -2.81832307356962        1.93995281512622
C           42.48861809649441       -2.07930330184828        1.30639199450106
C           43.18058168669018       -0.93307973826610        0.75706465554188
N           44.47803174186891       -1.02518371540878        1.07571897959483
H           41.77755509078477        2.86197621675576       -0.59181793695272
H           43.76363515775008        4.30667721543471       -1.74104305576662
H           45.26466972930194        0.50942978690243       -0.72581786813650
H           47.09635597542933        5.39739183733177       -2.05781570443444
H           47.06076198049745        7.06899396271620       -3.88266182073034
H           45.43382725755301        4.05202983630925       -6.55224380837841
H           45.48793404919669        2.41699202348400       -4.69720867764849
H           48.92789814524192        3.12251029002369       -3.20164034174191
H           50.68658373492386        1.65814105783937       -2.04186715162478
H           50.35367567480885       -1.13134255120523        2.69465405936046
H           48.36766825172264       -2.53786991227906        3.89030621978594
H           46.86746925618394       -0.81112511970909        0.35895068921845
H           46.64207397104283       -5.07548543550365        1.46394374981366
H           46.69617362028078       -7.21128534539230        2.71008295923072
H           45.07309871204490       -5.17353448932978        6.18697102994196
H           45.03734249659318       -3.06031867574008        4.89908436784526
H           43.20394371184427       -3.74375651170484        2.44586015109735
H           41.44519605309861       -2.32303701510100        1.23277217013519
190
 energy: -362.540050966562 gnorm: 0.435533597370 xtb: 6.5.1 (b24c23e)
C           28.61163941114669       -0.07296812242267       -0.15458271519057