      -----------------------------------------------------------      
     |                   =====================                   |     
     |                           x T B                           |     
     |                   =====================                   |     
     |                         S. Grimme                         |     
     |          Mulliken Center for Theoretical Chemistry        |     
     |                    University of Bonn                     |     
      -----------------------------------------------------------      

   * xtb version 6.5.1 (b24c23e) compiled by 'conda@728c89f4b128' on 2022-07-12

   xtb is free software: you can redistribute it and/or modify it under
   the terms of the GNU Lesser General Public License as published by
   the Free Software Foundation, either version 3 of the License, or
   (at your option) any later version.
   
   xtb is distributed in the hope that it will be useful,
   but WITHOUT ANY WARRANTY; without even the implied warranty of
   MERCHANTABILITY or FITNESS FOR A PARTICULAR PURPOSE.  See the
   GNU Lesser General Public License for more details.
   
   Cite this work as:
   * C. Bannwarth, E. Caldeweyher, S. Ehlert, A. Hansen, P. Pracht,
     J. Seibert, S. Spicher, S. Grimme, WIREs Comput. Mol. Sci., 2020, 11,
     e01493. DOI: 10.1002/wcms.1493
   
   for GFN2-xTB:
   * C. Bannwarth, S. Ehlert and S. Grimme., J. Chem. Theory Comput., 2019,
     15, 1652-1671. DOI: 10.1021/acs.jctc.8b01176
   for GFN1-xTB:
   * S. Grimme, C. Bannwarth, P. Shushkov, J. Chem. Theory Comput., 2017,
     13, 1989-2009. DOI: 10.1021/acs.jctc.7b00118
   for GFN0-xTB:
   * P. Pracht, E. Caldeweyher, S. Ehlert, S. Grimme, ChemRxiv, 2019, preprint.
     DOI: 10.26434/chemrxiv.8326202.v1
   for GFN-FF:
   * S. Spicher and S. Grimme, Angew. Chem. Int. Ed., 2020, 59, 15665-15673.
     DOI: 10.1002/anie.202004239
   
   for ALPB and GBSA implicit solvation:
   * S. Ehlert, M. Stahn, S. Spicher, S. Grimme, J. Chem. Theory Comput.,
     2021, 17, 4250-4261. DOI: 10.1021/acs.jctc.1c00471
   
   for DFT-D4:
   * E. Caldeweyher, C. Bannwarth and S. Grimme, J. Chem. Phys., 2017,
     147, 034112. DOI: 10.1063/1.4993215
   * E. Caldeweyher, S. Ehlert, A. Hansen, H. Neugebauer, S. Spicher,
     C. Bannwarth and S. Grimme, J. Chem. Phys., 2019, 150, 154122.
     DOI: 10.1063/1.5090222
   * E. Caldeweyher, J.-M. Mewes, S. Ehlert and S. Grimme, Phys. Chem. Chem. Phys.
     2020, 22, 8499-8512. DOI: 10.1039/D0CP00502A
   
   for sTDA-xTB:
   * S. Grimme and C. Bannwarth, J. Chem. Phys., 2016, 145, 054103.
     DOI: 10.1063/1.4959605
   
   in the mass-spec context:
   * V. Asgeirsson, C. Bauer and S. Grimme, Chem. Sci., 2017, 8, 4879.
     DOI: 10.1039/c7sc00601b
   * J. Koopman and S. Grimme, ACS Omega 2019, 4, 12, 15120-15133.
     DOI: 10.1021/acsomega.9b02011
   
   for metadynamics refer to:
   * S. Grimme, J. Chem. Theory Comput., 2019, 155, 2847-2862
     DOI: 10.1021/acs.jctc.9b00143
   
   for SPH calculations refer to:
   * S. Spicher and S. Grimme, J. Chem. Theory Comput., 2021, 17, 1701-1714
     DOI: 10.1021/acs.jctc.0c01306
   
   with help from (in alphabetical order)
   P. Atkinson, C. Bannwarth, F. Bohle, G. Brandenburg, E. Caldeweyher
   M. Checinski, S. Dohm, S. Ehlert, S. Ehrlich, I. Gerasimov, C. Hölzer
   A. Katbashev, J. Koopman, C. Lavigne, S. Lehtola, F. März, M. Müller,
   F. Musil, H. Neugebauer, J. Pisarek, C. Plett, P. Pracht, F. Pultar,
   J. Seibert, P. Shushkov, S. Spicher, M. Stahn, M. Steiner, T. Strunk,
   J. Stückrath, T. Rose, and J. Unsleber
   
 * started run on 2022/07/30 at 05:34:40.518     

           -------------------------------------------------
          |                Calculation Setup                |
           -------------------------------------------------

          program call               : xtb xtbopt.xyz --gfn 1 --vipea
          hostname                   : cx3-15-15.cx3.hpc.ic.ac.uk
          coordinate file            : xtbopt.xyz
          omp threads                :                     1

   ID    Z sym.   atoms
    1   28 Ni     1, 75
    2    6 C      2-6, 8-20, 22-27, 29-42, 76-80, 82-94, 96-101, 103-116,
                  149-152
    3    7 N      7, 21, 28, 43, 81, 95, 102, 117
    4    1 H      44-74, 118-148

           -------------------------------------------------
          |                 I P E A - x T B                 |
           -------------------------------------------------

        Reference                      10.1039/c7sc00601b
      * Hamiltonian:
        H0-scaling (s, p, d)           2.150000    2.300000    2.000000
        zeta-weighting                 0.000000
      * Dispersion:
        s8                             2.400000
        a1                             0.630000
        a2                             5.000000
        s9                             0.000000
      * Repulsion:
        kExp                           1.500000
        rExp                           1.000000
      * Coulomb:
        alpha                          1.000000
        third order                    atomic
        anisotropic                    false
      * Halogen bond correction:
        rad-scale                      1.300000
        damping                        0.440000


          ...................................................
          :                      SETUP                      :
          :.................................................:
          :  # basis functions                 584          :
          :  # atomic orbitals                 582          :
          :  # shells                          394          :
          :  # electrons                       442          :
          :  # halogen bonds                     0          :
          :  max. iterations                   250          :
          :  Hamiltonian                  GFN1-xTB          :
          :  restarted?                      false          :
          :  GBSA solvation                  false          :
          :  PC potential                    false          :
          :  electronic temp.          300.0000000     K    :
          :  accuracy                    1.0000000          :
          :  -> integral cutoff          0.2500000E+02      :
          :  -> integral neglect         0.1000000E-07      :
          :  -> SCF convergence          0.1000000E-05 Eh   :
          :  -> wf. convergence          0.2000000E-04 e    :
          :  Broyden damping             0.4000000          :
          ...................................................

 iter      E             dE          RMSdq      gap      omega  full diag
   1   -270.0784050 -0.270078E+03  0.974E+00    1.19       0.0  T
   2   -270.6782502 -0.599845E+00  0.615E+00    1.03       1.0  T
   3   -266.8877333  0.379052E+01  0.419E+00    1.11       1.0  T
   4   -271.0066355 -0.411890E+01  0.107E+00    1.76       1.0  T
   5   -271.4256274 -0.418992E+00  0.208E-01    1.57       1.0  T
   6   -271.4388613 -0.132339E-01  0.793E-02    1.63       1.0  T
   7   -271.4407941 -0.193280E-02  0.362E-02    1.61       1.0  T
   8   -271.4411135 -0.319384E-03  0.206E-02    1.61       1.0  T
   9   -271.4411820 -0.684989E-04  0.747E-03    1.62       1.1  T
  10   -271.4411872 -0.527240E-05  0.342E-03    1.62       2.4  T
  11   -271.4411911 -0.388774E-05  0.108E-03    1.62       7.5  T
  12   -271.4411914 -0.314992E-06  0.440E-04    1.62      18.4  T
  13   -271.4411915 -0.381061E-07  0.181E-04    1.62      44.8  T
  14   -271.4411915 -0.228596E-08  0.145E-04    1.62      56.0  T

   *** convergence criteria satisfied after 14 iterations ***

         #    Occupation            Energy/Eh            Energy/eV
      -------------------------------------------------------------
         1        2.0000           -1.0432941             -28.3895
       ...           ...                  ...                  ...
       215        2.0000           -0.3791821             -10.3181
       216        2.0000           -0.3791152             -10.3162
       217        2.0000           -0.3787747             -10.3070
       218        2.0000           -0.3787607             -10.3066
       219        2.0000           -0.3787359             -10.3059
       220        2.0000           -0.3787351             -10.3059
       221        2.0000           -0.3740737             -10.1791 (HOMO)
       222                         -0.3146884              -8.5631 (LUMO)
       223                         -0.3010238              -8.1913
       224                         -0.3010229              -8.1912
       225                         -0.2973725              -8.0919
       226                         -0.2620677              -7.1312
       ...                                ...                  ...
       582                        568.3023663           15464.2945
      -------------------------------------------------------------
                  HL-Gap            0.0593853 Eh            1.6160 eV
             Fermi-level           -0.3443810 Eh           -9.3711 eV

 SCC (total)                   0 d,  0 h,  0 min,  2.548 sec
 SCC setup                      ...        0 min,  0.003 sec (  0.119%)
 Dispersion                     ...        0 min,  0.005 sec (  0.194%)
 classical contributions        ...        0 min,  0.002 sec (  0.084%)
 integral evaluation            ...        0 min,  0.377 sec ( 14.786%)
 iterations                     ...        0 min,  1.239 sec ( 48.644%)
 molecular gradient             ...        0 min,  0.901 sec ( 35.368%)
 printout                       ...        0 min,  0.020 sec (  0.803%)

         :::::::::::::::::::::::::::::::::::::::::::::::::::::
         ::                     SUMMARY                     ::
         :::::::::::::::::::::::::::::::::::::::::::::::::::::
         :: total energy            -266.141402297423 Eh    ::
         :: gradient norm              0.053914706756 Eh/a0 ::
         :: HOMO-LUMO gap              1.615956006050 eV    ::
         ::.................................................::
         :: SCC energy              -271.441191488488 Eh    ::
         :: -> electrostatic           0.113045656972 Eh    ::
         :: repulsion energy           5.437161750387 Eh    ::
         :: dispersion energy         -0.137372559322 Eh    ::
         :: halogen bond corr.         0.000000000000 Eh    ::
         :: add. restraining           0.000000000000 Eh    ::
         :: total charge               0.000000000000 e     ::
         :::::::::::::::::::::::::::::::::::::::::::::::::::::

           ------------------------------------------------- 
          |        vertical delta SCC IP calculation        |
           ------------------------------------------------- 
   1   -271.0209763 -0.271021E+03  0.156E-01    1.62       0.0  T
   2   -271.0282194 -0.724317E-02  0.103E-01    1.65       1.0  T
   3   -271.0301010 -0.188152E-02  0.850E-02    1.62       1.0  T
   4   -271.0303815 -0.280587E-03  0.779E-02    1.62       1.0  T
   5   -271.0312631 -0.881528E-03  0.348E-02    1.63       1.0  T
   6   -271.0309309  0.332215E-03  0.382E-02    1.62       1.0  T
   7   -271.0306202  0.310638E-03  0.487E-02    1.62       1.0  T
   8   -271.0313583 -0.738113E-03  0.103E-02    1.62       1.0  T
   9   -271.0313701 -0.117734E-04  0.612E-03    1.62       1.3  T
  10   -271.0313762 -0.614309E-05  0.233E-03    1.62       3.5  T
  11   -271.0313773 -0.107218E-05  0.996E-04    1.62       8.1  T
  12   -271.0313776 -0.270263E-06  0.418E-04    1.62      19.4  T
  13   -271.0313776 -0.487619E-07  0.180E-04    1.62      45.1  T
  14   -271.0313776 -0.353793E-08  0.998E-05    1.62      81.3  T
     SCC iter.                  ...        0 min,  1.236 sec
     gradient                   ...        0 min,  0.896 sec
------------------------------------------------------------------------
empirical IP shift (eV):    4.8455
delta SCC IP (eV):    6.3061
------------------------------------------------------------------------
           ------------------------------------------------- 
          |        vertical delta SCC EA calculation        |
           ------------------------------------------------- 
   1   -271.6821274 -0.271682E+03  0.263E-01    0.43       0.0  T
   2   -271.7101072 -0.279798E-01  0.184E-01    0.25       1.0  T
   3   -271.7173301 -0.722293E-02  0.120E-01    0.30       1.0  T
   4   -271.7189967 -0.166659E-02  0.739E-02    0.26       1.0  T
   5   -271.7190770 -0.802683E-04  0.424E-02    0.28       1.0  T
   6   -271.7194179 -0.340876E-03  0.165E-02    0.26       1.0  T
   7   -271.7194945 -0.766625E-04  0.734E-03    0.27       1.1  T
   8   -271.7195089 -0.143839E-04  0.356E-03    0.27       2.3  T
   9   -271.7195118 -0.288127E-05  0.117E-03    0.27       7.0  T
  10   -271.7195120 -0.241334E-06  0.671E-04    0.27      12.1  T
  11   -271.7195121 -0.112903E-06  0.441E-04    0.27      18.4  T
  12   -271.7195122 -0.852356E-07  0.166E-04    0.27      48.9  T
  13   -271.7195122 -0.749839E-08  0.627E-05    0.27     129.4  T
     SCC iter.                  ...        0 min,  1.152 sec
     gradient                   ...        0 min,  0.904 sec
------------------------------------------------------------------------
empirical EA shift (eV):    4.8455
delta SCC EA (eV):    2.7280
------------------------------------------------------------------------
           -------------------------------------------------
          |                Property Printout                |
           -------------------------------------------------

    * Orbital Energies and Occupations

         #    Occupation            Energy/Eh            Energy/eV
      -------------------------------------------------------------
         1        2.0000           -0.9735643             -26.4920
       ...           ...                  ...                  ...
       210        2.0000           -0.3199061              -8.7051
       211        2.0000           -0.3184717              -8.6661
       212        2.0000           -0.3184711              -8.6660
       213        2.0000           -0.3104757              -8.4485
       214        2.0000           -0.3104506              -8.4478
       215        2.0000           -0.3084567              -8.3935
       216        2.0000           -0.3084005              -8.3920
       217        2.0000           -0.3081467              -8.3851
       218        2.0000           -0.3081173              -8.3843
       219        2.0000           -0.3081155              -8.3842
       220        2.0000           -0.3080939              -8.3837
       221        2.0000           -0.3019540              -8.2166
       222        0.9923           -0.2419704              -6.5843 (HOMO)
       223        0.0039           -0.2320788              -6.3152 (LUMO)
       224        0.0038           -0.2320770              -6.3151
       225        0.0000           -0.2251985              -6.1280
       226                         -0.1913860              -5.2079
       227                         -0.1913759              -5.2076
       228                         -0.1900933              -5.1727
       229                         -0.1850100              -5.0344
       230                         -0.1791729              -4.8755
       231                         -0.1754157              -4.7733
       232                         -0.1735355              -4.7221
       233                         -0.1686398              -4.5889
       ...                                ...                  ...
       582                        568.3642970           15465.9797
      -------------------------------------------------------------
                  HL-Gap            0.0098915 Eh            0.2692 eV
             Fermi-level           -0.2546588 Eh           -6.9296 eV

  Mulliken/CM5 charges         n(s)   n(p)   n(d)
     1Ni    0.25341  0.62067   0.579  0.793  8.374
     2C    -0.03517 -0.07652   1.074  2.961  0.000
     3C     0.05582  0.11645   1.112  2.832  0.000
     4C    -0.04441 -0.09095   1.085  2.959  0.000
     5C    -0.03821 -0.08450   1.077  2.961  0.000
     6C     0.05645  0.11983   1.093  2.851  0.000
     7N    -0.21244 -0.46357   1.306  3.907  0.000
     8C     0.01385  0.01822   1.066  2.921  0.000
     9C     0.00477 -0.00031   1.058  2.937  0.000
    10C     0.00229 -0.01256   1.089  2.909  0.000
    11C    -0.05562 -0.19961   1.066  2.990  0.000
    12C    -0.03306 -0.08484   1.062  2.971  0.000
    13C    -0.00585 -0.02353   1.097  2.909  0.000
    14C    -0.06218 -0.20688   1.076  2.986  0.000
    15C    -0.03296 -0.08474   1.062  2.971  0.000
    16C     0.00238 -0.01249   1.089  2.909  0.000
    17C    -0.05557 -0.19957   1.066  2.990  0.000
    18C     0.05590  0.11856   1.090  2.854  0.000
    19C    -0.03875 -0.08503   1.074  2.965  0.000
    20C    -0.04071 -0.08632   1.084  2.957  0.000
    21N    -0.20783 -0.45857   1.309  3.899  0.000
    22C     0.06053  0.12573   1.117  2.823  0.000
    23C     0.00679  0.01367   1.074  2.919  0.000
    24C     0.06047  0.12564   1.117  2.823  0.000
    25C    -0.04071 -0.08632   1.084  2.957  0.000
    26C    -0.03873 -0.08503   1.074  2.965  0.000
    27C     0.05589  0.11854   1.090  2.854  0.000
    28N    -0.20782 -0.45867   1.309  3.899  0.000
    29C     0.01379  0.01816   1.066  2.921  0.000
    30C     0.00475 -0.00032   1.058  2.937  0.000
    31C     0.00249 -0.01238   1.089  2.909  0.000
    32C    -0.05551 -0.19952   1.066  2.990  0.000
    33C    -0.03296 -0.08471   1.061  2.972  0.000
    34C    -0.00585 -0.02353   1.096  2.909  0.000
    35C    -0.06219 -0.20689   1.076  2.987  0.000
    36C    -0.03304 -0.08485   1.062  2.971  0.000
    37C     0.00217 -0.01269   1.089  2.909  0.000
    38C    -0.05566 -0.19965   1.066  2.990  0.000
    39C     0.05643  0.11980   1.093  2.851  0.000
    40C    -0.03821 -0.08450   1.077  2.961  0.000
    41C    -0.04440 -0.09094   1.085  2.959  0.000
    42C     0.05582  0.11645   1.112  2.832  0.000
    43N    -0.21243 -0.46363   1.306  3.907  0.000
    44H     0.01304  0.07204   0.987  0.000  0.000
    45H     0.01893  0.07555   0.981  0.000  0.000
    46H     0.01195  0.07064   0.988  0.000  0.000
    47H     0.01063  0.06448   0.989  0.000  0.000
    48H     0.01141  0.06524   0.989  0.000  0.000
    49H     0.01126  0.06395   0.989  0.000  0.000
    50H     0.02683  0.08433   0.973  0.000  0.000
    51H     0.01697  0.06937   0.983  0.000  0.000
    52H     0.02225  0.07414   0.978  0.000  0.000
    53H     0.01676  0.06917   0.983  0.000  0.000
    54H     0.02707  0.08457   0.973  0.000  0.000
    55H     0.01319  0.06701   0.987  0.000  0.000
    56H     0.01158  0.06426   0.988  0.000  0.000
    57H     0.00925  0.06300   0.991  0.000  0.000
    58H     0.01322  0.07199   0.987  0.000  0.000
    59H     0.01762  0.07584   0.982  0.000  0.000
    60H     0.01758  0.07577   0.982  0.000  0.000
    61H     0.01307  0.07183   0.987  0.000  0.000
    62H     0.00901  0.06285   0.991  0.000  0.000
    63H     0.01157  0.06426   0.988  0.000  0.000
    64H     0.01358  0.06738   0.986  0.000  0.000
    65H     0.02732  0.08484   0.973  0.000  0.000
    66H     0.01987  0.07205   0.980  0.000  0.000
    67H     0.01634  0.06887   0.984  0.000  0.000
    68H     0.01964  0.07161   0.980  0.000  0.000
    69H     0.02657  0.08406   0.973  0.000  0.000
    70H     0.01085  0.06469   0.989  0.000  0.000
    71H     0.01108  0.06491   0.989  0.000  0.000
    72H     0.01127  0.06395   0.989  0.000  0.000
    73H     0.01204  0.07075   0.988  0.000  0.000
    74H     0.01893  0.07555   0.981  0.000  0.000
    75Ni    0.25341  0.62066   0.579  0.793  8.374
    76C    -0.03516 -0.07651   1.074  2.961  0.000
    77C     0.05582  0.11645   1.112  2.832  0.000
    78C    -0.04440 -0.09095   1.085  2.959  0.000
    79C    -0.03822 -0.08450   1.077  2.961  0.000
    80C     0.05645  0.11984   1.093  2.851  0.000
    81N    -0.21244 -0.46356   1.306  3.907  0.000
    82C     0.01385  0.01821   1.066  2.921  0.000
    83C     0.00477 -0.00031   1.058  2.937  0.000
    84C     0.00229 -0.01256   1.089  2.909  0.000
    85C    -0.05562 -0.19961   1.066  2.990  0.000
    86C    -0.03306 -0.08484   1.062  2.971  0.000
    87C    -0.00585 -0.02353   1.097  2.909  0.000
    88C    -0.06218 -0.20688   1.076  2.986  0.000
    89C    -0.03296 -0.08474   1.062  2.971  0.000
    90C     0.00238 -0.01249   1.089  2.909  0.000
    91C    -0.05557 -0.19957   1.066  2.990  0.000
    92C     0.05591  0.11858   1.090  2.854  0.000
    93C    -0.03875 -0.08503   1.074  2.965  0.000
    94C    -0.04071 -0.08631   1.084  2.957  0.000
    95N    -0.20784 -0.45856   1.309  3.899  0.000
    96C     0.06052  0.12572   1.117  2.823  0.000
    97C     0.00679  0.01368   1.074  2.919  0.000
    98C     0.06048  0.12564   1.117  2.823  0.000
    99C    -0.04070 -0.08631   1.084  2.957  0.000
   100C    -0.03873 -0.08503   1.074  2.965  0.000
   101C     0.05589  0.11854   1.090  2.854  0.000
   102N    -0.20782 -0.45868   1.309  3.899  0.000
   103C     0.01379  0.01815   1.066  2.921  0.000
   104C     0.00476 -0.00031   1.058  2.937  0.000
   105C     0.00249 -0.01238   1.089  2.909  0.000
   106C    -0.05551 -0.19952   1.066  2.990  0.000
   107C    -0.03296 -0.08471   1.061  2.972  0.000
   108C    -0.00585 -0.02353   1.096  2.909  0.000
   109C    -0.06219 -0.20689   1.076  2.987  0.000
   110C    -0.03304 -0.08485   1.062  2.971  0.000
   111C     0.00216 -0.01269   1.089  2.909  0.000
   112C    -0.05566 -0.19965   1.066  2.990  0.000
   113C     0.05643  0.11980   1.093  2.851  0.000
   114C    -0.03821 -0.08450   1.077  2.961  0.000
   115C    -0.04439 -0.09094   1.085  2.959  0.000
   116C     0.05582  0.11645   1.112  2.832  0.000
   117N    -0.21243 -0.46364   1.306  3.907  0.000
   118H     0.01304  0.07203   0.987  0.000  0.000
   119H     0.01893  0.07554   0.981  0.000  0.000
   120H     0.01196  0.07065   0.988  0.000  0.000
   121H     0.01063  0.06449   0.989  0.000  0.000
   122H     0.01142  0.06524   0.989  0.000  0.000
   123H     0.01126  0.06395   0.989  0.000  0.000
   124H     0.02683  0.08433   0.973  0.000  0.000
   125H     0.01697  0.06936   0.983  0.000  0.000
   126H     0.02225  0.07414   0.978  0.000  0.000
   127H     0.01676  0.06917   0.983  0.000  0.000
   128H     0.02707  0.08457   0.973  0.000  0.000
   129H     0.01319  0.06700   0.987  0.000  0.000
   130H     0.01158  0.06426   0.988  0.000  0.000
   131H     0.00925  0.06300   0.991  0.000  0.000
   132H     0.01322  0.07199   0.987  0.000  0.000
   133H     0.01763  0.07585   0.982  0.000  0.000
   134H     0.01758  0.07577   0.982  0.000  0.000
   135H     0.01307  0.07183   0.987  0.000  0.000
   136H     0.00902  0.06286   0.991  0.000  0.000
   137H     0.01157  0.06426   0.988  0.000  0.000
   138H     0.01358  0.06738   0.986  0.000  0.000
   139H     0.02732  0.08484   0.973  0.000  0.000
   140H     0.01987  0.07205   0.980  0.000  0.000
   141H     0.01634  0.06887   0.984  0.000  0.000
   142H     0.01964  0.07161   0.980  0.000  0.000
   143H     0.02657  0.08406   0.973  0.000  0.000
   144H     0.01085  0.06468   0.989  0.000  0.000
   145H     0.01108  0.06491   0.989  0.000  0.000
   146H     0.01127  0.06396   0.989  0.000  0.000
   147H     0.01204  0.07075   0.988  0.000  0.000
   148H     0.01894  0.07555   0.981  0.000  0.000
   149C    -0.03316 -0.03401   1.061  2.972  0.000
   150C    -0.03130 -0.03306   1.088  2.943  0.000
   151C    -0.03316 -0.03402   1.061  2.972  0.000
   152C    -0.03126 -0.03302   1.088  2.943  0.000

Wiberg/Mayer (AO) data.
largest (>0.10) Wiberg bond orders for each atom

 ---------------------------------------------------------------------------
     #   Z sym  total        # sym  WBO       # sym  WBO       # sym  WBO
 ---------------------------------------------------------------------------
     1  28 Ni   3.333 --    28 N    0.715    21 N    0.715    43 N    0.714
                             7 N    0.714
     2   6 C    3.771 --    42 C    1.385     3 C    1.385    44 H    0.998
     3   6 C    3.942 --     2 C    1.385     7 N    1.257     4 C    1.204
     4   6 C    3.835 --     5 C    1.632     3 C    1.204    45 H    0.995
     5   6 C    3.822 --     4 C    1.632     6 C    1.214    46 H    1.002
     6   6 C    3.889 --     8 C    1.383     7 N    1.235     5 C    1.214
     7   7 N    2.966 --     3 C    1.257     6 C    1.235     1 Ni   0.714
     8   6 C    3.779 --     6 C    1.383    18 C    1.372     9 C    1.029
     9   6 C    3.818 --    16 C    1.421    10 C    1.421     8 C    1.029
    10   6 C    3.894 --    12 C    1.435     9 C    1.421    11 C    1.019
    11   6 C    3.895 --    10 C    1.019    49 H    0.997    48 H    0.994
                            47 H    0.994
    12   6 C    3.834 --    10 C    1.435    13 C    1.432    50 H    0.995
    13   6 C    3.926 --    12 C    1.432    15 C    1.432    14 C    1.008
    14   6 C    3.921 --    13 C    1.008    53 H    0.999    51 H    0.999
                            52 H    0.988
    15   6 C    3.834 --    16 C    1.435    13 C    1.432    54 H    0.995
    16   6 C    3.894 --    15 C    1.435     9 C    1.421    17 C    1.019
    17   6 C    3.895 --    16 C    1.019    56 H    0.997    57 H    0.994
                            55 H    0.993
    18   6 C    3.875 --     8 C    1.372    21 N    1.230    19 C    1.228
    19   6 C    3.807 --    20 C    1.606    18 C    1.228    58 H    1.001
    20   6 C    3.823 --    19 C    1.606    22 C    1.236    59 H    1.000
    21   7 N    2.988 --    22 C    1.283    18 C    1.230     1 Ni   0.715
    22   6 C    3.914 --    21 N    1.283    23 C    1.283    20 C    1.236
    23   6 C    3.783 --    24 C    1.283    22 C    1.283   150 C    1.237
    24   6 C    3.914 --    28 N    1.283    23 C    1.283    25 C    1.236
    25   6 C    3.823 --    26 C    1.606    24 C    1.236    60 H    1.000
    26   6 C    3.808 --    25 C    1.606    27 C    1.228    61 H    1.001
    27   6 C    3.875 --    29 C    1.372    28 N    1.230    26 C    1.228
    28   7 N    2.988 --    24 C    1.283    27 C    1.230     1 Ni   0.715
    29   6 C    3.779 --    39 C    1.383    27 C    1.372    30 C    1.029
    30   6 C    3.818 --    37 C    1.425    31 C    1.418    29 C    1.029
    31   6 C    3.894 --    33 C    1.440    30 C    1.418    32 C    1.019
    32   6 C    3.895 --    31 C    1.019    63 H    0.997    62 H    0.995
                            64 H    0.993
    33   6 C    3.834 --    31 C    1.440    34 C    1.428    65 H    0.995
    34   6 C    3.926 --    36 C    1.437    33 C    1.428    35 C    1.008
    35   6 C    3.921 --    34 C    1.008    67 H    1.001    66 H    0.995
                            68 H    0.991
    36   6 C    3.834 --    34 C    1.437    37 C    1.431    69 H    0.994
    37   6 C    3.894 --    36 C    1.431    30 C    1.425    38 C    1.019
    38   6 C    3.895 --    37 C    1.019    72 H    0.997    71 H    0.994
                            70 H    0.993
    39   6 C    3.889 --    29 C    1.383    43 N    1.235    40 C    1.214
    40   6 C    3.822 --    41 C    1.632    39 C    1.214    73 H    1.002
    41   6 C    3.835 --    40 C    1.632    42 C    1.204    74 H    0.995
    42   6 C    3.942 --     2 C    1.385    43 N    1.257    41 C    1.204
    43   7 N    2.966 --    42 C    1.257    39 C    1.235     1 Ni   0.714
    44   1 H    1.040 --     2 C    0.998
    45   1 H    1.029 --     4 C    0.995
    46   1 H    1.049 --     5 C    1.002
    47   1 H    1.059 --    11 C    0.994
    48   1 H    1.063 --    11 C    0.994
    49   1 H    1.045 --    11 C    0.997
    50   1 H    1.017 --    12 C    0.995
    51   1 H    1.036 --    14 C    0.999
    52   1 H    1.034 --    14 C    0.988
    53   1 H    1.036 --    14 C    0.999
    54   1 H    1.017 --    15 C    0.995
    55   1 H    1.059 --    17 C    0.993
    56   1 H    1.045 --    17 C    0.997
    57   1 H    1.064 --    17 C    0.994
    58   1 H    1.049 --    19 C    1.001
    59   1 H    1.039 --    20 C    1.000
    60   1 H    1.039 --    25 C    1.000
    61   1 H    1.049 --    26 C    1.001
    62   1 H    1.064 --    32 C    0.995
    63   1 H    1.046 --    32 C    0.997
    64   1 H    1.059 --    32 C    0.993
    65   1 H    1.016 --    33 C    0.995
    66   1 H    1.035 --    35 C    0.995
    67   1 H    1.035 --    35 C    1.001
    68   1 H    1.036 --    35 C    0.991
    69   1 H    1.018 --    36 C    0.994
    70   1 H    1.059 --    38 C    0.993
    71   1 H    1.063 --    38 C    0.994
    72   1 H    1.045 --    38 C    0.997
    73   1 H    1.049 --    40 C    1.002
    74   1 H    1.029 --    41 C    0.995
    75  28 Ni   3.333 --   102 N    0.715   117 N    0.714    95 N    0.714
                            81 N    0.714
    76   6 C    3.771 --   116 C    1.385    77 C    1.385   118 H    0.998
    77   6 C    3.942 --    76 C    1.385    81 N    1.257    78 C    1.204
    78   6 C    3.835 --    79 C    1.632    77 C    1.204   119 H    0.995
    79   6 C    3.822 --    78 C    1.632    80 C    1.214   120 H    1.002
    80   6 C    3.889 --    82 C    1.383    81 N    1.235    79 C    1.214
    81   7 N    2.966 --    77 C    1.257    80 C    1.235    75 Ni   0.714
    82   6 C    3.779 --    80 C    1.383    92 C    1.372    83 C    1.029
    83   6 C    3.818 --    90 C    1.421    84 C    1.421    82 C    1.029
    84   6 C    3.894 --    86 C    1.435    83 C    1.421    85 C    1.019
    85   6 C    3.895 --    84 C    1.019   123 H    0.997   122 H    0.994
                           121 H    0.994
    86   6 C    3.834 --    84 C    1.435    87 C    1.432   124 H    0.995
    87   6 C    3.926 --    86 C    1.432    89 C    1.432    88 C    1.008
    88   6 C    3.921 --    87 C    1.008   127 H    0.999   125 H    0.999
                           126 H    0.988
    89   6 C    3.834 --    90 C    1.435    87 C    1.432   128 H    0.995
    90   6 C    3.894 --    89 C    1.435    83 C    1.421    91 C    1.019
    91   6 C    3.895 --    90 C    1.019   130 H    0.997   131 H    0.994
                           129 H    0.993
    92   6 C    3.875 --    82 C    1.372    95 N    1.230    93 C    1.228
    93   6 C    3.807 --    94 C    1.606    92 C    1.228   132 H    1.001
    94   6 C    3.823 --    93 C    1.606    96 C    1.236   133 H    1.000
    95   7 N    2.988 --    96 C    1.284    92 C    1.230    75 Ni   0.714
    96   6 C    3.914 --    95 N    1.284    97 C    1.283    94 C    1.236
    97   6 C    3.783 --    98 C    1.283    96 C    1.283   152 C    1.237
    98   6 C    3.914 --   102 N    1.283    97 C    1.283    99 C    1.236
    99   6 C    3.823 --   100 C    1.606    98 C    1.236   134 H    1.000
   100   6 C    3.807 --    99 C    1.606   101 C    1.228   135 H    1.001
   101   6 C    3.875 --   103 C    1.372   102 N    1.230   100 C    1.228
   102   7 N    2.988 --    98 C    1.283   101 C    1.230    75 Ni   0.715
   103   6 C    3.779 --   113 C    1.383   101 C    1.372   104 C    1.029
   104   6 C    3.818 --   111 C    1.425   105 C    1.418   103 C    1.029
   105   6 C    3.894 --   107 C    1.440   104 C    1.418   106 C    1.019
   106   6 C    3.895 --   105 C    1.019   137 H    0.997   136 H    0.995
                           138 H    0.993
   107   6 C    3.834 --   105 C    1.440   108 C    1.428   139 H    0.995
   108   6 C    3.926 --   110 C    1.437   107 C    1.428   109 C    1.008
   109   6 C    3.921 --   108 C    1.008   141 H    1.001   140 H    0.995
                           142 H    0.991
   110   6 C    3.834 --   108 C    1.437   111 C    1.431   143 H    0.994
   111   6 C    3.894 --   110 C    1.431   104 C    1.425   112 C    1.019
   112   6 C    3.895 --   111 C    1.019   146 H    0.997   145 H    0.994
                           144 H    0.993
   113   6 C    3.890 --   103 C    1.383   117 N    1.235   114 C    1.214
   114   6 C    3.822 --   115 C    1.632   113 C    1.214   147 H    1.002
   115   6 C    3.835 --   114 C    1.632   116 C    1.204   148 H    0.995
   116   6 C    3.942 --    76 C    1.385   117 N    1.257   115 C    1.204
   117   7 N    2.966 --   116 C    1.257   113 C    1.235    75 Ni   0.714
   118   1 H    1.040 --    76 C    0.998
   119   1 H    1.029 --    78 C    0.995
   120   1 H    1.049 --    79 C    1.002
   121   1 H    1.059 --    85 C    0.994
   122   1 H    1.063 --    85 C    0.994
   123   1 H    1.045 --    85 C    0.997
   124   1 H    1.017 --    86 C    0.995
   125   1 H    1.036 --    88 C    0.999
   126   1 H    1.034 --    88 C    0.988
   127   1 H    1.036 --    88 C    0.999
   128   1 H    1.017 --    89 C    0.995
   129   1 H    1.059 --    91 C    0.993
   130   1 H    1.045 --    91 C    0.997
   131   1 H    1.064 --    91 C    0.994
   132   1 H    1.049 --    93 C    1.001
   133   1 H    1.039 --    94 C    1.000
   134   1 H    1.039 --    99 C    1.000
   135   1 H    1.049 --   100 C    1.001
   136   1 H    1.064 --   106 C    0.995
   137   1 H    1.046 --   106 C    0.997
   138   1 H    1.059 --   106 C    0.993
   139   1 H    1.016 --   107 C    0.995
   140   1 H    1.035 --   109 C    0.995
   141   1 H    1.035 --   109 C    1.001
   142   1 H    1.036 --   109 C    0.991
   143   1 H    1.018 --   110 C    0.994
   144   1 H    1.059 --   112 C    0.993
   145   1 H    1.063 --   112 C    0.994
   146   1 H    1.045 --   112 C    0.997
   147   1 H    1.049 --   114 C    1.002
   148   1 H    1.029 --   115 C    0.995
   149   6 C    3.799 --   150 C    2.477   151 C    1.342
   150   6 C    3.794 --   149 C    2.477    23 C    1.237   152 C    0.172
   151   6 C    3.799 --   152 C    2.477   149 C    1.342
   152   6 C    3.794 --   151 C    2.477    97 C    1.237   150 C    0.172
 ---------------------------------------------------------------------------

Topologies differ in total number of bonds
Writing topology from bond orders to xtbtopo.mol

 dipole moment from electron density (au)
     X       Y       Z   
 -42.5335   0.0288  -0.0734  total (Debye):  108.110


           -------------------------------------------------
          | TOTAL ENERGY             -266.419723051035 Eh   |
          | GRADIENT NORM               0.078731992409 Eh/α |
          | HOMO-LUMO GAP               0.269161924485 eV   |
           -------------------------------------------------
########################################################################
[WARNING] Runtime exception occurred
-1- restart_readRestart: Dimension missmatch in restart file.
########################################################################

------------------------------------------------------------------------
 * finished run on 2022/07/30 at 05:34:48.463     
------------------------------------------------------------------------
 total:
 * wall-time:     0 d,  0 h,  0 min,  7.944 sec
 *  cpu-time:     0 d,  0 h,  0 min,  7.909 sec
 * ratio c/w:     0.996 speedup
 SCF:
 * wall-time:     0 d,  0 h,  0 min,  7.554 sec
 *  cpu-time:     0 d,  0 h,  0 min,  7.522 sec
 * ratio c/w:     0.996 speedup

