      -----------------------------------------------------------      
     |                   =====================                   |     
     |                           x T B                           |     
     |                   =====================                   |     
     |                         S. Grimme                         |     
     |          Mulliken Center for Theoretical Chemistry        |     
     |                    University of Bonn                     |     
      -----------------------------------------------------------      

   * xtb version 6.5.1 (b24c23e) compiled by 'conda@728c89f4b128' on 2022-07-12

   xtb is free software: you can redistribute it and/or modify it under
   the terms of the GNU Lesser General Public License as published by
   the Free Software Foundation, either version 3 of the License, or
   (at your option) any later version.
   
   xtb is distributed in the hope that it will be useful,
   but WITHOUT ANY WARRANTY; without even the implied warranty of
   MERCHANTABILITY or FITNESS FOR A PARTICULAR PURPOSE.  See the
   GNU Lesser General Public License for more details.
   
   Cite this work as:
   * C. Bannwarth, E. Caldeweyher, S. Ehlert, A. Hansen, P. Pracht,
     J. Seibert, S. Spicher, S. Grimme, WIREs Comput. Mol. Sci., 2020, 11,
     e01493. DOI: 10.1002/wcms.1493
   
   for GFN2-xTB:
   * C. Bannwarth, S. Ehlert and S. Grimme., J. Chem. Theory Comput., 2019,
     15, 1652-1671. DOI: 10.1021/acs.jctc.8b01176
   for GFN1-xTB:
   * S. Grimme, C. Bannwarth, P. Shushkov, J. Chem. Theory Comput., 2017,
     13, 1989-2009. DOI: 10.1021/acs.jctc.7b00118
   for GFN0-xTB:
   * P. Pracht, E. Caldeweyher, S. Ehlert, S. Grimme, ChemRxiv, 2019, preprint.
     DOI: 10.26434/chemrxiv.8326202.v1
   for GFN-FF:
   * S. Spicher and S. Grimme, Angew. Chem. Int. Ed., 2020, 59, 15665-15673.
     DOI: 10.1002/anie.202004239
   
   for ALPB and GBSA implicit solvation:
   * S. Ehlert, M. Stahn, S. Spicher, S. Grimme, J. Chem. Theory Comput.,
     2021, 17, 4250-4261. DOI: 10.1021/acs.jctc.1c00471
   
   for DFT-D4:
   * E. Caldeweyher, C. Bannwarth and S. Grimme, J. Chem. Phys., 2017,
     147, 034112. DOI: 10.1063/1.4993215
   * E. Caldeweyher, S. Ehlert, A. Hansen, H. Neugebauer, S. Spicher,
     C. Bannwarth and S. Grimme, J. Chem. Phys., 2019, 150, 154122.
     DOI: 10.1063/1.5090222
   * E. Caldeweyher, J.-M. Mewes, S. Ehlert and S. Grimme, Phys. Chem. Chem. Phys.
     2020, 22, 8499-8512. DOI: 10.1039/D0CP00502A
   
   for sTDA-xTB:
   * S. Grimme and C. Bannwarth, J. Chem. Phys., 2016, 145, 054103.
     DOI: 10.1063/1.4959605
   
   in the mass-spec context:
   * V. Asgeirsson, C. Bauer and S. Grimme, Chem. Sci., 2017, 8, 4879.
     DOI: 10.1039/c7sc00601b
   * J. Koopman and S. Grimme, ACS Omega 2019, 4, 12, 15120-15133.
     DOI: 10.1021/acsomega.9b02011
   
   for metadynamics refer to:
   * S. Grimme, J. Chem. Theory Comput., 2019, 155, 2847-2862
     DOI: 10.1021/acs.jctc.9b00143
   
   for SPH calculations refer to:
   * S. Spicher and S. Grimme, J. Chem. Theory Comput., 2021, 17, 1701-1714
     DOI: 10.1021/acs.jctc.0c01306
   
   with help from (in alphabetical order)
   P. Atkinson, C. Bannwarth, F. Bohle, G. Brandenburg, E. Caldeweyher
   M. Checinski, S. Dohm, S. Ehlert, S. Ehrlich, I. Gerasimov, C. Hölzer
   A. Katbashev, J. Koopman, C. Lavigne, S. Lehtola, F. März, M. Müller,
   F. Musil, H. Neugebauer, J. Pisarek, C. Plett, P. Pracht, F. Pultar,
   J. Seibert, P. Shushkov, S. Spicher, M. Stahn, M. Steiner, T. Strunk,
   J. Stückrath, T. Rose, and J. Unsleber
   
 * started run on 2022/07/29 at 00:48:03.663     

           -------------------------------------------------
          |                Calculation Setup                |
           -------------------------------------------------

          program call               : xtb Ph3Me_C6_6.xyz --gfn 1 --opt -T 48
          hostname                   : cx3-2-25.cx3.hpc.ic.ac.uk
          coordinate file            : Ph3Me_C6_6.xyz
          omp threads                :                     1

   ID    Z sym.   atoms
    1    6 C      1-5, 7-19, 21-26, 28-41, 76-80, 82-94, 96-101, 103-116,
                  151-185, 187-199, 201-206, 208-221, 255-259, 261-273,
                  275-280, 282-295, 329-333, 335-347, 349-354, 356-369,
                  403-407, 409-421, 423-428, 430-443
    2    7 N      6, 20, 27, 42, 81, 95, 102, 117, 186, 200, 207, 222, 260,
                  274, 281, 296, 334, 348, 355, 370, 408, 422, 429, 444
    3    1 H      43-75, 118-150, 223-254, 297-328, 371-402, 445-476

molecular fragmentation (1/2 indicates fragments):
111111111111111111111111111111111111111111111111111111111111111111111111
111222222222222222222222222222222222222222222222222222222222222222222222
222222222222222222222222222222222222222222222222222222222222222222222222
222222222222222222222222222222222222222222222222222222222222222222222222
222222222222222222222222222222222222222222222222222222222222222222222222
222222222222222222222222222222222222222222222222222222222222222222222222
22222222222222222222222222222222222222222222
# atoms in fragment 1/2:    75   401
 fragment masses (1/2) :      545.70     3084.77
CMA distance (Bohr)    :  93.396
constraining FC (au)   :  0.0500
########################################################################
[WARNING] Please study the warnings concerning your input carefully
-1- prog_main_parseArguments: Unknown option '-T' provided
########################################################################

           -------------------------------------------------
          |                 G F N 1 - x T B                 |
           -------------------------------------------------

        Reference                      10.1021/acs.jctc.7b00118
      * Hamiltonian:
        H0-scaling (s, p, d)           1.850000    2.250000    2.000000
        zeta-weighting                 0.000000
      * Dispersion:
        s8                             2.400000
        a1                             0.630000
        a2                             5.000000
        s9                             0.000000
      * Repulsion:
        kExp                           1.500000
        rExp                           1.000000
      * Coulomb:
        alpha                          2.000000
        third order                    atomic
        anisotropic                    false
      * Halogen bond correction:
        rad-scale                      1.300000
        damping                        0.440000


          ...................................................
          :                      SETUP                      :
          :.................................................:
          :  # basis functions                1516          :
          :  # atomic orbitals                1516          :
          :  # shells                          952          :
          :  # electrons                      1346          :
          :  # halogen bonds                     0          :
          :  max. iterations                   250          :
          :  Hamiltonian                  GFN1-xTB          :
          :  restarted?                      false          :
          :  GBSA solvation                  false          :
          :  PC potential                    false          :
          :  electronic temp.          300.0000000     K    :
          :  accuracy                    1.0000000          :
          :  -> integral cutoff          0.2500000E+02      :
          :  -> integral neglect         0.1000000E-07      :
          :  -> SCF convergence          0.1000000E-05 Eh   :
          :  -> wf. convergence          0.2000000E-04 e    :
          :  Broyden damping             0.4000000          :
          ...................................................

 iter      E             dE          RMSdq      gap      omega  full diag
   1   -736.2360973 -0.736236E+03  0.999E+00    0.05       0.0  T
   2   -736.5713404 -0.335243E+00  0.603E+00    0.14       1.0  T
   3   -706.7713111  0.298000E+02  0.322E+00    0.03       1.0  T
   4   -613.5391581  0.932322E+02  0.415E+00    0.02       1.0  T
   5   -721.6284060 -0.108089E+03  0.198E+00    0.02       1.0  T
   6   -736.1826337 -0.145542E+02  0.875E-01    0.09       1.0  T
   7   -736.5612754 -0.378642E+00  0.532E-01    0.03       1.0  T
   8   -735.5530789  0.100820E+01  0.683E-01    0.07       1.0  T
   9   -735.6050257 -0.519468E-01  0.645E-01    0.03       1.0  T
  10   -736.8436726 -0.123865E+01  0.351E-01    0.08       1.0  T
  11   -736.5925175  0.251155E+00  0.355E-01    0.06       1.0  T
  12   -736.8368359 -0.244318E+00  0.252E-01    0.08       1.0  T
  13   -736.9984229 -0.161587E+00  0.155E-01    0.14       1.0  T
  14   -737.0219748 -0.235519E-01  0.115E-01    0.11       1.0  T
  15   -737.0338157 -0.118409E-01  0.879E-02    0.15       1.0  T
  16   -737.0416456 -0.782998E-02  0.725E-02    0.15       1.0  T
  17   -737.0476253 -0.597970E-02  0.550E-02    0.17       1.0  T
  18   -737.0525645 -0.493920E-02  0.405E-02    0.13       1.0  T
  19   -737.0488153  0.374923E-02  0.556E-02    0.10       1.0  T
  20   -737.0526748 -0.385950E-02  0.345E-02    0.11       1.0  T
  21   -737.0518541  0.820734E-03  0.346E-02    0.11       1.0  T
  22   -737.0541776 -0.232352E-02  0.180E-02    0.11       1.0  T
  23   -737.0543614 -0.183851E-03  0.172E-02    0.12       1.0  T
  24   -737.0548491 -0.487641E-03  0.107E-02    0.12       1.0  T
  25   -737.0549434 -0.943212E-04  0.855E-03    0.12       1.0  T
  26   -737.0549850 -0.416243E-04  0.750E-03    0.13       1.0  T
  27   -737.0550441 -0.590276E-04  0.497E-03    0.13       1.0  T
  28   -737.0550844 -0.403811E-04  0.298E-03    0.13       1.5  T
  29   -737.0550997 -0.152476E-04  0.207E-03    0.13       2.2  T
  30   -737.0550975  0.214080E-05  0.189E-03    0.13       2.4  T
  31   -737.0551008 -0.322717E-05  0.148E-03    0.13       3.1  T
  32   -737.0551047 -0.388486E-05  0.867E-04    0.13       5.3  T
  33   -737.0551061 -0.145247E-05  0.446E-04    0.14      10.3  T
  34   -737.0551063 -0.239958E-06  0.238E-04    0.14      19.3  T
  35   -737.0551064 -0.446847E-07  0.144E-04    0.14      31.9  T
  36   -737.0551064 -0.229994E-07  0.102E-04    0.14      45.1  T

   *** convergence criteria satisfied after 36 iterations ***

         #    Occupation            Energy/Eh            Energy/eV
      -------------------------------------------------------------
         1        2.0000           -0.7996344             -21.7592
       ...           ...                  ...                  ...
       667        2.0000           -0.4052372             -11.0271
       668        2.0000           -0.3814582             -10.3800
       669        2.0000           -0.3779999             -10.2859
       670        2.0000           -0.3778695             -10.2824
       671        2.0000           -0.3776367             -10.2760
       672        1.9953           -0.3731843             -10.1549
       673        1.8112           -0.3695918             -10.0571 (HOMO)
       674        0.0964           -0.3646098              -9.9215 (LUMO)
       675        0.0961           -0.3646063              -9.9214
       676        0.0012           -0.3604009              -9.8070
       677        0.0000           -0.3559988              -9.6872
       678        0.0000           -0.3523722              -9.5885
       ...           ...                  ...                  ...
      1516                          1.5506681              42.1958
      -------------------------------------------------------------
                  HL-Gap            0.0049821 Eh            0.1356 eV
             Fermi-level           -0.3674438 Eh           -9.9987 eV

 SCC (total)                   0 d,  0 h,  0 min, 54.877 sec
 SCC setup                      ...        0 min,  0.066 sec (  0.120%)
 Dispersion                     ...        0 min,  0.032 sec (  0.058%)
 classical contributions        ...        0 min,  0.009 sec (  0.016%)
 integral evaluation            ...        0 min,  0.818 sec (  1.490%)
 iterations                     ...        0 min, 51.921 sec ( 94.613%)
 molecular gradient             ...        0 min,  1.750 sec (  3.189%)
 printout                       ...        0 min,  0.282 sec (  0.514%)

         :::::::::::::::::::::::::::::::::::::::::::::::::::::
         ::                     SUMMARY                     ::
         :::::::::::::::::::::::::::::::::::::::::::::::::::::
         :: total energy            -725.001267015908 Eh    ::
         :: gradient norm              0.734259810251 Eh/a0 ::
         :: HOMO-LUMO gap              0.135568696024 eV    ::
         ::.................................................::
         :: SCC energy              -737.055106414720 Eh    ::
         :: -> electrostatic           0.357046842496 Eh    ::
         :: repulsion energy          12.452401253276 Eh    ::
         :: dispersion energy         -0.398561854464 Eh    ::
         :: halogen bond corr.         0.000000000000 Eh    ::
         :: add. restraining           0.000000000000 Eh    ::
         :: total charge              -0.000000000000 e     ::
         :::::::::::::::::::::::::::::::::::::::::::::::::::::

      ----------------------------------------------------------- 
     |                   =====================                   |
     |                        A N C O P T                        |
     |                   =====================                   |
     |               Approximate Normal Coordinate               |
     |                Rational Function Optimizer                |
      ----------------------------------------------------------- 

          ...................................................
          :                      SETUP                      :
          :.................................................:
          :   optimization level            normal          :
          :   max. optcycles                  1428          :
          :   ANC micro-cycles                  20          :
          :   degrees of freedom              1422          :
          :.................................................:
          :   RF solver                   davidson          :
          :   write xtbopt.log                true          :
          :   linear?                        false          :
          :   energy convergence         0.5000000E-05 Eh   :
          :   grad. convergence          0.1000000E-02 Eh/α :
          :   maximium RF displ.         1.0000000          :
          :   Hlow (freq-cutoff)         0.1000000E-01      :
          :   Hmax (freq-cutoff)         5.0000000          :
          :   S6 in model hess.         20.0000000          :
          ...................................................

generating ANC from model Hessian ...
Using Lindh-Hessian (1995)
 Shifting diagonal of input Hessian by    1.0007762737600403E-002
 Lowest  eigenvalues of input Hessian
    0.010000    0.010001    0.010003    0.010003    0.010004    0.010005
    0.010005    0.010006    0.010006    0.010007    0.010007    0.010007
    0.000000    0.000000    0.000000    0.000000    0.000000    0.000000
 Highest eigenvalues
    2.694096    2.847987    2.852143    2.891615    2.891616    2.891616


........................................................................
.............................. CYCLE    1 ..............................
........................................................................
   1   -737.0551064 -0.737055E+03  0.569E-05    0.14       0.0  T
   2   -737.0551061  0.288588E-06  0.348E-04    0.14      13.2  T
   3   -737.0551064 -0.228001E-06  0.151E-04    0.14      30.4  T
   4   -737.0551064 -0.555731E-07  0.670E-05    0.14      68.4  T
     SCC iter.                  ...        0 min,  5.621 sec
     gradient                   ...        0 min,  1.759 sec
 * total energy  :  -725.0012670 Eh     change       -0.6178198E-08 Eh
   gradient norm :     0.7342599 Eh/α   predicted     0.0000000E+00 (-100.00%)
   displ. norm   :     0.5200332 α      lambda       -0.3245171E+00
   maximum displ.:     0.1600941 α      in ANC's #1186, #1314, #898, ...

........................................................................
.............................. CYCLE    2 ..............................
........................................................................
   1   -737.0234447 -0.737023E+03  0.655E-02    0.17       0.0  T
   2   -736.7799770  0.243468E+00  0.327E-01    0.02       1.0  T
   3   -737.0199853 -0.240008E+00  0.709E-02    0.23       1.0  T
   4   -737.0262656 -0.628028E-02  0.359E-02    0.16       1.0  T
   5   -737.0262690 -0.339080E-05  0.294E-02    0.15       1.0  T
   6   -737.0055142  0.207547E-01  0.932E-02    0.07       1.0  T
   7   -737.0046410  0.873208E-03  0.911E-02    0.06       1.0  T
   8   -737.0269447 -0.223037E-01  0.202E-02    0.12       1.0  T
   9   -737.0278801 -0.935335E-03  0.385E-03    0.13       1.2  T
  10   -737.0278742  0.590606E-05  0.375E-03    0.13       1.2  T
  11   -737.0279044 -0.301902E-04  0.152E-03    0.14       3.0  T
  12   -737.0279076 -0.326906E-05  0.656E-04    0.14       7.0  T
  13   -737.0279085 -0.850492E-06  0.308E-04    0.14      14.9  T
  14   -737.0279085 -0.956595E-08  0.231E-04    0.14      19.9  T
  15   -737.0279085 -0.544293E-07  0.185E-04    0.14      24.8  T
  16   -737.0279086 -0.446724E-07  0.127E-04    0.14      36.2  T
     SCC iter.                  ...        0 min, 22.021 sec
     gradient                   ...        0 min,  1.724 sec
 * total energy  :  -725.2652351 Eh     change       -0.2639681E+00 Eh
   gradient norm :     0.4452134 Eh/α   predicted    -0.2061707E+00 ( -21.90%)
   displ. norm   :     0.6147740 α      lambda       -0.2431167E+00
   maximum displ.:     0.1640884 α      in ANC's #1186, #1314, #1388, ...

........................................................................
.............................. CYCLE    3 ..............................
........................................................................
   1   -737.0395676 -0.737040E+03  0.860E-02    0.19       0.0  T
   2   -736.8365411  0.203027E+00  0.313E-01    0.00       1.0  T
   3   -737.0342464 -0.197705E+00  0.953E-02    0.37       1.0  T
   4   -737.0443766 -0.101302E-01  0.424E-02    0.22       1.0  T
   5   -737.0456934 -0.131680E-02  0.271E-02    0.19       1.0  T
   6   -737.0413758  0.431757E-02  0.486E-02    0.09       1.0  T
   7   -736.9991801  0.421957E-01  0.133E-01    0.04       1.0  T
   8   -737.0464922 -0.473121E-01  0.146E-02    0.13       1.0  T
   9   -737.0468886 -0.396306E-03  0.596E-03    0.14       1.0  T
  10   -737.0469435 -0.549420E-04  0.271E-03    0.14       1.7  T
  11   -737.0469614 -0.178628E-04  0.991E-04    0.14       4.6  T
  12   -737.0469621 -0.766957E-06  0.725E-04    0.15       6.3  T
  13   -737.0469621  0.246407E-07  0.637E-04    0.15       7.2  T
  14   -737.0469626 -0.487321E-06  0.492E-04    0.15       9.3  T
  15   -737.0469629 -0.265707E-06  0.360E-04    0.15      12.7  T
  16   -737.0469631 -0.256717E-06  0.179E-04    0.15      25.6  T
  17   -737.0469632 -0.701278E-07  0.773E-05    0.15      59.3  T
     SCC iter.                  ...        0 min, 23.577 sec
     gradient                   ...        0 min,  1.698 sec
 * total energy  :  -725.4285817 Eh     change       -0.1633466E+00 Eh
   gradient norm :     0.1491076 Eh/α   predicted    -0.1675186E+00 (   2.55%)
   displ. norm   :     0.6718988 α      lambda       -0.7047261E-01
   maximum displ.:     0.1568318 α      in ANC's #413, #102, #92, ...

........................................................................
.............................. CYCLE    4 ..............................
........................................................................
   1   -737.1516101 -0.737152E+03  0.468E-02    0.26       0.0  T
   2   -737.0569099  0.947002E-01  0.212E-01    0.02       1.0  T
   3   -737.1513254 -0.944156E-01  0.451E-02    0.28       1.0  T
   4   -737.1538216 -0.249618E-02  0.212E-02    0.22       1.0  T
   5   -737.1543281 -0.506512E-03  0.107E-02    0.20       1.0  T
   6   -737.1536952  0.632905E-03  0.205E-02    0.14       1.0  T
   7   -737.1507874  0.290779E-02  0.385E-02    0.11       1.0  T
   8   -737.1541496 -0.336215E-02  0.119E-02    0.15       1.0  T
   9   -737.1544586 -0.309015E-03  0.468E-03    0.16       1.0  T
  10   -737.1545034 -0.448381E-04  0.172E-03    0.17       2.7  T
  11   -737.1545103 -0.692216E-05  0.687E-04    0.17       6.7  T
  12   -737.1545111 -0.782172E-06  0.392E-04    0.17      11.7  T
  13   -737.1545112 -0.119387E-06  0.240E-04    0.17      19.1  T
  14   -737.1545114 -0.119256E-06  0.111E-04    0.17      41.3  T
  15   -737.1545114 -0.270916E-07  0.500E-05    0.17      91.6  T
     SCC iter.                  ...        0 min, 20.859 sec
     gradient                   ...        0 min,  1.728 sec
 * total energy  :  -725.4810633 Eh     change       -0.5248156E-01 Eh
   gradient norm :     0.0823776 Eh/α   predicted    -0.5114679E-01 (  -2.54%)
   displ. norm   :     0.7795405 α      lambda       -0.4188981E-01
   maximum displ.:     0.1998253 α      in ANC's #102, #92, #103, ...

........................................................................
.............................. CYCLE    5 ..............................
........................................................................
   1   -737.2581215 -0.737258E+03  0.269E-02    0.35       0.0  T
   2   -737.2573349  0.786619E-03  0.411E-02    0.18       1.0  T
   3   -737.2589483 -0.161343E-02  0.112E-02    0.26       1.0  T
   4   -737.2586977  0.250580E-03  0.160E-02    0.21       1.0  T
   5   -737.2589449 -0.247142E-03  0.915E-03    0.23       1.0  T
   6   -737.2590029 -0.580318E-04  0.358E-03    0.23       1.3  T
   7   -737.2590126 -0.971858E-05  0.184E-03    0.24       2.5  T
   8   -737.2590159 -0.329364E-05  0.614E-04    0.24       7.5  T
   9   -737.2590161 -0.150754E-06  0.352E-04    0.24      13.0  T
  10   -737.2590162 -0.164022E-06  0.169E-04    0.24      27.0  T
  11   -737.2590163 -0.248019E-07  0.640E-05    0.24      71.6  T
     SCC iter.                  ...        0 min, 15.477 sec
     gradient                   ...        0 min,  1.710 sec
 * total energy  :  -725.5175437 Eh     change       -0.3648040E-01 Eh
   gradient norm :     0.0567750 Eh/α   predicted    -0.3367278E-01 (  -7.70%)
   displ. norm   :     0.8903278 α      lambda       -0.3724024E-01
   maximum displ.:     0.2689058 α      in ANC's #102, #92, #103, ...

........................................................................
.............................. CYCLE    6 ..............................
........................................................................
   1   -737.3308305 -0.737331E+03  0.294E-02    0.58       0.0  T
   2   -737.3304052  0.425340E-03  0.450E-02    0.50       1.0  T
   3   -737.3316801 -0.127490E-02  0.116E-02    0.51       1.0  T
   4   -737.3316515  0.285896E-04  0.792E-03    0.53       1.0  T
   5   -737.3316912 -0.397319E-04  0.457E-03    0.52       1.0  T
   6   -737.3317051 -0.139379E-04  0.108E-03    0.52       4.2  T
   7   -737.3317060 -0.823498E-06  0.566E-04    0.52       8.1  T
   8   -737.3317063 -0.302695E-06  0.199E-04    0.52      23.0  T
   9   -737.3317063 -0.302589E-07  0.663E-05    0.52      69.1  T
     SCC iter.                  ...        0 min, 12.541 sec
     gradient                   ...        0 min,  1.724 sec
 * total energy  :  -725.5530588 Eh     change       -0.3551514E-01 Eh
   gradient norm :     0.0535529 Eh/α   predicted    -0.3338000E-01 (  -6.01%)
   displ. norm   :     0.9574667 α      lambda       -0.3918403E-01
   maximum displ.:     0.2961259 α      in ANC's #102, #92, #103, ...

........................................................................
.............................. CYCLE    7 ..............................
........................................................................
   1   -737.3777602 -0.737378E+03  0.382E-02    0.73       0.0  T
   2   -737.3778189 -0.587686E-04  0.472E-02    0.73       1.0  T
   3   -737.3790867 -0.126780E-02  0.129E-02    0.73       1.0  T
   4   -737.3790384  0.483227E-04  0.755E-03    0.73       1.0  T
   5   -737.3790890 -0.506345E-04  0.478E-03    0.73       1.0  T
   6   -737.3791080 -0.189991E-04  0.107E-03    0.73       4.3  T
   7   -737.3791088 -0.725358E-06  0.472E-04    0.73       9.7  T
   8   -737.3791091 -0.315829E-06  0.269E-04    0.73      17.1  T
   9   -737.3791091 -0.669382E-07  0.916E-05    0.73      50.1  T
  10   -737.3791091 -0.330022E-08  0.367E-05    0.73     124.9  T
     SCC iter.                  ...        0 min, 14.064 sec
     gradient                   ...        0 min,  1.689 sec
 * total energy  :  -725.5928099 Eh     change       -0.3975101E-01 Eh
   gradient norm :     0.0708661 Eh/α   predicted    -0.3755291E-01 (  -5.53%)
   displ. norm   :     0.9378453 α      lambda       -0.4124648E-01
   maximum displ.:     0.3014586 α      in ANC's #102, #92, #103, ...

........................................................................
.............................. CYCLE    8 ..............................
........................................................................
   1   -737.4144261 -0.737414E+03  0.340E-02    0.77       0.0  T
   2   -737.4148564 -0.430314E-03  0.339E-02    0.77       1.0  T
   3   -737.4152838 -0.427436E-03  0.128E-02    0.77       1.0  T
   4   -737.4152019  0.819329E-04  0.818E-03    0.77       1.0  T
   5   -737.4152792 -0.772784E-04  0.381E-03    0.77       1.2  T
   6   -737.4152954 -0.161861E-04  0.976E-04    0.77       4.7  T
   7   -737.4152962 -0.789226E-06  0.459E-04    0.77      10.0  T
   8   -737.4152965 -0.309655E-06  0.206E-04    0.77      22.2  T
   9   -737.4152965 -0.359851E-07  0.724E-05    0.77      63.3  T
  10   -737.4152965 -0.273326E-08  0.294E-05    0.77     155.9  T
     SCC iter.                  ...        0 min, 14.881 sec
     gradient                   ...        0 min,  2.372 sec
 * total energy  :  -725.6351409 Eh     change       -0.4233109E-01 Eh
   gradient norm :     0.0890999 Eh/α   predicted    -0.3876255E-01 (  -8.43%)
   displ. norm   :     0.9077499 α      lambda       -0.4358361E-01
   maximum displ.:     0.2981687 α      in ANC's #102, #92, #103, ...

........................................................................
.............................. CYCLE    9 ..............................
........................................................................
   1   -737.4469558 -0.737447E+03  0.319E-02    0.79       0.0  T
   2   -737.4472846 -0.328782E-03  0.305E-02    0.79       1.0  T
   3   -737.4474996 -0.214930E-03  0.139E-02    0.79       1.0  T
   4   -737.4473932  0.106392E-03  0.963E-03    0.79       1.0  T
   5   -737.4474983 -0.105145E-03  0.275E-03    0.79       1.7  T
   6   -737.4475068 -0.849563E-05  0.926E-04    0.79       5.0  T
   7   -737.4475079 -0.106466E-05  0.463E-04    0.79       9.9  T
   8   -737.4475082 -0.293880E-06  0.132E-04    0.79      34.7  T
   9   -737.4475082 -0.973853E-08  0.584E-05    0.79      78.5  T
     SCC iter.                  ...        0 min, 13.444 sec
     gradient                   ...        0 min,  1.742 sec
 * total energy  :  -725.6787481 Eh     change       -0.4360717E-01 Eh
   gradient norm :     0.0990729 Eh/α   predicted    -0.3974869E-01 (  -8.85%)
   displ. norm   :     0.9025865 α      lambda       -0.5822278E-01
   maximum displ.:     0.2661106 α      in ANC's #102, #92, #103, ...

........................................................................
.............................. CYCLE   10 ..............................
........................................................................
   1   -737.4184693 -0.737418E+03  0.498E-02    0.75       0.0  T
   2   -737.4190766 -0.607251E-03  0.492E-02    0.75       1.0  T
   3   -737.4195482 -0.471671E-03  0.244E-02    0.75       1.0  T
   4   -737.4192471  0.301102E-03  0.180E-02    0.75       1.0  T
   5   -737.4195393 -0.292169E-03  0.424E-03    0.75       1.1  T
   6   -737.4195614 -0.221332E-04  0.134E-03    0.75       3.4  T
   7   -737.4195630 -0.152269E-05  0.602E-04    0.75       7.6  T
   8   -737.4195635 -0.546893E-06  0.188E-04    0.75      24.4  T
   9   -737.4195635 -0.324740E-07  0.824E-05    0.75      55.6  T
     SCC iter.                  ...        0 min, 12.042 sec
     gradient                   ...        0 min,  1.715 sec
 * total energy  :  -725.7213177 Eh     change       -0.4256955E-01 Eh
   gradient norm :     0.0645243 Eh/α   predicted    -0.5282739E-01 (  24.10%)
   displ. norm   :     0.8484039 α      lambda       -0.3310459E-01
   maximum displ.:     0.2828822 α      in ANC's #102, #92, #103, ...

........................................................................
.............................. CYCLE   11 ..............................
........................................................................
   1   -737.4826947 -0.737483E+03  0.135E-02    0.78       0.0  T
   2   -737.4826936  0.108141E-05  0.139E-02    0.78       1.0  T
   3   -737.4827843 -0.907039E-04  0.596E-03    0.78       1.0  T
   4   -737.4827496  0.347235E-04  0.573E-03    0.78       1.0  T
   5   -737.4827863 -0.367441E-04  0.106E-03    0.78       4.3  T
   6   -737.4827868 -0.467975E-06  0.392E-04    0.78      11.7  T
   7   -737.4827870 -0.240852E-06  0.150E-04    0.78      30.5  T
   8   -737.4827871 -0.335583E-07  0.515E-05    0.78      89.1  T
     SCC iter.                  ...        0 min, 10.708 sec
     gradient                   ...        0 min,  2.315 sec
 * total energy  :  -725.7503786 Eh     change       -0.2906097E-01 Eh
   gradient norm :     0.0676567 Eh/α   predicted    -0.2846650E-01 (  -2.05%)
   displ. norm   :     0.8895357 α      lambda       -0.4306056E-01
   maximum displ.:     0.2444200 α      in ANC's #92, #102, #103, ...

........................................................................
.............................. CYCLE   12 ..............................
........................................................................
   1   -737.5077192 -0.737508E+03  0.356E-02    0.71       0.0  T
   2   -737.5082586 -0.539336E-03  0.254E-02    0.71       1.0  T
   3   -737.5084719 -0.213370E-03  0.112E-02    0.71       1.0  T
   4   -737.5083816  0.903016E-04  0.101E-02    0.71       1.0  T
   5   -737.5084888 -0.107219E-03  0.419E-03    0.71       1.1  T
   6   -737.5084968 -0.791459E-05  0.683E-04    0.71       6.7  T
   7   -737.5084973 -0.535180E-06  0.303E-04    0.71      15.1  T
   8   -737.5084974 -0.104057E-06  0.133E-04    0.71      34.4  T
   9   -737.5084974 -0.146555E-07  0.628E-05    0.71      73.0  T
     SCC iter.                  ...        0 min, 11.908 sec
     gradient                   ...        0 min,  1.574 sec
 * total energy  :  -725.7726800 Eh     change       -0.2230140E-01 Eh
   gradient norm :     0.1041758 Eh/α   predicted    -0.3856668E-01 (  72.93%)
   displ. norm   :     0.7824165 α      lambda       -0.3294225E-01
   maximum displ.:     0.2751620 α      in ANC's #102, #92, #103, ...

........................................................................
.............................. CYCLE   13 ..............................
........................................................................
   1   -737.5566160 -0.737557E+03  0.195E-02    0.72       0.0  T
   2   -737.5566977 -0.817097E-04  0.176E-02    0.72       1.0  T
   3   -737.5567661 -0.684008E-04  0.788E-03    0.72       1.0  T
   4   -737.5567229  0.431910E-04  0.691E-03    0.72       1.0  T
   5   -737.5567662 -0.433311E-04  0.155E-03    0.72       3.0  T
   6   -737.5567692 -0.297493E-05  0.374E-04    0.72      12.2  T
   7   -737.5567693 -0.127197E-06  0.175E-04    0.72      26.2  T
   8   -737.5567694 -0.506938E-07  0.525E-05    0.72      87.2  T
     SCC iter.                  ...        0 min, 11.196 sec
     gradient                   ...        0 min,  2.721 sec
 * total energy  :  -725.8006293 Eh     change       -0.2794928E-01 Eh
   gradient norm :     0.0546990 Eh/α   predicted    -0.2655435E-01 (  -4.99%)
   displ. norm   :     0.8988180 α      lambda       -0.2699645E-01
   maximum displ.:     0.3094896 α      in ANC's #92, #102, #103, ...

........................................................................
.............................. CYCLE   14 ..............................
........................................................................
   1   -737.6128757 -0.737613E+03  0.137E-02    0.73       0.0  T
   2   -737.6129156 -0.398781E-04  0.110E-02    0.73       1.0  T
   3   -737.6129509 -0.353027E-04  0.457E-03    0.73       1.0  T
   4   -737.6129364  0.144425E-04  0.437E-03    0.73       1.0  T
   5   -737.6129528 -0.163449E-04  0.118E-03    0.73       3.9  T
   6   -737.6129547 -0.193113E-05  0.305E-04    0.73      15.0  T
   7   -737.6129548 -0.117888E-06  0.124E-04    0.73      37.0  T
   8   -737.6129548 -0.239725E-07  0.360E-05    0.73     127.3  T
     SCC iter.                  ...        0 min, 11.384 sec
     gradient                   ...        0 min,  1.744 sec
 * total energy  :  -725.8240741 Eh     change       -0.2344475E-01 Eh
   gradient norm :     0.0428714 Eh/α   predicted    -0.2440312E-01 (   4.09%)
   displ. norm   :     0.9273441 α      lambda       -0.2617612E-01
   maximum displ.:     0.2948037 α      in ANC's #92, #102, #90, ...

........................................................................
.............................. CYCLE   15 ..............................
........................................................................
   1   -737.6721228 -0.737672E+03  0.101E-02    0.73       0.0  T
   2   -737.6721518 -0.289602E-04  0.795E-03    0.73       1.0  T
   3   -737.6721678 -0.160707E-04  0.368E-03    0.73       1.2  T
   4   -737.6721548  0.130778E-04  0.346E-03    0.73       1.3  T
   5   -737.6721687 -0.139595E-04  0.115E-03    0.73       4.0  T
   6   -737.6721702 -0.148039E-05  0.213E-04    0.73      21.5  T
   7   -737.6721702 -0.484632E-07  0.867E-05    0.73      52.9  T
   8   -737.6721703 -0.924001E-08  0.366E-05    0.73     125.3  T
     SCC iter.                  ...        0 min, 10.333 sec
     gradient                   ...        0 min,  1.712 sec
 * total energy  :  -725.8457991 Eh     change       -0.2172509E-01 Eh
   gradient norm :     0.0401048 Eh/α   predicted    -0.2434337E-01 (  12.05%)
   displ. norm   :     0.9041865 α      lambda       -0.2245938E-01
   maximum displ.:     0.3134474 α      in ANC's #92, #102, #103, ...

........................................................................
.............................. CYCLE   16 ..............................
........................................................................
   1   -737.7258859 -0.737726E+03  0.774E-03    0.73       0.0  T
   2   -737.7258870 -0.108764E-05  0.514E-03    0.73       1.0  T
   3   -737.7258848  0.220705E-05  0.339E-03    0.73       1.4  T
   4   -737.7258941 -0.934515E-05  0.215E-03    0.73       2.1  T
   5   -737.7258989 -0.474971E-05  0.536E-04    0.73       8.5  T
   6   -737.7258992 -0.347444E-06  0.194E-04    0.73      23.6  T
   7   -737.7258993 -0.545494E-07  0.744E-05    0.73      61.6  T
     SCC iter.                  ...        0 min,  8.959 sec
     gradient                   ...        0 min,  1.755 sec
 * total energy  :  -725.8657228 Eh     change       -0.1992369E-01 Eh
   gradient norm :     0.0333648 Eh/α   predicted    -0.2041057E-01 (   2.44%)
   displ. norm   :     0.9307108 α      lambda       -0.2118594E-01
   maximum displ.:     0.2859969 α      in ANC's #92, #90, #102, ...

........................................................................
.............................. CYCLE   17 ..............................
........................................................................
   1   -737.7668930 -0.737767E+03  0.101E-02    0.71       0.0  T
   2   -737.7669076 -0.146016E-04  0.800E-03    0.71       1.0  T
   3   -737.7669400 -0.323951E-04  0.338E-03    0.71       1.4  T
   4   -737.7669337  0.631698E-05  0.350E-03    0.71       1.3  T
   5   -737.7669461 -0.124001E-04  0.112E-03    0.71       4.1  T
   6   -737.7669472 -0.110147E-05  0.376E-04    0.71      12.2  T
   7   -737.7669474 -0.232747E-06  0.926E-05    0.71      49.5  T
   8   -737.7669474 -0.106637E-07  0.311E-05    0.71     147.5  T
     SCC iter.                  ...        0 min, 10.503 sec
     gradient                   ...        0 min,  1.708 sec
 * total energy  :  -725.8830292 Eh     change       -0.1730639E-01 Eh
   gradient norm :     0.0368590 Eh/α   predicted    -0.1976888E-01 (  14.23%)
   displ. norm   :     0.8998709 α      lambda       -0.1901053E-01
   maximum displ.:     0.2910680 α      in ANC's #92, #58, #90, ...

........................................................................
.............................. CYCLE   18 ..............................
........................................................................
   1   -737.8270371 -0.737827E+03  0.951E-03    0.72       0.0  T
   2   -737.8270507 -0.136392E-04  0.800E-03    0.72       1.0  T
   3   -737.8270766 -0.258660E-04  0.331E-03    0.72       1.4  T
   4   -737.8270635  0.130492E-04  0.344E-03    0.72       1.3  T
   5   -737.8270791 -0.155646E-04  0.752E-04    0.72       6.1  T
   6   -737.8270796 -0.497212E-06  0.268E-04    0.72      17.1  T
   7   -737.8270797 -0.993465E-07  0.116E-04    0.72      39.4  T
   8   -737.8270797 -0.163186E-07  0.367E-05    0.72     124.9  T
     SCC iter.                  ...        0 min, 10.648 sec
     gradient                   ...        0 min,  1.694 sec
 * total energy  :  -725.8992482 Eh     change       -0.1621893E-01 Eh
   gradient norm :     0.0285108 Eh/α   predicted    -0.1720233E-01 (   6.06%)
   displ. norm   :     0.9138641 α      lambda       -0.1734020E-01
   maximum displ.:     0.2795252 α      in ANC's #92, #25, #90, ...

........................................................................
.............................. CYCLE   19 ..............................
........................................................................
   1   -737.8915242 -0.737892E+03  0.106E-02    0.73       0.0  T
   2   -737.8915457 -0.214960E-04  0.945E-03    0.73       1.0  T
   3   -737.8915804 -0.347027E-04  0.395E-03    0.73       1.2  T
   4   -737.8915598  0.205954E-04  0.432E-03    0.73       1.1  T
   5   -737.8915828 -0.229761E-04  0.108E-03    0.73       4.2  T
   6   -737.8915836 -0.846743E-06  0.304E-04    0.73      15.1  T
   7   -737.8915838 -0.112724E-06  0.120E-04    0.73      38.1  T
   8   -737.8915838 -0.181670E-07  0.466E-05    0.73      98.3  T
     SCC iter.                  ...        0 min, 11.371 sec
     gradient                   ...        0 min,  1.769 sec
 * total energy  :  -725.9126709 Eh     change       -0.1342270E-01 Eh
   gradient norm :     0.0362596 Eh/α   predicted    -0.1591095E-01 (  18.54%)
   displ. norm   :     0.8705867 α      lambda       -0.1527639E-01
   maximum displ.:     0.2647565 α      in ANC's #92, #25, #58, ...

........................................................................
.............................. CYCLE   20 ..............................
........................................................................
   1   -737.9282604 -0.737928E+03  0.118E-02    0.72       0.0  T
   2   -737.9282762 -0.158714E-04  0.118E-02    0.72       1.0  T
   3   -737.9283359 -0.596261E-04  0.483E-03    0.72       1.0  T
   4   -737.9283089  0.269437E-04  0.491E-03    0.72       1.0  T
   5   -737.9283368 -0.279048E-04  0.108E-03    0.72       4.2  T
   6   -737.9283378 -0.987392E-06  0.311E-04    0.72      14.7  T
   7   -737.9283380 -0.147456E-06  0.140E-04    0.72      32.8  T
   8   -737.9283380 -0.292040E-07  0.297E-05    0.72     154.3  T
     SCC iter.                  ...        0 min, 10.743 sec
     gradient                   ...        0 min,  1.672 sec
 * total energy  :  -725.9251897 Eh     change       -0.1251887E-01 Eh
   gradient norm :     0.0266794 Eh/α   predicted    -0.1342737E-01 (   7.26%)
   displ. norm   :     0.8927141 α      lambda       -0.1342605E-01
   maximum displ.:     0.2673606 α      in ANC's #36, #25, #92, ...
 * RMSD in coord.:     0.6419555 α      energy gain  -0.9239227E+00 Eh

generating ANC from model Hessian ...
Using Lindh-Hessian (1995)
 Shifting diagonal of input Hessian by    1.0008000584558023E-002
 Lowest  eigenvalues of input Hessian
    0.010000    0.010002    0.010004    0.010006    0.010006    0.010007
    0.010007    0.010007    0.010008    0.010008    0.010008    0.000000
    0.000000    0.000000    0.000000    0.000000    0.000000    0.010008
 Highest eigenvalues
    2.597729    2.765575    2.767522    2.886604    2.886952    2.921121


........................................................................
.............................. CYCLE   21 ..............................
........................................................................
   1   -737.9701775 -0.737970E+03  0.100E-02    0.72       0.0  T
   2   -737.9701782 -0.756732E-06  0.102E-02    0.72       1.0  T
   3   -737.9702364 -0.581907E-04  0.387E-03    0.72       1.2  T
   4   -737.9702191  0.173371E-04  0.406E-03    0.72       1.1  T
   5   -737.9702375 -0.184424E-04  0.857E-04    0.72       5.3  T
   6   -737.9702380 -0.539478E-06  0.291E-04    0.72      15.7  T
   7   -737.9702382 -0.136135E-06  0.103E-04    0.72      44.7  T
   8   -737.9702382 -0.154562E-07  0.270E-05    0.72     169.9  T
     SCC iter.                  ...        0 min, 10.945 sec
     gradient                   ...        0 min,  1.684 sec
 * total energy  :  -725.9357767 Eh     change       -0.1058696E-01 Eh
   gradient norm :     0.0257503 Eh/α   predicted     0.0000000E+00 (-100.00%)
   displ. norm   :     0.5938895 α      lambda       -0.7645113E-02
   maximum displ.:     0.2696850 α      in ANC's #69, #114, #122, ...

........................................................................
.............................. CYCLE   22 ..............................
........................................................................
   1   -738.0081221 -0.738008E+03  0.387E-03    0.72       0.0  T
   2   -738.0081233 -0.120610E-05  0.324E-03    0.72       1.4  T
   3   -738.0081282 -0.489515E-05  0.150E-03    0.72       3.1  T
   4   -738.0081266  0.156818E-05  0.141E-03    0.72       3.2  T
   5   -738.0081290 -0.241022E-05  0.361E-04    0.72      12.7  T
   6   -738.0081292 -0.105372E-06  0.122E-04    0.72      37.6  T
   7   -738.0081292 -0.249784E-07  0.399E-05    0.72     115.0  T
     SCC iter.                  ...        0 min,  9.490 sec
     gradient                   ...        0 min,  1.769 sec
 * total energy  :  -725.9426427 Eh     change       -0.6865984E-02 Eh
   gradient norm :     0.0162543 Eh/α   predicted    -0.5170803E-02 ( -24.69%)
   displ. norm   :     0.9155868 α      lambda       -0.1061657E-01
   maximum displ.:     0.4089494 α      in ANC's #69, #114, #122, ...

........................................................................
.............................. CYCLE   23 ..............................
........................................................................
   1   -738.0590092 -0.738059E+03  0.587E-03    0.72       0.0  T
   2   -738.0590125 -0.328517E-05  0.483E-03    0.72       1.0  T
   3   -738.0590243 -0.118162E-04  0.223E-03    0.72       2.1  T
   4   -738.0590213  0.294328E-05  0.209E-03    0.72       2.2  T
   5   -738.0590265 -0.514687E-05  0.585E-04    0.72       7.8  T
   6   -738.0590267 -0.254899E-06  0.192E-04    0.72      23.8  T
   7   -738.0590268 -0.606715E-07  0.630E-05    0.72      72.8  T
     SCC iter.                  ...        0 min, 10.071 sec
     gradient                   ...        0 min,  1.753 sec
 * total energy  :  -725.9510064 Eh     change       -0.8363691E-02 Eh
   gradient norm :     0.0210508 Eh/α   predicted    -0.9758222E-02 (  16.67%)
   displ. norm   :     0.8545608 α      lambda       -0.9405935E-02
   maximum displ.:     0.3961644 α      in ANC's #69, #114, #122, ...

........................................................................
.............................. CYCLE   24 ..............................
........................................................................
   1   -738.0944625 -0.738094E+03  0.409E-03    0.72       0.0  T
   2   -738.0944618  0.742275E-06  0.325E-03    0.72       1.4  T
   3   -738.0944675 -0.570025E-05  0.177E-03    0.72       2.6  T
   4   -738.0944689 -0.140876E-05  0.119E-03    0.72       3.9  T
   5   -738.0944702 -0.132976E-05  0.334E-04    0.72      13.7  T
   6   -738.0944703 -0.102240E-06  0.146E-04    0.72      31.4  T
   7   -738.0944704 -0.362580E-07  0.420E-05    0.72     109.2  T
     SCC iter.                  ...        0 min,  9.983 sec
     gradient                   ...        0 min,  1.765 sec
 * total energy  :  -725.9586623 Eh     change       -0.7655967E-02 Eh
   gradient norm :     0.0219256 Eh/α   predicted    -0.8137425E-02 (   6.29%)
   displ. norm   :     0.8675207 α      lambda       -0.7564313E-02
   maximum displ.:     0.4331990 α      in ANC's #69, #114, #108, ...

........................................................................
.............................. CYCLE   25 ..............................
........................................................................
   1   -738.1216131 -0.738122E+03  0.383E-03    0.72       0.0  T
   2   -738.1216127  0.414214E-06  0.314E-03    0.72       1.5  T
   3   -738.1216175 -0.479351E-05  0.153E-03    0.72       3.0  T
   4   -738.1216169  0.534118E-06  0.124E-03    0.72       3.7  T
   5   -738.1216188 -0.191539E-05  0.244E-04    0.72      18.8  T
   6   -738.1216189 -0.503336E-07  0.115E-04    0.72      40.0  T
   7   -738.1216189 -0.210359E-07  0.377E-05    0.72     121.5  T
     SCC iter.                  ...        0 min,  9.654 sec
     gradient                   ...        0 min,  1.728 sec
 * total energy  :  -725.9650071 Eh     change       -0.6344775E-02 Eh
   gradient norm :     0.0174885 Eh/α   predicted    -0.6628576E-02 (   4.47%)
   displ. norm   :     0.8764959 α      lambda       -0.7068700E-02
   maximum displ.:     0.4483756 α      in ANC's #69, #114, #108, ...

........................................................................
.............................. CYCLE   26 ..............................
........................................................................
   1   -738.1470938 -0.738147E+03  0.379E-03    0.72       0.0  T
   2   -738.1470945 -0.692477E-06  0.307E-03    0.72       1.5  T
   3   -738.1470986 -0.416137E-05  0.139E-03    0.72       3.3  T
   4   -738.1470972  0.143388E-05  0.129E-03    0.72       3.6  T
   5   -738.1470994 -0.222075E-05  0.272E-04    0.72      16.8  T
   6   -738.1470995 -0.649139E-07  0.103E-04    0.72      44.5  T
   7   -738.1470995 -0.149498E-07  0.365E-05    0.72     125.4  T
     SCC iter.                  ...        0 min,  9.709 sec
     gradient                   ...        0 min,  1.758 sec
 * total energy  :  -725.9705061 Eh     change       -0.5498973E-02 Eh
   gradient norm :     0.0135744 Eh/α   predicted    -0.6249595E-02 (  13.65%)
   displ. norm   :     0.8377384 α      lambda       -0.6147065E-02
   maximum displ.:     0.4564094 α      in ANC's #69, #114, #32, ...

........................................................................
.............................. CYCLE   27 ..............................
........................................................................
   1   -738.1767465 -0.738177E+03  0.359E-03    0.72       0.0  T
   2   -738.1767473 -0.820447E-06  0.263E-03    0.72       1.7  T
   3   -738.1767496 -0.222724E-05  0.128E-03    0.72       3.6  T
   4   -738.1767487  0.919821E-06  0.111E-03    0.72       4.1  T
   5   -738.1767504 -0.171230E-05  0.267E-04    0.72      17.2  T
   6   -738.1767504 -0.722399E-07  0.765E-05    0.72      59.9  T
   7   -738.1767504 -0.668945E-08  0.336E-05    0.72     136.3  T
     SCC iter.                  ...        0 min,  9.498 sec
     gradient                   ...        0 min,  1.770 sec
 * total energy  :  -725.9750576 Eh     change       -0.4551508E-02 Eh
   gradient norm :     0.0126892 Eh/α   predicted    -0.5230547E-02 (  14.92%)
   displ. norm   :     0.8062625 α      lambda       -0.5261063E-02
   maximum displ.:     0.4449747 α      in ANC's #69, #32, #114, ...

........................................................................
.............................. CYCLE   28 ..............................
........................................................................
   1   -738.2046129 -0.738205E+03  0.312E-03    0.72       0.0  T
   2   -738.2046135 -0.592455E-06  0.211E-03    0.72       2.2  T
   3   -738.2046143 -0.736069E-06  0.118E-03    0.72       3.9  T
   4   -738.2046143 -0.820239E-07  0.881E-04    0.72       5.2  T
   5   -738.2046153 -0.985905E-06  0.216E-04    0.72      21.2  T
   6   -738.2046154 -0.528939E-07  0.622E-05    0.72      73.7  T
   7   -738.2046154 -0.429930E-08  0.320E-05    0.72     143.3  T
     SCC iter.                  ...        0 min, 22.110 sec
     gradient                   ...        0 min,  2.174 sec
 * total energy  :  -725.9792147 Eh     change       -0.4157124E-02 Eh
   gradient norm :     0.0104482 Eh/α   predicted    -0.4340531E-02 (   4.41%)
   displ. norm   :     0.8278428 α      lambda       -0.4310868E-02
   maximum displ.:     0.4736561 α      in ANC's #69, #32, #34, ...

........................................................................
.............................. CYCLE   29 ..............................
........................................................................
   1   -738.2240339 -0.738224E+03  0.255E-03    0.72       0.0  T
   2   -738.2240350 -0.107839E-05  0.169E-03    0.72       2.7  T
   3   -738.2240358 -0.796224E-06  0.876E-04    0.72       5.2  T
   4   -738.2240357  0.780100E-07  0.678E-04    0.72       6.8  T
   5   -738.2240362 -0.468433E-06  0.203E-04    0.72      22.6  T
   6   -738.2240363 -0.609765E-07  0.518E-05    0.72      88.6  T
   7   -738.2240363 -0.237048E-08  0.305E-05    0.72     150.5  T
     SCC iter.                  ...        0 min, 10.186 sec
     gradient                   ...        0 min,  1.652 sec
 * total energy  :  -725.9827791 Eh     change       -0.3564371E-02 Eh
   gradient norm :     0.0114996 Eh/α   predicted    -0.3632609E-02 (   1.91%)
   displ. norm   :     0.8331332 α      lambda       -0.4381740E-02
   maximum displ.:     0.4814872 α      in ANC's #69, #32, #34, ...

........................................................................
.............................. CYCLE   30 ..............................
........................................................................
   1   -738.2400945 -0.738240E+03  0.226E-03    0.72       0.0  T
   2   -738.2400959 -0.142114E-05  0.140E-03    0.72       3.3  T
   3   -738.2400965 -0.637762E-06  0.751E-04    0.72       6.1  T
   4   -738.2400965  0.120473E-07  0.499E-04    0.72       9.2  T
   5   -738.2400966 -0.124162E-06  0.237E-04    0.72      19.3  T
   6   -738.2400967 -0.991142E-07  0.508E-05    0.72      90.3  T
   7   -738.2400967 -0.263356E-08  0.229E-05    0.72     200.2  T
     SCC iter.                  ...        0 min,  9.594 sec
     gradient                   ...        0 min,  1.747 sec
 * total energy  :  -725.9860135 Eh     change       -0.3234444E-02 Eh
   gradient norm :     0.0128166 Eh/α   predicted    -0.3711580E-02 (  14.75%)
   displ. norm   :     0.7862977 α      lambda       -0.3751351E-02
   maximum displ.:     0.4649853 α      in ANC's #69, #32, #34, ...

........................................................................
.............................. CYCLE   31 ..............................
........................................................................
   1   -738.2579272 -0.738258E+03  0.205E-03    0.72       0.0  T
   2   -738.2579281 -0.909831E-06  0.115E-03    0.72       4.0  T
   3   -738.2579284 -0.214908E-06  0.703E-04    0.72       6.5  T
   4   -738.2579284 -0.350392E-07  0.435E-04    0.72      10.5  T
   5   -738.2579285 -0.125358E-06  0.204E-04    0.72      22.5  T
   6   -738.2579286 -0.752768E-07  0.446E-05    0.72     102.8  T
   7   -738.2579286 -0.226817E-08  0.177E-05    0.72     259.5  T
     SCC iter.                  ...        0 min,  8.803 sec
     gradient                   ...        0 min,  1.725 sec
 * total energy  :  -725.9891943 Eh     change       -0.3180719E-02 Eh
   gradient norm :     0.0085289 Eh/α   predicted    -0.3035341E-02 (  -4.57%)
   displ. norm   :     0.8452196 α      lambda       -0.3573917E-02
   maximum displ.:     0.4843124 α      in ANC's #69, #32, #34, ...

........................................................................
.............................. CYCLE   32 ..............................
........................................................................
   1   -738.2708103 -0.738271E+03  0.166E-03    0.72       0.0  T
   2   -738.2708108 -0.590511E-06  0.897E-04    0.72       5.1  T
   3   -738.2708109 -0.282929E-07  0.622E-04    0.72       7.4  T
   4   -738.2708109 -0.652971E-07  0.403E-04    0.72      11.4  T
   5   -738.2708111 -0.206323E-06  0.147E-04    0.72      31.1  T
   6   -738.2708112 -0.285594E-07  0.426E-05    0.72     107.5  T
     SCC iter.                  ...        0 min,  7.452 sec
     gradient                   ...        0 min,  1.717 sec
 * total energy  :  -725.9919756 Eh     change       -0.2781382E-02 Eh
   gradient norm :     0.0109406 Eh/α   predicted    -0.3063561E-02 (  10.15%)
   displ. norm   :     0.8293498 α      lambda       -0.3310373E-02
   maximum displ.:     0.4808998 α      in ANC's #69, #32, #34, ...

........................................................................
.............................. CYCLE   33 ..............................
........................................................................
   1   -738.2776719 -0.738278E+03  0.160E-03    0.72       0.0  T
   2   -738.2776723 -0.410145E-06  0.957E-04    0.72       4.8  T
   3   -738.2776724 -0.124577E-06  0.577E-04    0.72       7.9  T
   4   -738.2776724  0.198922E-07  0.366E-04    0.72      12.5  T
   5   -738.2776726 -0.136928E-06  0.154E-04    0.72      29.8  T
   6   -738.2776726 -0.398655E-07  0.408E-05    0.72     112.5  T
     SCC iter.                  ...        0 min,  8.021 sec
     gradient                   ...        0 min,  1.707 sec
 * total energy  :  -725.9947013 Eh     change       -0.2725715E-02 Eh
   gradient norm :     0.0087935 Eh/α   predicted    -0.2793667E-02 (   2.49%)
   displ. norm   :     0.8530962 α      lambda       -0.2971651E-02
   maximum displ.:     0.4787265 α      in ANC's #69, #32, #34, ...

........................................................................
.............................. CYCLE   34 ..............................
........................................................................
   1   -738.2802125 -0.738280E+03  0.155E-03    0.72       0.0  T
   2   -738.2802130 -0.497792E-06  0.100E-03    0.72       4.6  T
   3   -738.2802133 -0.347583E-06  0.518E-04    0.72       8.8  T
   4   -738.2802133  0.490945E-08  0.330E-04    0.72      13.9  T
   5   -738.2802134 -0.796560E-07  0.159E-04    0.72      28.8  T
   6   -738.2802135 -0.341545E-07  0.458E-05    0.72     100.0  T
     SCC iter.                  ...        0 min,  7.883 sec
     gradient                   ...        0 min,  1.704 sec
 * total energy  :  -725.9970640 Eh     change       -0.2362650E-02 Eh
   gradient norm :     0.0084107 Eh/α   predicted    -0.2567168E-02 (   8.66%)
   displ. norm   :     0.8380453 α      lambda       -0.2754677E-02
   maximum displ.:     0.4623728 α      in ANC's #69, #32, #34, ...

........................................................................
.............................. CYCLE   35 ..............................
........................................................................
   1   -738.2816084 -0.738282E+03  0.167E-03    0.72       0.0  T
   2   -738.2816090 -0.608705E-06  0.103E-03    0.72       4.4  T
   3   -738.2816094 -0.418938E-06  0.516E-04    0.72       8.9  T
   4   -738.2816095 -0.233807E-07  0.349E-04    0.72      13.1  T
   5   -738.2816095 -0.698814E-07  0.177E-04    0.72      25.9  T
   6   -738.2816096 -0.494011E-07  0.562E-05    0.72      81.6  T
     SCC iter.                  ...        0 min,  7.541 sec
     gradient                   ...        0 min,  1.752 sec
 * total energy  :  -725.9991553 Eh     change       -0.2091320E-02 Eh
   gradient norm :     0.0093710 Eh/α   predicted    -0.2344665E-02 (  12.11%)
   displ. norm   :     0.8057322 α      lambda       -0.2601601E-02
   maximum displ.:     0.4288958 α      in ANC's #69, #32, #34, ...

........................................................................
.............................. CYCLE   36 ..............................
........................................................................
   1   -738.2855246 -0.738286E+03  0.178E-03    0.72       0.0  T
   2   -738.2855252 -0.614880E-06  0.101E-03    0.72       4.6  T
   3   -738.2855256 -0.361374E-06  0.583E-04    0.72       7.9  T
   4   -738.2855257 -0.142111E-06  0.342E-04    0.72      13.4  T
   5   -738.2855258 -0.467703E-07  0.180E-04    0.72      25.4  T
   6   -738.2855258 -0.547387E-07  0.518E-05    0.72      88.4  T
     SCC iter.                  ...        0 min,  9.089 sec
     gradient                   ...        0 min,  1.637 sec
 * total energy  :  -726.0010312 Eh     change       -0.1875920E-02 Eh
   gradient norm :     0.0081583 Eh/α   predicted    -0.2145289E-02 (  14.36%)
   displ. norm   :     0.7875622 α      lambda       -0.2179254E-02
   maximum displ.:     0.4066370 α      in ANC's #69, #32, #34, ...

........................................................................
.............................. CYCLE   37 ..............................
........................................................................
   1   -738.2921321 -0.738292E+03  0.168E-03    0.72       0.0  T
   2   -738.2921325 -0.469404E-06  0.112E-03    0.72       4.1  T
   3   -738.2921332 -0.639805E-06  0.586E-04    0.72       7.8  T
   4   -738.2921333 -0.139250E-06  0.432E-04    0.72      10.6  T
   5   -738.2921335 -0.160081E-06  0.170E-04    0.72      27.0  T
   6   -738.2921335 -0.332161E-07  0.591E-05    0.72      77.6  T
     SCC iter.                  ...        0 min,  7.537 sec
     gradient                   ...        0 min,  1.722 sec
 * total energy  :  -726.0027648 Eh     change       -0.1733532E-02 Eh
   gradient norm :     0.0070186 Eh/α   predicted    -0.1765479E-02 (   1.84%)
   displ. norm   :     0.7866161 α      lambda       -0.2181008E-02
   maximum displ.:     0.4008535 α      in ANC's #32, #69, #34, ...

........................................................................
.............................. CYCLE   38 ..............................
........................................................................
   1   -738.2986769 -0.738299E+03  0.181E-03    0.72       0.0  T
   2   -738.2986776 -0.640516E-06  0.125E-03    0.72       3.7  T
   3   -738.2986787 -0.109719E-05  0.580E-04    0.72       7.9  T
   4   -738.2986788 -0.111775E-06  0.428E-04    0.72      10.7  T
   5   -738.2986789 -0.131399E-06  0.200E-04    0.72      22.9  T
   6   -738.2986789 -0.468218E-07  0.597E-05    0.72      76.8  T
     SCC iter.                  ...        0 min,  8.052 sec
     gradient                   ...        0 min,  1.746 sec
 * total energy  :  -726.0040357 Eh     change       -0.1270954E-02 Eh
   gradient norm :     0.0099096 Eh/α   predicted    -0.1765265E-02 (  38.89%)
   displ. norm   :     0.6784173 α      lambda       -0.1933729E-02
   maximum displ.:     0.3503110 α      in ANC's #32, #69, #34, ...

........................................................................
.............................. CYCLE   39 ..............................
........................................................................
   1   -738.3013388 -0.738301E+03  0.159E-03    0.72       0.0  T
   2   -738.3013392 -0.332730E-06  0.118E-03    0.72       3.9  T
   3   -738.3013400 -0.858407E-06  0.525E-04    0.72       8.7  T
   4   -738.3013400  0.263155E-07  0.433E-04    0.72      10.6  T
   5   -738.3013402 -0.187092E-06  0.159E-04    0.72      28.8  T
   6   -738.3013402 -0.276519E-07  0.482E-05    0.72      95.2  T
     SCC iter.                  ...        0 min,  8.835 sec
     gradient                   ...        0 min,  1.780 sec
 * total energy  :  -726.0056174 Eh     change       -0.1581633E-02 Eh
   gradient norm :     0.0055374 Eh/α   predicted    -0.1411870E-02 ( -10.73%)
   displ. norm   :     0.7789691 α      lambda       -0.1589826E-02
   maximum displ.:     0.4377564 α      in ANC's #32, #69, #34, ...

........................................................................
.............................. CYCLE   40 ..............................
........................................................................
   1   -738.3072113 -0.738307E+03  0.172E-03    0.72       0.0  T
   2   -738.3072118 -0.512864E-06  0.114E-03    0.72       4.0  T
   3   -738.3072127 -0.912496E-06  0.538E-04    0.72       8.5  T
   4   -738.3072129 -0.156969E-06  0.389E-04    0.72      11.8  T
   5   -738.3072130 -0.106200E-06  0.167E-04    0.72      27.5  T
   6   -738.3072130 -0.288628E-07  0.520E-05    0.72      88.1  T
     SCC iter.                  ...        0 min,  8.219 sec
     gradient                   ...        0 min,  1.774 sec
 * total energy  :  -726.0069974 Eh     change       -0.1380000E-02 Eh
   gradient norm :     0.0054558 Eh/α   predicted    -0.1277267E-02 (  -7.44%)
   displ. norm   :     0.7876445 α      lambda       -0.1485278E-02
   maximum displ.:     0.4608175 α      in ANC's #32, #34, #69, ...

........................................................................
.............................. CYCLE   41 ..............................
........................................................................
   1   -738.3143483 -0.738314E+03  0.152E-03    0.72       0.0  T
   2   -738.3143487 -0.418887E-06  0.104E-03    0.72       4.4  T
   3   -738.3143495 -0.764538E-06  0.492E-04    0.72       9.3  T
   4   -738.3143496 -0.103418E-06  0.368E-04    0.72      12.5  T
   5   -738.3143497 -0.915148E-07  0.161E-04    0.72      28.5  T
   6   -738.3143497 -0.285610E-07  0.439E-05    0.72     104.4  T
     SCC iter.                  ...        0 min,  8.541 sec
     gradient                   ...        0 min,  1.749 sec
 * total energy  :  -726.0083088 Eh     change       -0.1311401E-02 Eh
   gradient norm :     0.0057706 Eh/α   predicted    -0.1203363E-02 (  -8.24%)
   displ. norm   :     0.7696220 α      lambda       -0.1400456E-02
   maximum displ.:     0.4640425 α      in ANC's #32, #34, #69, ...

........................................................................
.............................. CYCLE   42 ..............................
........................................................................
   1   -738.3207657 -0.738321E+03  0.135E-03    0.72       0.0  T
   2   -738.3207661 -0.342104E-06  0.785E-04    0.72       5.8  T
   3   -738.3207663 -0.234615E-06  0.466E-04    0.72       9.8  T
   4   -738.3207664 -0.106681E-06  0.317E-04    0.72      14.4  T
   5   -738.3207665 -0.699101E-07  0.138E-04    0.72      33.1  T
   6   -738.3207665 -0.239838E-07  0.310E-05    0.72     147.7  T
     SCC iter.                  ...        0 min,  8.039 sec
     gradient                   ...        0 min,  1.664 sec
 * total energy  :  -726.0096009 Eh     change       -0.1292188E-02 Eh
   gradient norm :     0.0047351 Eh/α   predicted    -0.1114988E-02 ( -13.71%)
   displ. norm   :     0.7721124 α      lambda       -0.1325092E-02
   maximum displ.:     0.4834749 α      in ANC's #32, #34, #36, ...
 * RMSD in coord.:     0.7193310 α      energy gain  -0.8441121E-01 Eh

generating ANC from model Hessian ...
Using Lindh-Hessian (1995)
 Shifting diagonal of input Hessian by    1.0014063621123623E-002
 Lowest  eigenvalues of input Hessian
    0.010000    0.010003    0.010005    0.010008    0.010010    0.010011
    0.010011    0.010012    0.010013    0.010013    0.010013    0.010013
    0.010013    0.010014    0.010014    0.000000    0.000000    0.000000
 Highest eigenvalues
    2.620556    2.915726    2.924330    2.924584    2.946517    2.947240


........................................................................
.............................. CYCLE   43 ..............................
........................................................................
   1   -738.3265603 -0.738327E+03  0.133E-03    0.72       0.0  T
   2   -738.3265608 -0.431516E-06  0.659E-04    0.72       7.0  T
   3   -738.3265609 -0.150453E-06  0.385E-04    0.72      11.9  T
   4   -738.3265610 -0.586336E-07  0.263E-04    0.72      17.5  T
   5   -738.3265610 -0.449802E-07  0.111E-04    0.72      41.3  T
   6   -738.3265610 -0.199545E-07  0.297E-05    0.72     154.5  T
     SCC iter.                  ...        0 min,  7.728 sec
     gradient                   ...        0 min,  1.651 sec
 * total energy  :  -726.0108359 Eh     change       -0.1234962E-02 Eh
   gradient norm :     0.0040632 Eh/α   predicted     0.0000000E+00 (-100.00%)
   displ. norm   :     0.1697026 α      lambda       -0.3350120E-03
   maximum displ.:     0.1382362 α      in ANC's #32, #34, #40, ...

........................................................................
.............................. CYCLE   44 ..............................
........................................................................
   1   -738.3286360 -0.738329E+03  0.557E-04    0.72       0.0  T
   2   -738.3286360 -0.307157E-07  0.373E-04    0.72      12.3  T
   3   -738.3286361 -0.121694E-06  0.195E-04    0.72      23.6  T
   4   -738.3286361 -0.337295E-07  0.121E-04    0.72      38.0  T
     SCC iter.                  ...        0 min,  6.511 sec
     gradient                   ...        0 min,  1.748 sec
 * total energy  :  -726.0111376 Eh     change       -0.3016509E-03 Eh
   gradient norm :     0.0033654 Eh/α   predicted    -0.1724939E-03 ( -42.82%)
   displ. norm   :     0.3859960 α      lambda       -0.7372945E-03
   maximum displ.:     0.2686366 α      in ANC's #32, #34, #40, ...

........................................................................
.............................. CYCLE   45 ..............................
........................................................................
   1   -738.3329226 -0.738333E+03  0.149E-03    0.72       0.0  T
   2   -738.3329228 -0.278531E-06  0.101E-03    0.72       4.6  T
   3   -738.3329238 -0.920131E-06  0.497E-04    0.72       9.2  T
   4   -738.3329240 -0.217359E-06  0.322E-04    0.72      14.3  T
   5   -738.3329240 -0.640324E-07  0.149E-04    0.72      30.7  T
   6   -738.3329241 -0.223964E-07  0.366E-05    0.72     125.1  T
     SCC iter.                  ...        0 min,  8.306 sec
     gradient                   ...        0 min,  1.659 sec
 * total energy  :  -726.0117895 Eh     change       -0.6519583E-03 Eh
   gradient norm :     0.0038552 Eh/α   predicted    -0.4235754E-03 ( -35.03%)
   displ. norm   :     0.5939134 α      lambda       -0.1003481E-02
   maximum displ.:     0.3979425 α      in ANC's #32, #34, #40, ...

........................................................................
.............................. CYCLE   46 ..............................
........................................................................
   1   -738.3366283 -0.738337E+03  0.175E-03    0.72       0.0  T
   2   -738.3366288 -0.505530E-06  0.123E-03    0.72       3.7  T
   3   -738.3366305 -0.165243E-05  0.494E-04    0.72       9.3  T
   4   -738.3366307 -0.230577E-06  0.334E-04    0.72      13.7  T
   5   -738.3366308 -0.794141E-07  0.156E-04    0.72      29.5  T
   6   -738.3366308 -0.180833E-07  0.444E-05    0.72     103.3  T
     SCC iter.                  ...        0 min,  8.306 sec
     gradient                   ...        0 min,  1.758 sec
 * total energy  :  -726.0126671 Eh     change       -0.8775362E-03 Eh
   gradient norm :     0.0058995 Eh/α   predicted    -0.6787212E-03 ( -22.66%)
   displ. norm   :     0.6859151 α      lambda       -0.1121431E-02
   maximum displ.:     0.4559009 α      in ANC's #32, #34, #40, ...

........................................................................
.............................. CYCLE   47 ..............................
........................................................................
   1   -738.3392691 -0.738339E+03  0.166E-03    0.72       0.0  T
   2   -738.3392696 -0.497992E-06  0.109E-03    0.72       4.2  T
   3   -738.3392706 -0.103336E-05  0.525E-04    0.72       8.7  T
   4   -738.3392708 -0.170399E-06  0.350E-04    0.72      13.1  T
   5   -738.3392709 -0.888635E-07  0.165E-04    0.72      27.8  T
   6   -738.3392709 -0.325037E-07  0.411E-05    0.72     111.5  T
     SCC iter.                  ...        0 min,  8.695 sec
     gradient                   ...        0 min,  1.674 sec
 * total energy  :  -726.0136073 Eh     change       -0.9401966E-03 Eh
   gradient norm :     0.0069224 Eh/α   predicted    -0.8245276E-03 ( -12.30%)
   displ. norm   :     0.6756841 α      lambda       -0.1029185E-02
   maximum displ.:     0.4512558 α      in ANC's #32, #34, #40, ...

........................................................................
.............................. CYCLE   48 ..............................
........................................................................
   1   -738.3429302 -0.738343E+03  0.119E-03    0.72       0.0  T
   2   -738.3429305 -0.251853E-06  0.681E-04    0.72       6.7  T
   3   -738.3429306 -0.126613E-06  0.422E-04    0.72      10.9  T
   4   -738.3429306 -0.561860E-07  0.233E-04    0.72      19.7  T
   5   -738.3429307 -0.391793E-07  0.116E-04    0.72      39.5  T
   6   -738.3429307 -0.217025E-07  0.305E-05    0.72     150.3  T
     SCC iter.                  ...        0 min,  8.160 sec
     gradient                   ...        0 min,  1.760 sec
 * total energy  :  -726.0145147 Eh     change       -0.9074960E-03 Eh
   gradient norm :     0.0069269 Eh/α   predicted    -0.7495354E-03 ( -17.41%)
   displ. norm   :     0.6829628 α      lambda       -0.1068384E-02
   maximum displ.:     0.4571123 α      in ANC's #32, #34, #40, ...

........................................................................
.............................. CYCLE   49 ..............................
........................................................................
   1   -738.3484858 -0.738348E+03  0.106E-03    0.72       0.0  T
   2   -738.3484861 -0.297770E-06  0.586E-04    0.72       7.8  T
   3   -738.3484862 -0.100229E-06  0.369E-04    0.72      12.4  T
   4   -738.3484862 -0.457007E-07  0.230E-04    0.72      19.9  T
   5   -738.3484863 -0.345429E-07  0.114E-04    0.72      40.1  T
   6   -738.3484863 -0.169553E-07  0.296E-05    0.72     154.7  T
     SCC iter.                  ...        0 min,  8.061 sec
     gradient                   ...        0 min,  1.694 sec
 * total energy  :  -726.0154592 Eh     change       -0.9444220E-03 Eh
   gradient norm :     0.0065167 Eh/α   predicted    -0.7833607E-03 ( -17.05%)
   displ. norm   :     0.7079619 α      lambda       -0.1104871E-02
   maximum displ.:     0.4791156 α      in ANC's #32, #34, #40, ...

........................................................................
.............................. CYCLE   50 ..............................
........................................................................
   1   -738.3557388 -0.738356E+03  0.146E-03    0.72       0.0  T
   2   -738.3557394 -0.548109E-06  0.959E-04    0.72       4.8  T
   3   -738.3557402 -0.771882E-06  0.463E-04    0.72       9.9  T
   4   -738.3557403 -0.142520E-06  0.294E-04    0.72      15.6  T
   5   -738.3557404 -0.466396E-07  0.167E-04    0.72      27.5  T
   6   -738.3557404 -0.313843E-07  0.401E-05    0.72     114.3  T
     SCC iter.                  ...        0 min,  8.190 sec
     gradient                   ...        0 min,  1.719 sec
 * total energy  :  -726.0164061 Eh     change       -0.9469552E-03 Eh
   gradient norm :     0.0060206 Eh/α   predicted    -0.8293242E-03 ( -12.42%)
   displ. norm   :     0.7101353 α      lambda       -0.1110632E-02
   maximum displ.:     0.4886269 α      in ANC's #32, #34, #40, ...

........................................................................
.............................. CYCLE   51 ..............................
........................................................................
   1   -738.3633219 -0.738363E+03  0.188E-03    0.72       0.0  T
   2   -738.3633226 -0.661832E-06  0.132E-03    0.72       3.5  T
   3   -738.3633242 -0.161775E-05  0.599E-04    0.72       7.7  T
   4   -738.3633244 -0.208197E-06  0.392E-04    0.72      11.7  T
   5   -738.3633245 -0.995448E-07  0.210E-04    0.72      21.8  T
   6   -738.3633246 -0.515355E-07  0.485E-05    0.72      94.6  T
   7   -738.3633246 -0.157831E-08  0.244E-05    0.72     188.1  T
     SCC iter.                  ...        0 min,  9.306 sec
     gradient                   ...        0 min,  1.784 sec
 * total energy  :  -726.0173854 Eh     change       -0.9792769E-03 Eh
   gradient norm :     0.0052116 Eh/α   predicted    -0.8353582E-03 ( -14.70%)
   displ. norm   :     0.7271245 α      lambda       -0.9586567E-03
   maximum displ.:     0.5046521 α      in ANC's #32, #34, #40, ...

........................................................................
.............................. CYCLE   52 ..............................
........................................................................
   1   -738.3660405 -0.738366E+03  0.150E-03    0.72       0.0  T
   2   -738.3660408 -0.263659E-06  0.117E-03    0.72       3.9  T
   3   -738.3660424 -0.155155E-05  0.425E-04    0.72      10.8  T
   4   -738.3660425 -0.108471E-06  0.300E-04    0.72      15.3  T
   5   -738.3660425 -0.702129E-07  0.146E-04    0.72      31.3  T
   6   -738.3660426 -0.193508E-07  0.427E-05    0.72     107.4  T
     SCC iter.                  ...        0 min,  9.620 sec
     gradient                   ...        0 min,  2.553 sec
 * total energy  :  -726.0182652 Eh     change       -0.8797703E-03 Eh
   gradient norm :     0.0048616 Eh/α   predicted    -0.7327547E-03 ( -16.71%)
   displ. norm   :     0.6987786 α      lambda       -0.8817782E-03
   maximum displ.:     0.4851097 α      in ANC's #32, #34, #40, ...

........................................................................
.............................. CYCLE   53 ..............................
........................................................................
   1   -738.3671780 -0.738367E+03  0.115E-03    0.72       0.0  T
   2   -738.3671781 -0.107128E-06  0.881E-04    0.72       5.2  T
   3   -738.3671790 -0.854690E-06  0.344E-04    0.72      13.3  T
   4   -738.3671790 -0.716285E-07  0.235E-04    0.72      19.5  T
   5   -738.3671791 -0.443897E-07  0.109E-04    0.72      42.2  T
   6   -738.3671791 -0.106386E-07  0.342E-05    0.72     133.9  T
     SCC iter.                  ...        0 min,  9.619 sec
     gradient                   ...        0 min,  1.709 sec
 * total energy  :  -726.0190210 Eh     change       -0.7558116E-03 Eh
   gradient norm :     0.0052229 Eh/α   predicted    -0.6561758E-03 ( -13.18%)
   displ. norm   :     0.6494216 α      lambda       -0.8331595E-03
   maximum displ.:     0.4510943 α      in ANC's #32, #34, #40, ...

........................................................................
.............................. CYCLE   54 ..............................
........................................................................
   1   -738.3692380 -0.738369E+03  0.809E-04    0.72       0.0  T
   2   -738.3692381 -0.108320E-06  0.497E-04    0.72       9.2  T
   3   -738.3692382 -0.151539E-06  0.272E-04    0.72      16.9  T
   4   -738.3692383 -0.453296E-07  0.165E-04    0.72      27.7  T
   5   -738.3692383 -0.203313E-07  0.782E-05    0.72      58.6  T
     SCC iter.                  ...        0 min,  6.778 sec
     gradient                   ...        0 min,  1.702 sec
 * total energy  :  -726.0197780 Eh     change       -0.7570660E-03 Eh
   gradient norm :     0.0046191 Eh/α   predicted    -0.5922724E-03 ( -21.77%)
   displ. norm   :     0.6579422 α      lambda       -0.7814585E-03
   maximum displ.:     0.4597491 α      in ANC's #32, #34, #40, ...

........................................................................
.............................. CYCLE   55 ..............................
........................................................................
   1   -738.3734298 -0.738373E+03  0.733E-04    0.72       0.0  T
   2   -738.3734299 -0.129337E-06  0.378E-04    0.72      12.1  T
   3   -738.3734300 -0.586249E-07  0.224E-04    0.72      20.5  T
   4   -738.3734300 -0.271582E-07  0.137E-04    0.72      33.4  T
   5   -738.3734300 -0.107115E-07  0.674E-05    0.72      68.0  T
     SCC iter.                  ...        0 min,  6.882 sec
     gradient                   ...        0 min,  1.702 sec
 * total energy  :  -726.0204918 Eh     change       -0.7137251E-03 Eh
   gradient norm :     0.0045133 Eh/α   predicted    -0.5598774E-03 ( -21.56%)
   displ. norm   :     0.6470540 α      lambda       -0.7551879E-03
   maximum displ.:     0.4541836 α      in ANC's #32, #34, #40, ...

........................................................................
.............................. CYCLE   56 ..............................
........................................................................
   1   -738.3784211 -0.738378E+03  0.932E-04    0.72       0.0  T
   2   -738.3784213 -0.189536E-06  0.551E-04    0.72       8.3  T
   3   -738.3784215 -0.247354E-06  0.291E-04    0.72      15.8  T
   4   -738.3784216 -0.781453E-07  0.169E-04    0.72      27.2  T
   5   -738.3784216 -0.175980E-07  0.875E-05    0.72      52.4  T
     SCC iter.                  ...        0 min,  6.788 sec
     gradient                   ...        0 min,  1.778 sec
 * total energy  :  -726.0211951 Eh     change       -0.7032898E-03 Eh
   gradient norm :     0.0038505 Eh/α   predicted    -0.5356867E-03 ( -23.83%)
   displ. norm   :     0.6471688 α      lambda       -0.7120878E-03
   maximum displ.:     0.4559029 α      in ANC's #32, #34, #40, ...

........................................................................
.............................. CYCLE   57 ..............................
........................................................................
   1   -738.3818182 -0.738382E+03  0.959E-04    0.72       0.0  T
   2   -738.3818184 -0.191375E-06  0.612E-04    0.72       7.5  T
   3   -738.3818188 -0.425267E-06  0.276E-04    0.72      16.6  T
   4   -738.3818189 -0.881647E-07  0.148E-04    0.72      30.9  T
   5   -738.3818189 -0.142912E-07  0.809E-05    0.72      56.6  T
     SCC iter.                  ...        0 min,  6.404 sec
     gradient                   ...        0 min,  1.589 sec
 * total energy  :  -726.0218660 Eh     change       -0.6709100E-03 Eh
   gradient norm :     0.0030133 Eh/α   predicted    -0.5051679E-03 ( -24.70%)
   displ. norm   :     0.6397325 α      lambda       -0.6709436E-03
[...]
   190   6 C      226   1 H                                       1.0917904
   190   6 C      227   1 H                                       1.0914598
   190   6 C      228   1 H                                       1.0895433
   191   6 C      229   1 H                                       1.0851252
   193   6 C      230   1 H                                       1.0900607
   193   6 C      231   1 H                                       1.0905503
   193   6 C      232   1 H                                       1.0924374
   194   6 C      233   1 H                                       1.0851004
   196   6 C      234   1 H                                       1.0917765
   196   6 C      235   1 H                                       1.0895552
   196   6 C      236   1 H                                       1.0915241
   198   6 C      237   1 H                                       1.0782256
   199   6 C      238   1 H                                       1.0783364
   204   6 C      239   1 H                                       1.0780802
   205   6 C      240   1 H                                       1.0780094
   207   7 N      241   1 H                                       1.0144799
   211   6 C      242   1 H                                       1.0895642
   211   6 C      243   1 H                                       1.0915361
   211   6 C      244   1 H                                       1.0917652
   212   6 C      245   1 H                                       1.0851081
   214   6 C      246   1 H                                       1.0901020
   214   6 C      247   1 H                                       1.0924829
   214   6 C      248   1 H                                       1.0904657
   215   6 C      249   1 H                                       1.0851206
   217   6 C      250   1 H                                       1.0916398
   217   6 C      251   1 H                                       1.0895332
   217   6 C      252   1 H                                       1.0916298
   219   6 C      253   1 H                                       1.0781939
   220   6 C      254   1 H                                       1.0783236
   255   6 C      256   6 C                                       1.4088852
   256   6 C      257   6 C                                       1.4189142
   257   6 C      258   6 C                                       1.3686298
   258   6 C      259   6 C                                       1.4215832
   256   6 C      260   7 N                                       1.3625330
   259   6 C      260   7 N                                       1.3692918
   259   6 C      261   6 C                                       1.3979351
   262   6 C      263   6 C                                       1.3980129
   263   6 C      265   6 C                                       1.3896369
   265   6 C      266   6 C                                       1.3914739
   266   6 C      268   6 C                                       1.3906041
   262   6 C      269   6 C                                       1.3975830
   268   6 C      269   6 C                                       1.3902343
   261   6 C      271   6 C                                       1.3928533
   271   6 C      272   6 C                                       1.4519135
   272   6 C      273   6 C                                       1.3494908
   271   6 C      274   7 N                                       1.3622755
   273   6 C      275   6 C                                       1.4497605
   274   7 N      275   6 C                                       1.3476021
   275   6 C      276   6 C                                       1.4106772
   276   6 C      277   6 C                                       1.4089562
   277   6 C      278   6 C                                       1.4189438
   278   6 C      279   6 C                                       1.3686393
   279   6 C      280   6 C                                       1.4215749
   277   6 C      281   7 N                                       1.3625253
   280   6 C      281   7 N                                       1.3693779
   280   6 C      282   6 C                                       1.3978805
   283   6 C      284   6 C                                       1.3975556
   284   6 C      286   6 C                                       1.3902304
   286   6 C      287   6 C                                       1.3906612
   287   6 C      289   6 C                                       1.3914129
   283   6 C      290   6 C                                       1.3980402
   289   6 C      290   6 C                                       1.3896441
   282   6 C      292   6 C                                       1.3929181
   292   6 C      293   6 C                                       1.4519279
   293   6 C      294   6 C                                       1.3494889
   255   6 C      295   6 C                                       1.4105738
   294   6 C      295   6 C                                       1.4497071
   292   6 C      296   7 N                                       1.3621834
   295   6 C      296   7 N                                       1.3476531
   257   6 C      297   1 H                                       1.0780770
   258   6 C      298   1 H                                       1.0779862
   260   7 N      299   1 H                                       1.0144935
   264   6 C      300   1 H                                       1.0917960
   264   6 C      301   1 H                                       1.0914595
   264   6 C      302   1 H                                       1.0895399
   265   6 C      303   1 H                                       1.0851191
   267   6 C      304   1 H                                       1.0900815
   267   6 C      305   1 H                                       1.0905029
   267   6 C      306   1 H                                       1.0924670
   268   6 C      307   1 H                                       1.0850987
   270   6 C      308   1 H                                       1.0917371
   270   6 C      309   1 H                                       1.0895519
   270   6 C      310   1 H                                       1.0915618
   272   6 C      311   1 H                                       1.0782086
   273   6 C      312   1 H                                       1.0783320
   278   6 C      313   1 H                                       1.0780784
   279   6 C      314   1 H                                       1.0779963
   281   7 N      315   1 H                                       1.0144931
   285   6 C      316   1 H                                       1.0895518
   285   6 C      317   1 H                                       1.0915249
   285   6 C      318   1 H                                       1.0917679
   286   6 C      319   1 H                                       1.0850996
   288   6 C      320   1 H                                       1.0900946
   288   6 C      321   1 H                                       1.0924976
   288   6 C      322   1 H                                       1.0904554
   289   6 C      323   1 H                                       1.0851180
   291   6 C      324   1 H                                       1.0916766
   291   6 C      325   1 H                                       1.0895413
   291   6 C      326   1 H                                       1.0915931
   293   6 C      327   1 H                                       1.0781953
   294   6 C      328   1 H                                       1.0783312
   329   6 C      330   6 C                                       1.4089442
   330   6 C      331   6 C                                       1.4189489
   331   6 C      332   6 C                                       1.3686379
   332   6 C      333   6 C                                       1.4215883
   330   6 C      334   7 N                                       1.3625300
   333   6 C      334   7 N                                       1.3693878
   333   6 C      335   6 C                                       1.3978839
   336   6 C      337   6 C                                       1.3980879
   337   6 C      339   6 C                                       1.3895865
   339   6 C      340   6 C                                       1.3914992
   340   6 C      342   6 C                                       1.3905842
   336   6 C      343   6 C                                       1.3975130
   342   6 C      343   6 C                                       1.3902890
   335   6 C      345   6 C                                       1.3929320
   345   6 C      346   6 C                                       1.4519322
   346   6 C      347   6 C                                       1.3494978
   345   6 C      348   7 N                                       1.3621721
   347   6 C      349   6 C                                       1.4496875
   348   7 N      349   6 C                                       1.3476619
   349   6 C      350   6 C                                       1.4105635
   350   6 C      351   6 C                                       1.4089055
   351   6 C      352   6 C                                       1.4189091
   352   6 C      353   6 C                                       1.3686347
   353   6 C      354   6 C                                       1.4215784
   351   6 C      355   7 N                                       1.3625264
   354   6 C      355   7 N                                       1.3692866
   354   6 C      356   6 C                                       1.3979344
   357   6 C      358   6 C                                       1.3976691
   358   6 C      360   6 C                                       1.3901217
   360   6 C      361   6 C                                       1.3907520
   361   6 C      363   6 C                                       1.3913379
   357   6 C      364   6 C                                       1.3979179
   363   6 C      364   6 C                                       1.3897521
   356   6 C      366   6 C                                       1.3928328
   366   6 C      367   6 C                                       1.4519147
   367   6 C      368   6 C                                       1.3494881
   329   6 C      369   6 C                                       1.4106848
   368   6 C      369   6 C                                       1.4497479
   366   6 C      370   7 N                                       1.3622644
   369   6 C      370   7 N                                       1.3475921
   331   6 C      371   1 H                                       1.0780792
   332   6 C      372   1 H                                       1.0779935
   334   7 N      373   1 H                                       1.0144914
   338   6 C      374   1 H                                       1.0917746
   338   6 C      375   1 H                                       1.0915125
   338   6 C      376   1 H                                       1.0895590
   339   6 C      377   1 H                                       1.0851262
   341   6 C      378   1 H                                       1.0900584
   341   6 C      379   1 H                                       1.0905278
   341   6 C      380   1 H                                       1.0924675
   342   6 C      381   1 H                                       1.0850983
   344   6 C      382   1 H                                       1.0916984
   344   6 C      383   1 H                                       1.0895416
   344   6 C      384   1 H                                       1.0915929
   346   6 C      385   1 H                                       1.0782014
   347   6 C      386   1 H                                       1.0783338
   352   6 C      387   1 H                                       1.0780766
   353   6 C      388   1 H                                       1.0779879
   355   7 N      389   1 H                                       1.0144924
   359   6 C      390   1 H                                       1.0895415
   359   6 C      391   1 H                                       1.0914798
   359   6 C      392   1 H                                       1.0917808
   360   6 C      393   1 H                                       1.0851064
   362   6 C      394   1 H                                       1.0901446
   362   6 C      395   1 H                                       1.0925314
   362   6 C      396   1 H                                       1.0903805
   363   6 C      397   1 H                                       1.0851143
   365   6 C      398   1 H                                       1.0917152
   365   6 C      399   1 H                                       1.0895449
   365   6 C      400   1 H                                       1.0915764
   367   6 C      401   1 H                                       1.0782014
   368   6 C      402   1 H                                       1.0783303
   403   6 C      404   6 C                                       1.4088778
   404   6 C      405   6 C                                       1.4191494
   405   6 C      406   6 C                                       1.3685178
   406   6 C      407   6 C                                       1.4216526
   404   6 C      408   7 N                                       1.3624532
   407   6 C      408   7 N                                       1.3695510
   407   6 C      409   6 C                                       1.3975590
   410   6 C      411   6 C                                       1.3979771
   411   6 C      413   6 C                                       1.3896692
   413   6 C      414   6 C                                       1.3914545
   414   6 C      416   6 C                                       1.3906242
   410   6 C      417   6 C                                       1.3976272
   416   6 C      417   6 C                                       1.3902023
   409   6 C      419   6 C                                       1.3931988
   419   6 C      420   6 C                                       1.4519906
   420   6 C      421   6 C                                       1.3494557
   419   6 C      422   7 N                                       1.3616259
   421   6 C      423   6 C                                       1.4497310
   422   7 N      423   6 C                                       1.3480687
   423   6 C      424   6 C                                       1.4097673
   424   6 C      425   6 C                                       1.4083887
   425   6 C      426   6 C                                       1.4190977
   426   6 C      427   6 C                                       1.3684970
   427   6 C      428   6 C                                       1.4216048
   425   6 C      429   7 N                                       1.3625708
   428   6 C      429   7 N                                       1.3691991
   428   6 C      430   6 C                                       1.3979260
   431   6 C      432   6 C                                       1.3977048
   432   6 C      434   6 C                                       1.3900816
   434   6 C      435   6 C                                       1.3908257
   435   6 C      437   6 C                                       1.3912494
   431   6 C      438   6 C                                       1.3978924
   437   6 C      438   6 C                                       1.3898053
   430   6 C      440   6 C                                       1.3927233
   440   6 C      441   6 C                                       1.4518456
   441   6 C      442   6 C                                       1.3495024
   403   6 C      443   6 C                                       1.4107035
   442   6 C      443   6 C                                       1.4498960
   440   6 C      444   7 N                                       1.3623624
   443   6 C      444   7 N                                       1.3474720
   405   6 C      445   1 H                                       1.0780809
   406   6 C      446   1 H                                       1.0779998
   408   7 N      447   1 H                                       1.0144728
   412   6 C      448   1 H                                       1.0917587
   412   6 C      449   1 H                                       1.0915408
   412   6 C      450   1 H                                       1.0895614
   413   6 C      451   1 H                                       1.0851222
   415   6 C      452   1 H                                       1.0900866
   415   6 C      453   1 H                                       1.0904818
   415   6 C      454   1 H                                       1.0924834
   416   6 C      455   1 H                                       1.0851003
   418   6 C      456   1 H                                       1.0916817
   418   6 C      457   1 H                                       1.0895522
   418   6 C      458   1 H                                       1.0916176
   420   6 C      459   1 H                                       1.0782014
   421   6 C      460   1 H                                       1.0783379
   426   6 C      461   1 H                                       1.0780728
   427   6 C      462   1 H                                       1.0779823
   429   7 N      463   1 H                                       1.0144700
   433   6 C      464   1 H                                       1.0895282
   433   6 C      465   1 H                                       1.0914549
   433   6 C      466   1 H                                       1.0918028
   434   6 C      467   1 H                                       1.0851097
   436   6 C      468   1 H                                       1.0901591
   436   6 C      469   1 H                                       1.0925525
   436   6 C      470   1 H                                       1.0903455
   437   6 C      471   1 H                                       1.0851145
   439   6 C      472   1 H                                       1.0917196
   439   6 C      473   1 H                                       1.0895574
   439   6 C      474   1 H                                       1.0915648
   441   6 C      475   1 H                                       1.0782239
   442   6 C      476   1 H                                       1.0783370

 * 4 distinct bonds (by element types)

   Z      Z             #   av. dist./Å        max./Å        min./Å
   1 H    6 C         182     1.0867697     1.0925832     1.0779823
   6 C    6 C         205     1.3880958     1.4528398     1.2239891
   1 H    7 N          12     1.0144687     1.0145470     1.0143341
   6 C    7 N          48     1.3604642     1.3701212     1.3474720


optimized geometry written to: xtbopt.xyz


           -------------------------------------------------
          | TOTAL ENERGY             -726.035142275283 Eh   |
          | GRADIENT NORM               0.000708041171 Eh/α |
          | HOMO-LUMO GAP               0.708980922479 eV   |
           -------------------------------------------------

------------------------------------------------------------------------
 * finished run on 2022/07/29 at 01:11:05.851     
------------------------------------------------------------------------
 total:
 * wall-time:     0 d,  0 h, 23 min,  2.188 sec
 *  cpu-time:     0 d,  0 h, 22 min,  2.141 sec
 * ratio c/w:     0.957 speedup
 SCF:
 * wall-time:     0 d,  0 h,  0 min, 54.882 sec
 *  cpu-time:     0 d,  0 h,  0 min, 52.794 sec
 * ratio c/w:     0.962 speedup
 ANC optimizer:
 * wall-time:     0 d,  0 h, 22 min,  6.558 sec
 *  cpu-time:     0 d,  0 h, 21 min,  8.688 sec
 * ratio c/w:     0.956 speedup

