476
 energy: -726.035142275283 gnorm: 0.000708041171 xtb: 6.5.1 (b24c23e)
C           73.33825973267781       -0.13986060553583        0.00452209989043
C           73.96152006945103       -1.37995942614746       -0.05094046715971
C           73.33434088016880       -2.65645619302128       -0.11475756465402
C           74.31616823180931       -3.60613447367426       -0.15907058487028
C           75.57439836985282       -2.93975841756130       -0.12224298232376
N           75.30985226566263       -1.60115243029146       -0.05757101934021
C           76.84208573855963       -3.52615713440521       -0.14378918367657
C           76.88114014284876       -5.01640579405060       -0.22100338713121
C           76.90473751388193       -5.64884247901670       -1.46732448299902
C           76.89777080647274       -4.82640210034261       -2.72834984192386
C           76.93788906686113       -7.03707770176683       -1.52881331766588
C           76.94910533152256       -7.80388298812145       -0.36834356883269
C           76.96391542215768       -9.30661014408932       -0.44745980258012
C           76.92630002401684       -7.16385682773621        0.86657318153716
C           76.89294272838714       -5.77692162260927        0.95172518388156
C           76.87399203020665       -5.09182927424915        2.29221356942048
C           78.05499343802235       -2.84082796175602       -0.10109027696376
C           79.34795030231861       -3.50106806887295       -0.11869303762882
C           80.27643373040574       -2.52333659179626       -0.06740184489141
N           78.21905588356104       -1.49019539212339       -0.04010552667068
C           79.54840754836520       -1.26942029247894       -0.02094416039436
C           80.18706167912489       -0.01293913038654        0.02526901721020
C           79.53829726775936        1.23555337993285        0.06312488962003
C           80.15972543743433        2.51225189551507        0.10803031358645
C           79.17409148816105        3.45969868715283        0.14124893761137
C           77.91991420561271        2.78830467071698        0.11767014142664
N           78.19218716405405        1.44638842860059        0.06983317830101
C           76.65365386259869        3.37502658820208        0.14046820431195
C           76.61046675596209        4.86575544128208        0.19580410069364
C           76.60173656898452        5.60829523651328       -0.98849187166580
C           76.64109616284378        4.90353775917448       -2.31831795169749
C           76.55811730283949        6.99605793495402       -0.92473692562339
C           76.52396098827469        7.65473051201715        0.30009370041942
C           76.45411013331214        9.15697097597926        0.35488930341515
C           76.53330061889319        6.90582663869774        1.47218785578667
C           76.57674380865198        5.51707711501609        1.43214173073368
C           76.58885086685703        4.71406929087960        2.70558532129117
C           75.43945452837849        2.68614695389148        0.11654699630611
C           74.14028554481195        3.33971306062197        0.14205284455734
C           73.21790842738839        2.35671794285099        0.10574058261000
C           73.95334285153439        1.10471892144873        0.05697839817355
N           75.28796819758512        1.34131892039680        0.06563731734407
H           72.25323480243939       -0.15393303025162        0.00296296356860
H           72.26744263022590       -2.81311888930949       -0.12559857522291
H           74.19255739202382       -4.67591295292713       -0.21224063525074
H           76.01718157018267       -0.87506390122865       -0.02069756179248
H           75.99619063812513       -4.21262035782907       -2.77616599471564
H           76.93207899038892       -5.46555272719907       -3.61010764766753
H           77.75903917468952       -4.15605220661266       -2.74786129619016
H           76.95731682777910       -7.52756590352198       -2.49657311578900
H           75.94017003869969       -9.68816132110637       -0.45687509075733
H           77.45941920914798       -9.64310796892025       -1.35842874886518
H           77.47735399984100       -9.73593060739156        0.41322522137779
H           76.93663961953386       -7.75396059830684        1.77716999431623
H           75.97841854779330       -4.47543399167603        2.39096059774457
H           76.88753823089473       -5.82056874414478        3.10209736381397
H           77.74197169813741       -4.43788371745318        2.39504200296167
H           79.49545425883429       -4.56821473537038       -0.16409278343269
H           81.35095571105481       -2.61370211854156       -0.06213994640134
H           81.22573481189460        2.67339927525878        0.11405448440229
H           79.29473723011108        4.53029455906083        0.17957825141174
H           77.48751731033644        0.71693819912495        0.04437254905259
H           76.58131759451364        5.61755484577307       -3.13914698307403
H           77.56745369466623        4.33429616778469       -2.41764036203235
H           75.80846635226092        4.20277999465601       -2.40138708401856
H           76.55141253668823        7.57217522464118       -1.84428233121739
H           76.89960915372090        9.53386390391249        1.27578532721909
H           75.41129549809735        9.48145403917805        0.32421888273188
H           76.97180778654821        9.60113598844149       -0.49569520513094
H           76.50727432522450        7.41094027388625        2.43223508751970
H           76.53828398177373        5.36580553017965        3.57727861952049
H           75.73918327942756        4.02932412877761        2.73017652239848
H           77.50056570448194        4.11675026004257        2.76809033748395
H           73.98767881899805        4.40656334549861        0.18164761237595
H           72.14216267401947        2.43828755264980        0.10927135566082
C          160.59714250614337        0.10159675357994       -0.02626176450263
C          159.97902488579942        1.33800772366759       -0.16273683647976
C          160.61182990882065        2.60624563329776       -0.29688369042944
C          159.63424447295242        3.55472995153476       -0.40875580187906
C          158.37310624737106        2.89577663095570       -0.34649025116790
N          158.63170366114272        1.56278108793984       -0.19742746411473
C          157.10817150792153        3.48365718162887       -0.42337049571095
C          157.07699986441045        4.96708667671568       -0.58684626667128
C          157.08472564506579        5.52869809040740       -1.86677696022736
C          157.11544143423677        4.63653976458653       -3.07911176504768
C          157.06088160421851        6.91145886401989       -2.00661969686800
C          157.02840011395944        7.74218164993949       -0.89141097239622
C          157.02505122177772        9.23819114634136       -1.05457026906789
C          157.01958080666049        7.17232503277466        0.37757455537400
C          157.04301893382925        5.79223777524228        0.54096413495907
C          157.02831250895395        5.18354930069731        1.91787259066515
C          155.89219225580283        2.80553520400744       -0.35990083118749
C          154.60203302094652        3.46547226023081       -0.44828312402278
C          153.66950750565260        2.49558255884297       -0.34559415751067
N          155.72247803291398        1.46269891220434       -0.20800621664151
C          154.39236423866242        1.24700013084547       -0.19439896033064
C          153.74835948584791        0.00080617199939       -0.04806773388044
C          154.39195004072289       -1.24215648903963        0.10179336127844
C          153.76507294088142       -2.50872252861777        0.24608807026489
C          154.74664345368228       -3.45512108816107        0.35160031707169
C          156.00361643556792       -2.79310698088592        0.27504672064621
N          155.73712090653459       -1.45744491221198        0.12598707204942
C          157.26719515409303       -3.38300725629038        0.33617255330360
C          157.30235659330637       -4.86685937438672        0.49159966750288
C          157.30081017269958       -5.68625157276896       -0.64100475750857
C          157.26066756266570       -5.07078846045470       -2.01442749233784
C          157.33437950839246       -7.06701067459861       -0.48575290309067
C          157.36829854583462       -7.64346988565764        0.77986695113245
C          157.42592479175678       -9.13934888317844        0.93359334416251
C          157.36968472765406       -6.81858110707639        1.89981219657182
C          157.33656820495671       -5.43517583254872        1.76814407790111
C          157.33524968143510       -4.54970590113057        2.98574202875286
C          158.48443369554971       -2.70322388578196        0.26244546783460
C          159.78083473704899       -3.35912477877973        0.33073153085447
C          160.70729843242964       -2.38431491101240        0.23149456946564
C          159.97709319291073       -1.13509531484074        0.10115173270356
N          158.64151995559550       -1.36526057331211        0.12307206899386
H          161.68220289979436        0.11200784877531       -0.02153960891895
H          161.67937445182599        2.75855892208915       -0.30552825807527
H          159.76248018660402        4.61895492297517       -0.52489767437279
H          157.92114183112116        0.84267167857041       -0.12382223038384
H          158.01738807380812        4.02142450292899       -3.07471062505148
H          157.09881265913094        5.22494258668442       -3.99599925121856
H          156.25428391331960        3.96578289776972       -3.07746905082349
H          157.06599666529092        7.34701740682172       -3.00048946278334
H          158.05123084912873        9.61320661638006       -1.06209567551631
H          156.55215324889062        9.52588572588651       -1.99382852172283
H          156.49544310697962        9.71763753143204       -0.23094273630211
H          156.99242732020997        7.81260501701075        1.25325725956857
H          157.91594497405734        4.56650120872093        2.06981568956998
H          157.00483222852665        5.95682287367093        2.68511003168632
H          156.15241323011969        4.54345550926131        2.03908122492815
H          154.45891790992820        4.52698654852539       -0.57211868059628
H          152.59534281996713        2.58813134764277       -0.36641436990271
H          152.69841077226442       -2.66445023082668        0.26444334114354
H          154.62139174313103       -4.51905313545928        0.47221729796272
H          156.44507810315625       -0.73550078281743        0.04299854741544
H          157.31383399859223       -5.83785583295059       -2.78639603514092
H          156.33692550302931       -4.50435536251585       -2.14832235886968
H          158.09662159053292       -4.38158222645530       -2.14626456550550
H          157.33285174733163       -7.70271843096398       -1.36517889212483
H          156.97862941197846       -9.45098353096179        1.87772572616201
H          158.46596476081731       -9.47385387342055        0.92346536050853
H          156.90332822772950       -9.63428533029823        0.11461664271306
H          157.39563170068902       -7.25926946662977        2.89108898585331
H          157.38520099649443       -5.14278166696710        3.89840055518677
H          158.18951853329622       -3.87069603523182        2.96179331053808
H          156.42775994602778       -3.94333237773636        3.01211252916052
H          159.92902521874990       -4.42179724001365        0.43939988976223
H          161.78270050257302       -2.46989064019577        0.24106757509057
C           85.38901145153098        0.02827949246070        0.02860482928105
C           84.16057276811084        0.02864311223270        0.03242143386540
C           82.81614024637332        0.02235898022957        0.03275469733354
C           81.59223831666561        0.00800351737795        0.03010228816122
C           86.73327534088182        0.02282576247215        0.02302743872122
C           87.95737588450515        0.01480548353776        0.01298317080530
C          101.48263840209364       -0.06044951642751       -0.05941633068640
C          100.25331011109073       -0.05744835389950       -0.05556857153925
C           98.91008229723398       -0.05306677587451       -0.05275491322057
C           97.68527863637200       -0.05106055322767       -0.04893087984452
C          102.82585425396587       -0.06362917629892       -0.06268029793566
C          104.05068570528151       -0.06481930405161       -0.06800633056735
C          117.58252095741646       -0.03506628254107       -0.04241416515849
C          116.35309372116690       -0.03584858205056       -0.04515827860419
C          115.00986839262156       -0.03857282782361       -0.05009803694656
C          113.78498966767961       -0.04310925970595       -0.05458531481337
C          118.92576388191452       -0.03681261650726       -0.04012165288620
C          120.15064785872764       -0.03988228182080       -0.03998320514261
C          133.68289544257260       -0.04648126199942       -0.04259198438390
C          132.45356885792924       -0.04357381842308       -0.03980273111633
C          131.11035068071013       -0.04105357211257       -0.03899875395892
C          129.88549218666077       -0.04256418698316       -0.03902587921847
C          135.02609795142749       -0.05323682589143       -0.04730980160895
C          136.25089750254776       -0.05979405872097       -0.05508797977420
C          149.77560255308759       -0.05413587722896       -0.05587597658022
C          148.54708971430435       -0.06944546939257       -0.05543358383061
C          147.20318575133027       -0.08279671820947       -0.05919996495838
C          145.97887806110361       -0.09059596934954       -0.06548042063048
C          151.11960874512704       -0.03714149973588       -0.05221491018525
C          152.34351464643737       -0.01629887886184       -0.05083538135091
C           89.36159108513316        0.00057522665404        0.00185326803102
C           89.99202271051155       -0.94855812831056        0.82928856283699
C           89.35636064924914       -1.89565005935092        1.67366116323549
C           90.33267507574411       -2.62072743971757        2.30115863731955
C           91.59282182428443       -2.13453417817007        1.85747844094280
N           91.33597577084356       -1.12545322113861        0.96847162404286
C           92.85252239666296       -2.59273065470491        2.25403453759942
C           92.85913434281645       -3.71222747423139        3.24193508583758
C           92.85852862889315       -5.03653195285693        2.79375315680654
C           92.85824842354432       -5.33076356478898        1.31728249083263
C           92.85530418102648       -6.07126033341551        3.72124633908130
C           92.85157165863879       -5.80707615116249        5.08745017080334
C           92.86379152821161       -6.93983049090935        6.07802203209418
C           92.85493683210225       -4.48605399257341        5.52165706147798
C           92.85807095699882       -3.43493144400880        4.61166019920740
C           92.85874894109548       -2.00747522201657        5.09011479835545
C           94.08111385756634       -2.10448751918329        1.81578083268681
C           95.35679592121564       -2.62231162242961        2.27665561199815
C           96.31039823799462       -1.91127465496553        1.63932426161031
N           94.28008328633220       -1.10031921942902        0.91692013984422
C           95.61469823788161       -0.96388330288302        0.79040683734001
C           96.28217581727218       -0.04524702125987       -0.04659450328168
C           95.65065210042445        0.88462371863692       -0.89594326629682
C           96.28577121682443        1.81204694779119       -1.76227371904145
C           95.30908789912237        2.51951938113648       -2.40913219188379
C           94.04917987925143        2.04412188316644       -1.95336936919959
N           94.30681827223911        1.05656667385253       -1.04017459909560
C           92.78952728640004        2.49834247331102       -2.35341977461431
C           92.77655078507948        3.58717378176722       -3.37486217198989
C           92.76508616410999        3.26505342073421       -4.73481522000391
C           92.76906944610529        1.82273547364193       -5.16644587645454
C           92.74661409459992        4.28562396466108       -5.67862029236894
C           92.73817345149445        5.62019352069571       -5.28786199596522
C           92.73399952937461        6.71891772380199       -6.31611711392776
C           92.75173824754829        5.92906566251964       -3.93118733470956
C           92.77041939800165        4.92531925623988       -2.97029474872432
C           92.77931054340739        5.26740374738357       -1.50422243468120
C           91.56115098635571        2.03098258157493       -1.89112339274163
C           90.28540125309314        2.55724372593535       -2.34263525010575
C           89.33228266028966        1.86690498076700       -1.68244314551625
C           90.02818866899379        0.91969848845416       -0.83361437505085
N           91.36310631129973        1.04154443963492       -0.97688660174024
H           88.28879321990325       -2.00135357060407        1.78034495888545
H           90.19981079324221       -3.42201523860370        3.00991707811955
H           92.04547176444781       -0.58647911424714        0.48341958352980
H           91.95868624419265       -4.92477958241765        0.85040887931002
H           93.72167024689307       -4.86619845078905        0.83773454284927
H           92.89178353856556       -6.40432645112777        1.13440985226325
H           92.85338210472669       -7.09924746041207        3.37377640623275
H           92.49472028801534       -6.61202650306433        7.04990833090069
H           92.24613033139596       -7.76707053109042        5.72664152294138
H           93.88328148584151       -7.31055346344287        6.20695573655713
H           92.85274452215357       -4.26999432018994        6.58502718713834
H           91.96424697540887       -1.48950480049704        4.73861986776906
H           92.88319324089160       -1.96175867044171        6.17843585005512
H           93.72774355594034       -1.47648459196331        4.69727652220746
H           95.47699203247237       -3.42070207088526        2.99128539920048
H           97.38236185061245       -1.99938309860695        1.71639647117679
H           97.35330040070261        1.91637012981860       -1.87069382599476
H           95.44114184084835        3.30318042725826       -3.13751475618707
H           93.59788928574324        0.52750627181082       -0.54350165678484
H           92.73205347086275        1.74134603258521       -6.25233516468102
H           91.90864607652158        1.29888795602336       -4.74608147462012
H           93.67138237286993        1.32262215531851       -4.80913780921855
H           92.73550895978606        4.03480650345855       -6.73428438388737
H           92.33055391909386        6.36352135875364       -7.26440360484741
H           93.75384168836604        7.07019876405129       -6.48944385498178
H           92.13861249114647        7.56624119662686       -5.97454379123520
H           92.74476848978162        6.96784315804177       -3.61753259461724
H           93.66364559382930        4.84689435743188       -1.02172828301797
H           92.78056037897217        6.34686283737917       -1.35640876473660
H           91.89968714309879        4.84779562976104       -1.01244294507517
H           90.16458573319542        3.34716647487763       -3.06646360734736
H           88.26047510231466        1.96639761336297       -1.74656278270103
C          105.45367973081721       -0.06616299497821       -0.06786922023717
C          106.08773825623499       -0.99141039705693        0.78468237165865
C          105.45581535800062       -1.92682229593118        1.64433067623921
C          106.43517106606822       -2.62848369763232        2.29370032718450
C          107.69334751950137       -2.13983561377663        1.84747888776114
N          107.43229833077892       -1.15181799620828        0.93608750057095
C          108.95453163491574       -2.58043700842596        2.25919144865785
C          108.96560059675384       -3.67616692988536        3.27335976622675
C          108.96615065209342       -5.01119462948874        2.85846149085830
C          108.95876464124363       -5.34220985735344        1.38981884230579
C          108.97199169431569       -6.02238561490571        3.81163994593439
C          108.97626724890796       -5.72405694031621        5.17075030105028
C          109.00066370627316       -6.83100219188757        6.18984250758653
C          108.97735854623012       -4.39252054462399        5.57173521763136
C          108.97151917776662       -3.36458272643327        4.63575399611678
C          108.97117611882973       -1.92559244647000        5.07829820297999
C          110.18251514783313       -2.09503336126888        1.81593120225527
C          111.45860318824670       -2.60191778438422        2.28786339468659
C          112.41178983308066       -1.89739859497682        1.64271760989931
N          110.38089354052370       -1.10356833926667        0.90300337484002
C          111.71551067736515       -0.96347060345255        0.77971187680774
C          112.38198719282371       -0.04689530425818       -0.06035272822846
C          111.74785335836957        0.87696021671921       -0.91447359796573
C          112.37972934396284        1.81364080465040       -1.77282283917558
C          111.40037656822233        2.51556121631980       -2.42193693461123
C          110.14219575586637        2.02567777557525       -1.97711113918977
N          110.40331096645491        1.03622890727868       -1.06716326380814
C          108.88100132547851        2.46763913830674       -2.38714557345880
C          108.86847156625622        3.56957456905313       -3.39454236403663
C          108.87357779139370        3.26792167664499       -4.75914510560486
C          108.89125434105767        1.83226693611705       -5.21205030422686
C          108.85985910144861        4.30254527547165       -5.68764180733258
C          108.84012307473735        5.63104863661177       -5.27699915213530
C          108.84302242812275        6.74519824502122       -6.28850732975125
C          108.83637226519105        5.91946750097582       -3.91581212836228
C          108.84991712282459        4.90146124811660       -2.96998429764533
C          108.84104952642039        5.22183392839120       -1.49899611835219
C          107.65301727579254        1.98074225766342       -1.94532301194139
C          106.37689783403258        2.48793217006593       -2.41688613754512
C          105.42374383117426        1.78322950044434       -1.77189664197953
C          106.12008413297748        0.84889963673935       -0.90946507369861
N          107.45475016394974        0.98835694923615       -1.03350891071212
H          104.38865820994204       -2.04102511660675        1.74622848957812
H          106.30561840429088       -3.41570653026687        3.01864888752667
H          108.13862845027414       -0.61504351064558        0.44398206249544
H          108.05366087955640       -4.95387796557616        0.91864613312233
H          109.81612106808979       -4.88414311648481        0.89343353036641
H          108.99822167981756       -6.41976317665695        1.23355332582558
H          108.97163314504215       -7.05873850805996        3.48999456170018
H          108.62212689705675       -6.48407284365858        7.15141791900816
H          108.39750809615512       -7.67641459556659        5.85716009167548
H          110.02516978801884       -7.18229960533086        6.33288600026538
H          108.98108125934556       -4.14991526294590        6.62935889091936
H          108.08010130596935       -1.41508040423847        4.70782175721217
H          108.98861993986804       -1.85266856916135        6.16526693833632
H          109.84384199978130       -1.40605078056154        4.67825111159819
H          111.57944720077782       -3.38996522856675        3.01375016811591
H          113.48380315488890       -1.98112872323623        1.72381195978067
H          113.44688103531408        1.92849561963959       -1.87405797635723
H          111.52988200398930        3.30400912157047       -3.14557643023486
H          109.69689851055965        0.49890927900838       -0.57577228712815
H          108.86478355225410        1.76680080641467       -6.29931124624377
H          108.03060741091556        1.29651069494578       -4.80747827022098
H          109.79364960892653        1.33297347922053       -4.85379654914592
H          108.86211566141043        4.06767416753112       -6.74701493366786
H          108.44654870637838        6.40417441864038       -7.24496815854718
H          109.86407033675935        7.09904378035116       -6.44914777453224
H          108.24511877115677        7.58725227534564       -5.93843746311701
H          108.82034323516478        6.95331037172107       -3.58658140275737
H          109.72696460565784        4.80657045572910       -1.01477687109595
H          108.82614983480700        6.29891766214408       -1.33538476926035
H          107.96314153306506        4.78293439285911       -1.02127229870284
H          106.25588064108605        3.27568365527190       -3.14304543553714
H          104.35172410842128        1.86680355835726       -1.85305730732436
C          121.55364945283090       -0.04395885958243       -0.04022103040612
C          122.18668333537448       -0.97449913672287        0.80741468162350
C          121.55369538293108       -1.91362408433742        1.66227493630107
C          122.53220250059240       -2.62497668806653        2.30233013934202
C          123.79098574174208       -2.13802605012254        1.85594828612073
N          123.53103802565604       -1.14110518182863        0.95384040506785
C          125.05164457307160       -2.58735112873076        2.25958832777185
C          125.06304113554081       -3.69885018302623        3.25644768667648
C          125.06070823540442       -5.02664657497323        2.81872562038046
C          125.04759292440616       -5.33267856482848        1.34470062330643
C          125.07070347601807       -6.05398888656067        3.75436350794018
C          125.08221129072668       -5.77897133723831        5.11836592688828
C          125.11270620280064       -6.90366584324885        6.11766735811043
C          125.08540566226975       -4.45451994333502        5.54209027277520
C          125.07543967089465       -3.41064953092401        4.62386459112875
C          125.07921570399400       -1.97938392184365        5.09072237885748
C          126.28032117051303       -2.09906324676582        1.82119586853951
C          127.55569790553128       -2.61051323468479        2.29017332984184
C          128.50989374524607       -1.90075886979621        1.65228391418330
N          126.48005140172947       -1.10044794295193        0.91654801331709
C          127.81492580737664       -0.96041288710802        0.79533448217137
C          128.48250952125460       -0.04245196968867       -0.04214309493658
C          127.84945765006408        0.88119383149748       -0.89720920593108
C          128.48246161749660        1.81258518492243       -1.76041181487471
C          127.50391772793260        2.51053771863226       -2.41499152132881
C          126.24518952016464        2.02430287074890       -1.96770654270075
N          126.50509330074139        1.04103966367755       -1.05087023873724
C          124.98457272066132        2.46481482864174       -2.38124580878412
C          124.97506791381251        3.55149909216409       -3.40509455741991
C          124.97366686025082        3.22672840176098       -4.76450642105369
C          124.97899016746845        1.78356568720048       -5.19326337684507
C          124.96667210377265        4.24551635862343       -5.71026543406609
C          124.96007562164981        5.58097396709496       -5.32206432370032
C          124.97280238030140        6.67673793307962       -6.35338055757222
C          124.96165094386983        5.89238867742724       -3.96602632137664
C          124.96867054848975        4.89034708306886       -3.00307564719307
C          124.96707365388504        5.23520040315147       -1.53761438243437
C          123.75590731579177        1.98717243260934       -1.93155482141380
C          122.48054827118121        2.49824595538571       -2.40093632484070
C          121.52637772036776        1.80259240861993       -1.74768107211540
C          122.22133674245215        0.86846525995269       -0.88384838277549
N          123.55614012343624        1.00108099081545       -1.01314273602461
H          120.48639856328070       -2.02406843003798        1.76684100523978
H          122.40174368951274       -3.41738217149406        3.02145720875311
H          124.23809577264987       -0.60435804684398        0.46275542665270
H          124.14528001940569       -4.92843876981279        0.88167463330247
H          125.90826329539182       -4.87392921270586        0.85460384797451
H          125.07740100346528       -6.40776008203139        1.17020209751407
H          125.06855978091104       -7.08468832136856        3.41502181699984
H          124.75073553072335       -6.57099859232742        7.09056857374503
H          124.49835984623577       -7.73860310218014        5.77898018340513
H          126.13641834351959       -7.26515367321996        6.23942556770820
H          125.09467676106475       -4.23006683978726        6.60368012397628
H          124.19101587318652       -1.45924165468086        4.72691172537526
H          125.09463529995118       -1.92488995448513        6.17879099525923