262
 energy: -453.666097150746 gnorm: 8.953507556340 xtb: 6.5.1 (b24c23e)
Ni          40.10622700000000       -0.03631400000000        0.03441300000000
C           36.76463300000000        0.10697400000000        0.02491100000000
C           37.42690199999999        1.14604800000000       -0.49187900000000
C           36.77635400000000        2.29390400000000       -1.11206400000000
C           37.71656800000000        3.14238900000000       -1.48450800000000
C           39.02149099999999        2.58152500000000       -1.10764100000000
N           38.84433800000000        1.30802000000000       -0.48587900000000
C           40.21361300000000        3.18363900000000       -1.30027900000000
C           40.26333700000000        4.52917200000000       -1.91700000000000
C           40.82027700000000        4.69715100000000       -3.19368200000000
C           40.88353500000000        5.96815600000000       -3.77233900000000
C           40.39452800000000        7.08469400000000       -3.07940900000000
N           40.45943699999999        8.38451100000000       -3.67191800000000
C           39.84347800000000        6.91878900000000       -1.80085500000000
C           39.78056300000000        5.64843800000000       -1.22084000000000
C           41.50480100000000        2.55851100000000       -0.91021100000000
C           42.78825700000000        3.27115200000000       -0.90404100000000
C           43.72277100000000        2.41578200000000       -0.54215400000000
N           41.64746399999999        1.31662100000000       -0.56129300000000
C           43.04265600000000        1.14739000000000       -0.31062500000000
C           43.63685400000000       -0.01074500000000        0.01978200000000
C           42.87327100000000       -1.25675600000000        0.25258600000000
C           43.40379200000000       -2.47294100000000        0.23273500000000
C           42.36089599999999       -3.40454100000000        0.61647900000000
C           41.26326300000000       -2.69446200000000        0.85024800000000
N           41.49710900000000       -1.30262000000000        0.62982200000000
C           39.98464900000000       -3.26548600000000        1.34575800000000
C           40.00746899999999       -4.60347200000000        1.98566800000000
C           40.74642100000000       -4.80743800000000        3.16119800000000
C           40.78739700000000       -6.07109200000000        3.75765900000000
C           40.09521400000000       -7.14616200000000        3.18271800000000
N           40.13761200000000       -8.43851800000000        3.79332600000000
C           39.36375499999999       -6.94660200000000        2.00351200000000
C           39.32270200000000       -5.68365000000000        1.40570000000000
C           38.82259199999999       -2.59437600000000        1.22966900000000
C           37.51526000000000       -3.03701000000000        1.71161400000000
C           36.65359800000000       -2.11042600000000        1.33890700000000
C           37.40205600000000       -1.07159600000000        0.63326200000000
N           38.66691600000000       -1.34305600000000        0.56347700000000
H           35.68127000000000        0.12493700000000        0.00145200000000
H           35.71304200000000        2.43744600000000       -1.25531300000000
H           37.52876800000000        4.08425800000000       -1.98310200000000
H           41.20333800000000        3.84353200000000       -3.73947500000000
H           41.31388300000000        6.08307900000000       -4.75919900000000
H           40.86876700000000        8.51845700000000       -4.62343000000000
H           40.09844600000000        9.22241400000000       -3.16351000000000
H           39.46528400000000        7.77322400000000       -1.25385700000000
H           39.35788600000000        5.53547500000000       -0.22997200000000
H           42.95917600000000        4.31155100000000       -1.14749000000000
H           44.77654499999999        2.64103000000000       -0.44601400000000
H           44.42947399999999       -2.72818900000000        0.00232700000000
H           42.46964299999999       -4.47651700000000        0.71864600000000
H           41.28740300000000       -3.98667600000000        3.61618800000000
H           41.35877700000000       -6.21264300000000        4.66640000000000
H           40.68060200000000       -8.59742700000000        4.67126300000000
H           39.62611200000000       -9.24585100000000        3.37207700000000
H           38.82869000000000       -7.76959300000000        1.54667100000000
H           38.76126500000000       -5.54708100000000        0.48953500000000
H           37.27342399999999       -3.93506100000000        2.26457800000000
H           35.58904500000000       -2.12667000000000        1.53229800000000
Ni          95.28235999999998        0.01557700000000        0.00655400000000
C           98.62395399999998       -0.07151300000000        0.12073400000000
C           97.96168499999999       -1.07637000000000        0.70125800000000
C           98.61223400000000       -2.22751200000000        1.31532200000000
C           97.67201900000001       -3.00675300000000        1.81674600000000
C           96.36709599999999       -2.38274400000000        1.55749600000000
N           96.54424899999998       -1.16086300000000        0.83957600000000
C           95.17497400000001       -2.87599000000000        1.95291900000000
C           95.12524999999998       -4.13346600000000        2.73366000000000
C           94.56830999999998       -5.29038800000000        2.16827000000000
C           94.50505200000001       -6.47495900000000        2.90792400000000
C           94.99405899999999       -6.51432200000000        4.22141600000000
N           94.92915000000001       -7.72635800000000        4.97743100000000
C           95.54510900000000       -5.35698600000000        4.78956800000000
C           95.60802399999999       -4.17164400000000        4.05121000000000
C           93.88378599999999       -2.20547100000000        1.64740000000000
C           92.60033000000000       -2.59408100000000        2.24479200000000
C           91.66581700000000       -1.81983600000000        1.73179700000000
N           93.74112300000000       -1.22847300000000        0.80507700000000
C           92.34593099999998       -0.92603700000000        0.80252400000000
C           91.75173300000000       -0.01074500000000        0.01978200000000
C           92.51531600000000        0.87175000000000       -0.89013300000000
C           91.98479499999999        1.52717800000000       -1.91478600000000
C           93.02769100000000        2.36176100000000       -2.47924200000000
C           94.12532400000001        2.16426900000000       -1.75823000000000
N           93.89147799999999        1.21151600000000       -0.71992700000000
C           95.40393800000000        2.89278000000000       -1.96039400000000
C           95.38111800000000        4.16541400000000       -2.72203300000000
C           94.64216600000000        5.25790900000000       -2.24252600000000
C           94.60119000000000        6.45325900000000       -2.96621700000000
C           95.29337299999999        6.56805300000000       -4.17995200000000
N           95.25097500000000        7.79105200000000       -4.91974800000000
C           96.02483200000000        5.47492700000000       -4.66516200000000
C           96.06588499999998        4.27884000000000       -3.94280400000000
C           96.56599499999999        2.42521400000000       -1.46516900000000
C           97.87332700000000        3.07148000000000       -1.56781600000000
C           98.73498900000000        2.24886800000000       -1.00144200000000
C           97.98653099999999        1.08673600000000       -0.52546900000000
N           96.72167100000000        1.17855900000000       -0.79028800000000
H           99.70731700000000       -0.10099100000000        0.12274500000000
H           99.67554500000000       -2.42622000000000        1.35581500000000
H           97.85981899999999       -3.94273500000000        2.32630300000000
H           94.18524899999998       -5.27365800000000        1.15521700000000
H           94.07470399999998       -7.36100100000000        2.45844600000000
H           94.51982099999999       -8.59344800000000        4.56333900000000
H           95.29014100000001       -7.76556600000000        5.95672800000000
H           95.92330300000000       -5.37316300000000        5.80396700000000
H           96.03070099999999       -3.28334500000000        4.50453700000000
H           92.42941199999999       -3.37184200000000        2.97744800000000
H           90.61204200000000       -1.86415800000000        1.97266000000000
H           90.95911300000000        1.47616500000000       -2.25484000000000
H           92.91894400000000        3.03921100000000       -3.31627900000000
H           94.10118399999999        5.18364900000000       -1.30703100000000
H           94.02981000000000        7.28890100000000       -2.58209500000000
H           94.70798499999998        8.61061000000000       -4.56711600000000
H           95.76247499999999        7.88601500000000       -5.82540800000000
H           96.55989700000001        5.54887700000000       -5.60353800000000
H           96.62732200000001        3.43976200000000       -4.33517900000000
H           98.11516299999998        4.02857000000000       -2.01081000000000
H           99.79954200000000        2.41903400000000       -0.90812800000000
C           45.71401900000000        0.00394500000000        0.03005800000000
C           47.17224600000000       -0.01789100000000        0.01218400000000
C           48.30617400000000       -0.03864500000000        0.01069300000000
C           49.66755500000000       -0.05123500000000        0.00850200000000
C           50.94177400000000       -0.04092800000000        0.00373700000000
C           52.13023700000000       -0.02213000000000       -0.00241900000000
C           53.48259700000000        0.00265400000000        0.01344900000000
C           54.58286500000000        0.00394500000000        0.03005800000000
C           63.19785200000000        0.00394500000000        0.03005800000000
C           64.65607900000001       -0.01789100000000        0.01218400000000
C           65.79000700000000       -0.03864500000000        0.01069300000000
C           67.15138899999999       -0.05123500000000        0.00850200000000
C           68.42560700000000       -0.04092800000000        0.00373700000000
C           69.61407000000000       -0.02213000000000       -0.00241900000000
C           70.96643100000000        0.00265400000000        0.01344900000000
C           72.06669800000000        0.00394500000000        0.03005800000000
C           80.68168600000000        0.00394500000000        0.03005800000000
C           82.13991200000000       -0.01789100000000        0.01218400000000
C           83.27383999999999       -0.03864500000000        0.01069300000000
C           84.63522200000000       -0.05123500000000        0.00850200000000
C           85.90944099999999       -0.04092800000000        0.00373700000000
C           87.09790299999999       -0.02213000000000       -0.00241900000000
C           88.45026400000000        0.00265400000000        0.01344900000000
C           89.55053100000001        0.00394500000000        0.03005800000000
Ni          58.98519000000000       -0.04617900000000        0.05561400000000
C           55.50100400000000        0.01012500000000       -0.02623000000000
C           56.15786400000000        1.12002000000000       -0.41017700000000
C           55.51313900000000        2.35210600000000       -0.87029600000000
C           56.45116299999999        3.24770400000000       -1.10480500000000
C           57.75401099999999        2.63991400000000       -0.81503700000000
N           57.57759299999999        1.28989400000000       -0.37752800000000
C           58.93804699999999        3.28227400000000       -0.90204800000000
C           58.95942500000000        4.70236900000000       -1.31616400000000
C           58.82575299999999        5.04566300000000       -2.66998600000000
C           58.84278000000000        6.38840400000000       -3.05910800000000
C           58.99636800000000        7.39979200000000       -2.09943400000000
N           59.01429500000000        8.77311900000000       -2.49822300000000
C           59.13202200000000        7.05570200000000       -0.74636900000000
C           59.11291700000000        5.71344700000000       -0.35599600000000
C           60.24153600000000        2.63846500000000       -0.59789000000000
C           61.52045099999999        3.35956900000000       -0.56343700000000
C           62.47193799999999        2.48282200000000       -0.31755700000000
N           60.40497900000000        1.36850000000000       -0.38942900000000
C           61.80922600000000        1.19033800000000       -0.20149700000000
C           62.42431700000000        0.01012500000000       -0.02623000000000
C           61.67895899999999       -1.26430300000000        0.06890100000000
C           62.22745999999999       -2.46393500000000       -0.07644400000000
C           61.19493700000000       -3.44444200000000        0.19373800000000
C           60.08503699999999       -2.77780500000000        0.48892500000000
N           60.29956100000000       -1.36811800000000        0.42095900000000
C           58.81982099999999       -3.41407100000000        0.93106500000000
C           58.87300400000000       -4.80208600000000        1.45082800000000
C           58.22804200000000       -5.84500800000000        0.76462400000000
C           58.29419100000000       -7.15412900000000        1.25091200000000
C           59.00983500000000       -7.43607300000000        2.42416600000000
N           59.07399999999999       -8.77471700000000        2.92378400000000
C           59.66307399999999       -6.39703700000000        3.10441800000000
C           59.59878299999999       -5.08791500000000        2.61780700000000
C           57.64387300000000       -2.75849000000000        0.88837100000000
C           56.36127900000000       -3.27233700000000        1.35799400000000
C           55.47301100000000       -2.33651400000000        1.09453400000000
C           56.17644700000000       -1.21613900000000        0.45980600000000
N           57.44619700000000       -1.45492200000000        0.33926200000000
H           54.45377700000000        2.53391700000000       -0.99417600000000
H           56.26176599999999        4.25835300000000       -1.44419400000000
H           58.70661700000000        4.27336300000000       -3.42050900000000
H           58.73682899999999        6.64056400000000       -4.10692200000000
H           58.91518800000000        9.03914400000000       -3.50331600000000
H           59.13179200000000        9.53332900000000       -1.79126000000000
H           59.25249500000000        7.82717500000000        0.00416200000000
H           59.21841000000000        5.46045100000000        0.69219900000000
H           61.67942599999999        4.41868900000000       -0.71684300000000
H           63.52700100000000        2.70763100000000       -0.23704000000000
H           63.25877200000000       -2.68004700000000       -0.32018000000000
H           61.32065599999999       -4.51960600000000        0.19212400000000
H           57.67687200000000       -5.64277000000000       -0.14619200000000
H           57.78958500000000       -7.94841000000000        0.71327600000000
H           59.60391100000000       -8.99483800000000        3.79696300000000
H           58.58864299999999       -9.55517900000000        2.42691800000000
H           60.22160000000000       -6.60159400000000        4.01048700000000
H           60.10940599999999       -4.29552200000000        3.15296700000000
H           56.15365900000000       -4.21991400000000        1.83789000000000
H           54.41857100000000       -2.40356100000000        1.32583500000000
Ni          76.46902300000001       -0.04617900000000        0.05561400000000
C           72.98483700000000        0.01012500000000       -0.02623000000000
C           73.64169699999999        1.12002000000000       -0.41017700000000
C           72.99697200000000        2.35210600000000       -0.87029600000000
C           73.93499600000000        3.24770400000000       -1.10480500000000
C           75.23784499999999        2.63991400000000       -0.81503700000000
N           75.06142600000000        1.28989400000000       -0.37752800000000
C           76.42188000000000        3.28227400000000       -0.90204800000000
C           76.44325900000000        4.70236900000000       -1.31616400000000
C           76.30958600000000        5.04566300000000       -2.66998600000000
C           76.32661299999999        6.38840400000000       -3.05910800000000
C           76.48020199999999        7.39979200000000       -2.09943400000000
N           76.49812799999999        8.77311900000000       -2.49822300000000
C           76.61585500000000        7.05570200000000       -0.74636900000000
C           76.59675000000000        5.71344700000000       -0.35599600000000
C           77.72537000000000        2.63846500000000       -0.59789000000000
C           79.00428400000000        3.35956900000000       -0.56343700000000
C           79.95577100000000        2.48282200000000       -0.31755700000000
N           77.88881200000000        1.36850000000000       -0.38942900000000
C           79.29305900000000        1.19033800000000       -0.20149700000000
C           79.90815099999999        0.01012500000000       -0.02623000000000
C           79.16279200000000       -1.26430300000000        0.06890100000000
C           79.71129300000000       -2.46393500000000       -0.07644400000000
C           78.67877099999998       -3.44444200000000        0.19373800000000
C           77.56887000000000       -2.77780500000000        0.48892500000000
N           77.78339400000000       -1.36811800000000        0.42095900000000
C           76.30365399999999       -3.41407100000000        0.93106500000000
C           76.35683699999998       -4.80208600000000        1.45082800000000
C           75.71187600000000       -5.84500800000000        0.76462400000000
C           75.77802400000000       -7.15412900000000        1.25091200000000
C           76.49366800000000       -7.43607300000000        2.42416600000000
N           76.55783300000000       -8.77471700000000        2.92378400000000
C           77.14690700000000       -6.39703700000000        3.10441800000000
C           77.08261600000000       -5.08791500000000        2.61780700000000
C           75.12770700000000       -2.75849000000000        0.88837100000000
C           73.84511200000000       -3.27233700000000        1.35799400000000
C           72.95684499999999       -2.33651400000000        1.09453400000000
C           73.66028100000000       -1.21613900000000        0.45980600000000
N           74.93003000000000       -1.45492200000000        0.33926200000000
H           71.93761000000001        2.53391700000000       -0.99417600000000
H           73.74559900000000        4.25835300000000       -1.44419400000000
H           76.19045000000000        4.27336300000000       -3.42050900000000
H           76.22066300000000        6.64056400000000       -4.10692200000000
H           76.39902099999999        9.03914400000000       -3.50331600000000
H           76.61562499999999        9.53332900000000       -1.79126000000000
H           76.73632799999999        7.82717500000000        0.00416200000000
H           76.70224399999999        5.46045100000000        0.69219900000000
H           79.16325899999998        4.41868900000000       -0.71684300000000
H           81.01083400000000        2.70763100000000       -0.23704000000000
H           80.74260500000000       -2.68004700000000       -0.32018000000000
H           78.80448900000000       -4.51960600000000        0.19212400000000
H           75.16070600000000       -5.64277000000000       -0.14619200000000
H           75.27341799999999       -7.94841000000000        0.71327600000000
H           77.08774400000000       -8.99483800000000        3.79696300000000
H           76.07247700000001       -9.55517900000000        2.42691800000000
H           77.70543300000000       -6.60159400000000        4.01048700000000
H           77.59323900000000       -4.29552200000000        3.15296700000000
H           73.63749199999999       -4.21991400000000        1.83789000000000
H           71.90240500000000       -2.40356100000000        1.32583500000000
262
 energy: -456.806354075274 gnorm: 1.781273679177 xtb: 6.5.1 (b24c23e)
Ni          40.10741368039762       -0.03605401780255        0.03437469317024
C           36.76477348550669        0.10368932620671        0.02664077113277
C           37.42910094359993        1.14712710713831       -0.49242342688840
C           36.77573924305042        2.29269788038504       -1.11150961930685
C           37.71827131703248        3.14305430324682       -1.48473282439721
C           39.02040423556068        2.57957639771902       -1.10692721155526
N           38.84180713133003        1.30984004555736       -0.48677895190683
C           40.21677085584685        3.18317344669451       -1.29977090720853
C           40.26363774308516        4.52952427364333       -1.91699310145994
C           40.82014262057873        4.69810133051638       -3.19344294905677
C           40.88336660745622        5.96791393895603       -3.77192066503274
C           40.39462256918272        7.08660665164409       -3.08028251170280
N           40.45941220855785        8.38406027211546       -3.67171271916015
C           39.84358391188312        6.91830268579476       -1.80095764070484
C           39.78075393304274        5.64883469063494       -1.22172704576405
C           41.50289579638198        2.56186965286070       -0.91159335147105
C           42.78596832134929        3.27267249304353       -0.90491966337133
C           43.72335803246409        2.41413643272881       -0.54160920340142
N           41.64831523859260        1.31428006991952       -0.55996192567929
C           43.04353178365466        1.14785366122764       -0.31061888921596
C           43.64012200386259       -0.01324479008197        0.02002479045050
C           42.87267109345345       -1.25196645646112        0.25287955907206
C           43.40386577240542       -2.47799144716545        0.23344566211591
C           42.36564392974356       -3.40521638008330        0.61550196503506
C           41.25944581776690       -2.69164616632003        0.85131211276169
N           41.49742412420545       -1.30348887573357        0.62901314494120
C           39.98715049690044       -3.26475152171915        1.34510217858419
C           40.00785355638776       -4.60355664576979        1.98543715567535
C           40.74621423080267       -4.80836123861537        3.16101613159048
C           40.78717828798820       -6.07077688078183        3.75725977502921
C           40.09527746631154       -7.14811772788552        3.18364321751697
N           40.13759116010895       -8.43802965377777        3.79309608288751
C           39.36391357341657       -6.94608826428402        2.00355416575848
C           39.32295295567764       -5.68401743354258        1.40654893238660
C           38.82176008659061       -2.59376506339884        1.22955440374099
C           37.51713352949506       -3.03774533182032        1.71170314513823
C           36.65216024625818       -2.10847508037809        1.33795951266768
C           37.39814843412870       -1.06938380196222        0.63237601697659
N           38.66913401680244       -1.34406798082515        0.56415551661425
H           35.68129241087022        0.12476727110950        0.00162387737310
H           35.71307748715424        2.43700291388420       -1.25508972854538
H           37.52935650315085        4.08427892158281       -1.98306451715431
H           41.20329662818147        3.84354021155221       -3.73940452699727
H           41.31387823130954        6.08313186501023       -4.75923074352884
H           40.86784581358609        8.51801526830811       -4.62123565802920
H           40.09924850495760        9.22039766630857       -3.16458256334619
H           39.46529573790771        7.77328373367220       -1.25387395550650
H           39.35792864857648        5.53542281880740       -0.23002044991262
H           42.95867422452938        4.31159964635984       -1.14758479243045
H           44.77649412093353        2.64039648391435       -0.44585249588348
H           44.42938773597373       -2.72827459502165        0.00234756256653
H           42.46978534874147       -4.47641646940681        0.71855056325271
H           41.28735301802595       -3.98668335408784        3.61611899186732
H           41.35876790197018       -6.21268685562075        4.66642971409232
H           40.67938654213997       -8.59692953191248        4.66923163307698
H           39.62725343307493       -9.24390559371860        3.37295048251840
H           38.82870360520111       -7.76964619421851        1.54668159982017
H           38.76132019207088       -5.54703242205092        0.48956976582912
H           37.27398652387764       -3.93505133109944        2.26448438091591
H           35.58901821465949       -2.12627432927166        1.53209110820568
Ni          95.28116475241829        0.01540410707789        0.00674734227635
C           98.62380894625670       -0.06826655491836        0.11895802617450
C           97.95949451536271       -1.07740970343589        0.70185097217204
C           98.61284553476156       -2.22639135624242        1.31462734089010
C           97.67032817981259       -3.00730671405340        1.81717518717363
C           96.36817328017092       -2.38106086796408        1.55625897760789
N           96.54677146981963       -1.16262383579937        0.84060161231890
C           95.17182868478052       -2.87531154841319        1.95281413527134
C           95.12494759132677       -4.13365663443251        2.73395831442447
C           94.56844367024549       -5.29071494392040        2.16919391330633
C           94.50521969651419       -6.47447641385494        2.90795247519182
C           94.99396468811831       -6.51611214684285        4.22253066855818
N           94.92917367363209       -7.72593311164965        4.97716630022759
C           95.54500360622603       -5.35680111712642        4.78910603729308
C           95.60783311663685       -4.17260289766876        4.05105265839839
C           93.88569881242964       -2.20842250947239        1.64938940163907
C           92.60256696651764       -2.59563661279051        2.24556863096716
C           91.66521998224765       -1.81849960402544        1.73075888479250
N           93.74038436241015       -1.22616756762525        0.80389098322576
C           92.34492282573390       -0.92608794669975        0.80276009314439
C           91.74952039052474       -0.00912577057495        0.01788033544128
C           92.51591270987718        0.86923560175574       -0.88588536713069
C           91.98472220958550        1.53057930218318       -1.91862281050596
C           93.02291500296097        2.36131085156520       -2.48034682566337
C           94.12915628315288        2.16359112931566       -1.75527845773409
N           93.89121506050905        1.21136072511767       -0.72111052989745
C           95.40143101355041        2.89182952348509       -1.96014648344763
C           95.38073278607256        4.16526770484607       -2.72223120882439
C           94.64237068132763        5.25826922266088       -2.24339611229761
C           94.60140787440258        6.45275108494571       -2.96617281856219
C           95.29330936918579        6.56991328872296       -4.18107602060599
N           95.25099593383513        7.79058315983830       -4.91946354717050
C           96.02467442439411        5.47467541453008       -4.66471035905499
C           96.06563597782126        4.27975169760179       -3.94264367717086
C           96.56682925782964        2.42477706668010       -1.46471960604543
C           97.87145346577880        3.07195989625246       -1.56837924653202
C           98.73642648289295        2.24699996090919       -1.00033947298104
C           97.99043733285406        1.08477897767068       -0.52411693354533
N           96.71945249827371        1.17968425196613       -0.79075735618461
H           99.70729378487565       -0.10075438952375        0.12269835825735
H           99.67550869458471       -2.42578931176530        1.35556921784108
H           97.85923041090840       -3.94271491208242        2.32634082087739
H           94.18529055840602       -5.27360403113184        1.15526240430422
H           94.07470893325072       -7.36105643865924        2.45847234051522
H           94.52074282355476       -8.59137529010747        4.56418312803000
H           95.28933911505672       -7.76534601169109        5.95445482133226
H           95.92329122783373       -5.37320989715367        5.80400673290173
H           96.03065831906208       -3.28335662575769        4.50446665588331
H           92.42991335373993       -3.37194924457990        2.97743635572646
H           90.61210803252638       -1.86369472662035        1.97223980132179
H           90.95921006957371        1.47623899045213       -2.25490982891074
H           92.91880163033393        3.03907585083768       -3.31624807066043
H           94.10123405719892        5.18359568505326       -1.30707486570072
H           94.02981938049743        7.28894946470732       -2.58211487582025
H           94.70920041894811        8.60864228383311       -4.56782376414426
H           95.76133370746099        7.88566819382143       -5.82330413355626
H           96.55988306269229        5.54891471484648       -5.60357580066516
H           96.62726668011402        3.43976411475406       -4.33511935198834
H           98.11460009445234        4.02848586712945       -2.01085340297302
H           99.79956787667550        2.41864266744600       -0.90791245178182