140
 energy: -221.235523556206 gnorm: 3.357156747111 xtb: 6.5.1 (b24c23e)
Co          15.69796200000000       -0.00506400000000       -0.00639600000000
C           12.33927400000000        0.19819600000000       -0.24170700000000
C           13.00359300000000        1.29903300000000        0.11976900000000
C           12.35394400000000        2.54252200000000        0.51721400000000
C           13.29665900000000        3.41836100000000        0.80736700000000
C           14.60238000000000        2.77759400000000        0.60005500000000
N           14.42321400000000        1.42903700000000        0.16698300000000
C           15.79755200000000        3.37310100000000        0.78632800000000
C           17.09286900000000        2.68164000000000        0.55850700000000
C           18.38963900000000        3.36828300000000        0.55940400000000
C           19.32282300000000        2.46531500000000        0.34233700000000
N           17.22573900000000        1.40739200000000        0.34656100000000
C           18.62919600000000        1.19031100000000        0.19904400000000
C           19.22078500000000        0.00020000000000        0.00005700000000
C           18.46221700000000       -1.26627500000000       -0.14105200000000
C           19.01940600000000       -2.47079900000000       -0.12473700000000
C           17.97217000000000       -3.43638200000000       -0.38471200000000
C           16.83800100000000       -2.76205100000000       -0.53951500000000
C           15.53604800000000       -3.38660000000000       -0.89814800000000
C           15.51098200000000       -4.82839400000000       -1.23271400000000
C           15.44450500000000       -5.24144600000000       -2.57097300000000
C           15.43986400000000       -6.60735600000000       -2.89047800000000
C           15.33408200000000       -7.04722600000000       -4.32080400000000
C           15.46767000000000       -7.55939300000000       -1.85952300000000
C           15.52473300000000       -7.15430100000000       -0.51768200000000
C           15.59147800000000       -8.18488800000000        0.57084900000000
C           15.55627100000000       -5.78590500000000       -0.20921200000000
C           14.38290400000000       -2.69220100000000       -0.91200600000000
C           13.06223300000000       -3.23264200000000       -1.23052900000000
C           12.20698000000000       -2.24813700000000       -1.04109100000000
C           12.97066200000000       -1.08019800000000       -0.60548500000000
N           14.24088100000000       -1.32719000000000       -0.52631800000000
N           17.05822000000000       -1.35683600000000       -0.39253200000000
C           15.84708500000000        4.78336600000000        1.23102900000000
C           15.53160200000000        5.81885700000000        0.33924900000000
C           15.57458700000000        7.15513300000000        0.76253600000000
C           15.25444200000000        8.26414900000000       -0.19600600000000
C           15.97522300000000        7.45324400000000        2.07356400000000
C           16.31625100000000        6.42468600000000        2.96460900000000
C           16.69858300000000        6.74545700000000        4.37927000000000
C           16.23513600000000        5.08980000000000        2.54259100000000
H           11.25632300000000        0.23517600000000       -0.25998500000000
H           11.28933000000000        2.72907500000000        0.57659100000000
H           13.11072500000000        4.43104600000000        1.13999700000000
H           18.56956400000000        4.42519200000000        0.70586700000000
H           20.38506000000000        2.66282800000000        0.28759500000000
H           20.06504500000000       -2.70226200000000        0.02544700000000
H           18.10773200000000       -4.50606800000000       -0.47115700000000
H           15.40042100000000       -4.50003800000000       -3.36077900000000
H           15.83658000000000       -8.02698900000000       -4.46836100000000
H           14.26376100000000       -7.14368100000000       -4.59833000000000
H           15.81860600000000       -6.30857100000000       -4.99493600000000
H           15.44653300000000       -8.61585800000000       -2.10101800000000
H           15.42291500000000       -7.72966800000000        1.57116500000000
H           14.81270800000000       -8.95982400000000        0.40737200000000
H           16.59065600000000       -8.66892800000000        0.56167300000000
H           15.61303800000000       -5.46218900000000        0.82421000000000
H           12.80838300000000       -4.23599600000000       -1.54562700000000
H           11.13538000000000       -2.30964900000000       -1.17826000000000
H           15.24757600000000        5.58335400000000       -0.67978500000000
H           14.76554000000000        9.10800200000000        0.33602700000000
H           14.56325100000000        7.91226100000000       -0.99094900000000
H           16.19172300000000        8.62781500000000       -0.66594100000000
H           16.02103900000000        8.48606000000000        2.39964100000000
H           15.78912100000000        6.75268800000000        5.01428300000000
H           17.18871100000000        7.74034500000000        4.43782000000000
H           17.40990499999999        5.98825100000000        4.77408300000000
H           16.47719800000000        4.28885600000000        3.23150500000000
Co          28.69966200000000        0.00786400000000        0.00331700000000
C           32.05835100000000        0.17729300000000       -0.25741200000000
C           31.39403100000000       -0.47632800000000       -1.21411700000000
C           32.04368100000000       -1.20420600000000       -2.29782400000000
C           31.10096600000000       -1.72669200000000       -3.05827900000000
C           29.79524500000000       -1.34920800000000       -2.50054600000000
N           29.97441000000000       -0.55786400000000       -1.32584100000000
C           28.60007200000000       -1.69388600000000       -3.02066500000000
C           27.30475600000000       -1.28259200000000       -2.41995000000000
C           26.00798500000000       -1.47458900000000       -3.07920400000000
C           25.07480200000000       -1.01474800000000       -2.27234800000000
N           27.17188500000000       -0.72431900000000       -1.25506300000000
C           25.76842800000000       -0.52220600000000       -1.08762600000000
C           25.17683900000000        0.00020000000000        0.00005700000000
C           25.93540800000000        0.48827200000000        1.17719600000000
C           25.37821900000000        0.80789700000000        2.33865400000000
C           26.42545500000000        1.32638000000000        3.19370600000000
C           27.55962400000000        1.28735500000000        2.50293500000000
C           28.86157700000000        1.80566500000000        3.00297000000000
C           28.88664300000000        2.52834900000000        4.29464700000000
C           28.95311900000000        3.92869400000000        4.31885200000000
C           28.95776100000000        4.61578900000000        5.54183700000000
C           29.06354300000000        6.11202700000000        5.56617100000000
C           28.92995500000000        3.89059400000000        6.74322500000000
C           28.87289200000000        2.48902600000000        6.72766300000000
C           28.80614700000000        1.73039500000000        8.02052400000000
C           28.84135400000000        1.81183600000000        5.49921900000000
C           30.01472100000000        1.62568000000000        2.33215800000000
C           31.33539100000000        2.08205200000000        2.76257400000000
C           32.19064500000000        1.62605200000000        1.86971300000000
C           31.42696200000000        0.88255200000000        0.86919300000000
N           30.15674400000000        0.87526700000000        1.12846000000000
N           27.33940399999999        0.75502200000000        1.19417500000000
C           28.55054000000000       -2.51357600000000       -4.25140200000000
C           28.86602299999999       -1.94528500000000       -5.49420500000000
C           28.82303800000000       -2.72381300000000       -6.65983800000000
C           29.14318200000000       -2.11186500000000       -7.99184300000000
C           28.42240100000000       -4.06600600000000       -6.58122400000000
C           28.08137300000000       -4.63552200000000       -5.34528500000000
C           27.69904200000000       -6.08356000000000       -5.25958800000000
C           28.16248900000000       -3.85860000000000       -4.18063400000000
H           33.14130200000000        0.18455600000000       -0.29801800000000
H           33.10829500000000       -1.31316500000000       -2.46047500000000
H           31.28689900000000       -2.32806900000000       -3.93834700000000
H           25.82806100000000       -1.90946800000000       -4.05357000000000
H           24.01256400000000       -1.01715100000000       -2.47729300000000
H           24.33258000000000        0.72808000000000        2.60277400000000
H           26.28989300000000        1.70716800000000        4.19705000000000
H           28.99720400000000        4.48090300000000        3.38689400000000
H           28.56104400000000        6.52648100000000        6.46613600000000
H           30.13386400000000        6.40543300000000        5.58156100000000
H           28.57901900000000        6.55389900000000        4.66905800000000
H           28.95109100000000        4.41662500000000        7.69071100000000
H           28.97471000000000        0.64289900000000        7.86174800000000
H           29.58491700000000        2.10312400000000        8.71932600000000
H           27.80696800000000        1.87394700000000        8.48287800000000
H           28.78458700000000        0.72914900000000        5.47596400000000
H           31.58924200000000        2.66399300000000        3.63856000000000
H           33.26224500000000        1.77492200000000        1.89061100000000
H           29.15004900000000       -0.90097200000000       -5.55167100000000
H           29.63208500000000       -2.85776800000000       -8.65424600000000
H           29.83437400000000       -1.25038900000000       -7.87514600000000
H           28.20590100000000       -1.76173500000000       -8.47194900000000
H           28.37658500000000       -4.66669400000000       -7.48245100000000
H           28.60850300000000       -6.69548700000000       -5.08976900000000
H           27.20891400000000       -6.41673600000000       -6.19885600000000
H           26.98772000000000       -6.25199000000000       -4.42240900000000
H           27.92042600000000       -4.29733200000000       -3.21957800000000
C           21.46332100000000        0.01237100000000        0.00242300000000
C           20.21105100000000       -0.00681000000000       -0.00192500000000
C           22.77698900000000        0.01160500000000        0.00435600000000
C           24.28012300000000       -0.00681000000000       -0.00192500000000
140
 energy: -222.109275158173 gnorm: 0.543407936089 xtb: 6.5.1 (b24c23e)
Co          15.69951052987065       -0.00325405403095       -0.00814429549691
C           12.33982736390100        0.19014396136177       -0.24428543501912
C           13.00825207341673        1.30050527365178        0.12044091843958
C           12.35280139264471        2.53928576824927        0.51603548739873
C           13.30120648156621        3.41969553692602        0.80775342831231
C           14.60057946529873        2.77293412370745        0.59888985035636
N           14.41833699713903        1.43243834720534        0.16960159440233
C           15.80539057460024        3.37162095149559        0.78570095579473
C           17.08811776312257        2.69253084694129        0.56093546339638
C           18.38150758792220        3.37350364438724        0.56112752074057
C           19.32257689400203        2.45839468275163        0.34108559142255
N           17.22583897816713        1.40470778914408        0.34387166737635
C           18.60323137786188        1.20706994514959        0.20278073327170
C           19.11321068103533       -0.00671184322835        0.00041101383762
C           18.43938835974215       -1.26675971980755       -0.14348449361440
C           19.01934753860650       -2.48051199141963       -0.12571725690862
C           17.98210156961103       -3.43795991670074       -0.38364447274762
C           16.82887732977943       -2.75600609304439       -0.54121700812730
C           15.54213560115681       -3.38342768970369       -0.89639041049006
C           15.51235280650401       -4.82952712865923       -1.23294192102320
C           15.44459152420485       -5.24283505980355       -2.56961752732499
C           15.43914642730808       -6.60694002432881       -2.88862108496822
C           15.33480489875644       -7.04761427561531       -4.32226945461504
C           15.46780860059848       -7.55699171317112       -1.85909067904229
C           15.52502069565682       -7.15282328430384       -0.51877957035338
C           15.59102032805138       -8.18573000829231        0.57211765033030
C           15.55641855356338       -5.78673932305702       -0.21093565165574
C           14.38208004213074       -2.69066265478380       -0.91156796003603
C           13.06667667577828       -3.23388164631386       -1.23041596401254
C           12.20333215565899       -2.24272248281674       -1.03982965036151
C           12.96264708773678       -1.07490275901366       -0.60412905664752
N           14.24495861399954       -1.32918392461168       -0.52724238950154
N           17.05587618640014       -1.36030334568026       -0.39050548998266
C           15.84826096138111        4.78493478061494        1.23119109320379
C           15.53157362160114        5.81955613245588        0.34116841346952
C           15.57552700382563        7.15386929930306        0.76347075987808
C           15.25342277540145        8.26517151792519       -0.19674342292107
C           15.97510923802076        7.45100550347185        2.07288714530191
C           16.31502463707124        6.42434855425488        2.96316335075510
C           16.69978754010691        6.74576917864067        4.38043816467674
C           16.23519166497582        5.09146063077467        2.54147525835937
H           11.25645858396897        0.23424224153127       -0.26039662252178
H           11.28935405728690        2.72728529271102        0.57597310646600
H           13.11295940789593        4.43117689062038        1.14001255357517
H           18.56777467770092        4.42585934596617        0.70626131805799
H           20.38467442935235        2.66004819444351        0.28713234711330
H           20.06501898989725       -2.70242844490360        0.02555583472214
H           18.10858245314768       -4.50606122863538       -0.47080967974437
H           15.40061302925609       -4.50030264519706       -3.36041902949602
H           15.83496411017141       -8.02482433692107       -4.46815861856535
H           14.26638999557983       -7.14361080993993       -4.59822198789752
H           15.81701188603979       -6.31029927248627       -4.99354921759058
H           15.44660898991837       -8.61543785266147       -2.10094733812776
H           15.42357942191039       -7.73084347594503        1.56863638940768
H           14.81488059322178       -8.95843890553215        0.40791669613111
H           16.58813106906294       -8.66819703951278        0.56202245269228
H           15.61294401149468       -5.46235165556997        0.82375769251007
H           12.81051275726698       -4.23599534852126       -1.54546644578091
H           11.13493104993559       -2.30806494538318       -1.17790596518571
H           15.24762256253175        5.58335202336935       -0.67938917088740
H           14.76703631917919        9.10631753538983        0.33457107322840
H           14.56520191665773        7.91319870339096       -0.98935794734380
H           16.18928901177169        8.62737427325584       -0.66515947634507
H           16.02104972520889        8.48565333141057        2.39952433054240
H           15.79147186453332        6.75278371913848        5.01331477597733
H           17.18723904180885        7.73813731361962        4.43797622728549
H           17.40788617696209        5.98999672574297        4.77348718723417
H           16.47719097583034        4.28910491316836        3.23119639725414
Co          28.69838644924164        0.00906743381057        0.00101417948549
C           32.05781448724287        0.18206215729573       -0.25030798102504
C           31.38923590269398       -0.47741120487651       -1.21536233006524
C           32.04481182780980       -1.20218291365672       -2.29506496404749
C           31.09643235783110       -1.72745148736842       -3.05946201678235
C           29.79701369898772       -1.34681945564251       -2.49641201850719
N           29.97949432580325       -0.56132518072210       -1.32844861259768
C           28.59233255977546       -1.69284257353561       -3.01946505453806
C           27.30929926669665       -1.28822132771645       -2.43035995952096
C           26.01657366284256       -1.47782765283286       -3.08387558094740
C           25.07510887672541       -1.01132781722909       -2.26529023038364
N           27.17267100028038       -0.72152572833748       -1.25345079409666
C           25.80063537029604       -0.53185205780094       -1.10626662212101
C           25.33016801476130        0.00355450344369        0.00730574906786
C           25.96437625236730        0.49191448717682        1.18029529099621
C           25.37821571295212        0.81145904603748        2.34748034353587
C           26.41556374256051        1.32577688465988        3.19550712318632
C           27.56855137746598        1.28732924652446        2.49677855791873
C           28.85569641137556        1.80311114049548        3.00039210138476
C           28.88525136183620        2.52888728515032        4.29567777240515
C           28.95302953900395        3.92778036798695        4.32056229247861
C           28.95848290376879        4.61389560916650        5.54195680597318
C           29.06281952696661        6.11354195784751        5.56613599757530
C           28.92981597379055        3.88950923318934        6.74103735800606
C           28.87260561367183        2.48966802562871        6.72594557973679
C           28.80660537565273        1.72941040134866        8.02168517566970
C           28.84120135332987        1.81372156921834        5.49954143881826
C           30.01545157737046        1.62482335762746        2.33081897086970
C           31.33102493800495        2.08230000384217        2.76379510804342
C           32.19427962709696        1.62337315701128        1.86492367263671
C           31.43496052347368        0.87972056732874        0.86440702949892
N           30.15264546628548        0.87665695624841        1.13008168563418
N           27.34258292328575        0.75448440956320        1.19841231567264
C           28.54934882742894       -2.51417009288282       -4.25286478715367
C           28.86604948417473       -1.94732111074559       -5.49433930184885
C           28.82210072603246       -2.72435983538295       -6.65836628634473
C           29.14420189969457       -2.11144142628054       -7.99302954018014
C           28.42251473867850       -4.06473221799475       -6.57926111576090
C           28.08260045280819       -4.63404424340714       -5.34536529560154
C           27.69783704888293       -6.08476854289063       -5.25956290992500
C           28.16243119292388       -3.85799102169383       -4.18253864245271
H           33.14116829606167        0.18521894546808       -0.29723175771884
H           33.10826981098160       -1.31207267428041       -2.45893000851399
H           31.28466695065734       -2.32812137372248       -3.93847315734728
H           25.82983382348970       -1.91000559834488       -4.05408410479789
H           24.01291951885211       -1.01580286744339       -2.47449000938636
H           24.33253220760804        0.72795055260885        2.60273126028623
H           26.28898808863590        1.70681726520293        4.19709637640658
H           28.99701228389840        4.48063095848062        3.38724775365982
H           28.56266057371639        6.52568267730044        6.46411234999276
H           30.13123395245251        6.40530832500805        5.58152371197077
H           28.58061342830770        6.55304784190828        4.67110407454033
H           28.95101439877702        4.41643897828328        7.69032506667873
H           28.97404555461009        0.64565525627070        7.86217309963791
H           29.58274335344852        2.10221546641609        8.71814572249609
H           27.80949400445908        1.87340856934933        8.48227215773131
H           28.78468222056405        0.72962728366767        5.47599547689211
H           31.58711784138155        2.66384178281679        3.63860677610625
H           33.26269160258632        1.77414494580647        1.88919568240911
H           29.15000266229917       -0.90135135606630       -5.55155838297070
H           29.63058797693623       -2.85590038853216       -8.65303231166493
H           29.83242282407682       -1.25217840591223       -7.87560359842392
H           28.20833534968453       -1.76236364140476       -8.47130724315088
H           28.37657382246969       -4.66646773843684       -7.48209142281129
H           28.60615195534154       -6.69458281473444       -5.09013063885887
H           27.21038657997328       -6.41627066550829       -6.19669127640295
H           26.98973889441101       -6.25190374404859       -4.42425163171331
H           27.92043232764628       -4.29710556681511       -3.21990208557860
C           21.50657198484244        0.01123068697709        0.00180997691289
C           20.31866233046849       -0.01372815368946       -0.00428742449841
C           22.77145065689168        0.01255085308200        0.00485718908060
C           24.07448464683099       -0.00388338188692        0.00430312575742
140
 energy: -222.212438754691 gnorm: 0.291735069654 xtb: 6.5.1 (b24c23e)
Co          15.70059165692769        0.00937123089792       -0.02457074260312
C           12.34175028092695        0.17329728004265       -0.24945773759037
C           13.01524318991388        1.29548716519001        0.12229349633001
C           12.35737173421097        2.52900541478099        0.51235420010722
C           13.31517428122016        3.41691432596477        0.80722791931104
C           14.60245889347091        2.76420573958329        0.60010868358736
N           14.40548672782818        1.43986853231800        0.18041737600691
C           15.81591810248166        3.37411861520698        0.78491343816791
C           17.06691106005211        2.71930680533992        0.56775568080551
C           18.35735810685445        3.38700141703501        0.56870917374849
C           19.29856773033034        2.45131533360787        0.34128909183306
N           17.20231372696754        1.41748748486329        0.33251880946172
C           18.56144605616785        1.21721120531480        0.20437810309942
C           19.06747877509020       -0.02850987952680        0.00009829972570
C           18.39534831199960       -1.26903495600702       -0.14813902239767
C           19.00727691194382       -2.50267837129154       -0.13414269472699
C           17.99715640279546       -3.44231015862731       -0.38683757813684
C           16.81258183434164       -2.75064042588684       -0.54352231928643
C           15.55789139356969       -3.37379621081734       -0.89229988697574
C           15.52449933471726       -4.82744105055519       -1.23178461826510
C           15.44622373170248       -5.24401968603285       -2.56392408938251
C           15.43425830874020       -6.60394406407954       -2.88307019575118
C           15.33692899614597       -7.04646002261510       -4.32021570347924
C           15.46830770212559       -7.54936966402466       -1.85722820096307
C           15.52710823503810       -7.14769625076636       -0.52118529560569
C           15.58930412469386       -8.18385740643559        0.57105327774400
C           15.56001104695705       -5.78638996136208       -0.21535227088675
C           14.38596780338501       -2.68093493313612       -0.90835205185500
C           13.07790574369080       -3.22438868924163       -1.22647125652239
C           12.19713759272514       -2.22729802513329       -1.03465262999583
C           12.94865163616031       -1.06438176559309       -0.59959824065910
N           14.25021870568675       -1.32697390717031       -0.53185604320614
N           17.02960781002247       -1.37414712432318       -0.37666829545090
C           15.85480087732296        4.79027411016099        1.23030212699021
C           15.53045839002093        5.82159401444995        0.34631233974219
C           15.57894010279034        7.15120283838642        0.76511719743034
C           15.25177389226093        8.26416762407390       -0.19535395745456
C           15.97450705346396        7.44505870724834        2.07108496590426
C           16.30965838466800        6.42351387698782        2.96071006793152
C           16.70142524696178        6.74562342268679        4.37868751907835
C           16.23761383539050        5.09611799620922        2.53759632011567
H           11.25835019144450        0.22459021807694       -0.26536281016887
H           11.29268752734675        2.71167049875308        0.57001894239050
H           13.13356739876292        4.42992412797741        1.13900115289566
H           18.55159134642402        4.43606275612098        0.71067459681982
H           20.36691436634050        2.63748940003513        0.28432926123876
H           20.05727509308669       -2.70607592472570        0.02438009100230
H           18.11706645466719       -4.50941222441093       -0.46861002902899
H           15.40285012998802       -4.50252966333532       -3.35628256150598
H           15.82778736353053       -8.01694285437575       -4.46695207754661
H           14.27848330890648       -7.14371249697477       -4.59962340157687
H           15.80998139851322       -6.31610307706255       -4.98862097670898
H           15.44744726700794       -8.60912001039954       -2.09961204585117
H           15.42664046611954       -7.73468601212574        1.55891913174392
H           14.82401947453493       -8.95418835268486        0.41017892907047
H           16.57660875805597       -8.66620905160229        0.56447657245036
H           15.61260806981590       -5.46351660764835        0.81998670445566
H           12.83036985474039       -4.22987166667971       -1.54240354340527
H           11.13018960594936       -2.29409989791547       -1.17464139218601
H           15.24775430932015        5.58394203850442       -0.67491051738395
H           14.77355438296806        9.10107103077249        0.32889478154136
H           14.57329187679163        7.91659957014135       -0.98421847424439
H           16.17772244286042        8.62682295338318       -0.66281943072454
H           16.02107389672324        8.48056345845424        2.39795584192464
H           15.80286446218021        6.75358009244047        5.01087330177310
H           17.18080673124107        7.73053300124206        4.43900552517008
H           17.39960050655463        5.99595521730474        4.77196142663010
H           16.47757678376289        4.29242216379128        3.22759809251463
Co          28.69444970396031        0.02133607169874       -0.01577830396538
C           32.05576518116118        0.19167632518145       -0.23558077800076
C           31.38200870610670       -0.47776360326257       -1.20989399558937
C           32.03997635540345       -1.19574299091500       -2.28611265893973
C           31.08201480167621       -1.72606975330867       -3.05677059929811
C           29.79452287101338       -1.34535947235522       -2.48720416995697
N           29.99177712843275       -0.57352214071947       -1.33216625730925
C           28.58040822129608       -1.69232726976796       -3.02088866902821
C           27.32773634413470       -1.30111226962884       -2.45237108070953
C           26.03884500056319       -1.48882367005416       -3.09479592331150
C           25.09379533637531       -1.01141038143353       -2.26207893699499
N           27.18520659554494       -0.71123953944704       -1.26783340958680
C           25.81932561132551       -0.53559970765485       -1.11360693448262
C           25.32416798063193        0.01159684774195        0.02916170858618
C           25.99143956125587        0.49870772073868        1.17835936287662
C           25.38623620499018        0.82650667361661        2.36913753344331
C           26.39944473263796        1.32997885205608        3.19862594431044
C           27.58344962449620        1.28750195257691        2.48965869262712
C           28.83901209541452        1.79615966609333        2.99171759421338
C           28.87291329449418        2.52701701516563        4.29372496963777
C           28.95136954810027        3.92252983765123        4.32321727841100
C           28.96336162050195        4.60766236594484        5.54057779400029
C           29.06069486980621        6.11120939146216        5.56559624804638
C           28.92930775830680        3.88557292585659        6.73421191416389
C           28.87050712323030        2.49052671197418        6.72028323893408
C           28.80831341809915        1.72991097495965        8.01956987717951
C           28.83758044567790        1.81783558120185        5.49787000898345
C           30.01119451501409        1.61883113369084        2.32207655419582
C           31.31946130681412        2.07573748113736        2.75568201711694
C           32.20027645554156        1.61398039981940        1.85146188632860
C           31.44872580271740        0.87233703227094        0.85550629331021
N           30.14693469157227        0.88032236171115        1.12636730299346
N           27.36114554022198        0.74356680404611        1.21456455815312