      -----------------------------------------------------------      
     |                   =====================                   |     
     |                           x T B                           |     
     |                   =====================                   |     
     |                         S. Grimme                         |     
     |          Mulliken Center for Theoretical Chemistry        |     
     |                    University of Bonn                     |     
      -----------------------------------------------------------      

   * xtb version 6.5.1 (b24c23e) compiled by 'conda@728c89f4b128' on 2022-07-12

   xtb is free software: you can redistribute it and/or modify it under
   the terms of the GNU Lesser General Public License as published by
   the Free Software Foundation, either version 3 of the License, or
   (at your option) any later version.
   
   xtb is distributed in the hope that it will be useful,
   but WITHOUT ANY WARRANTY; without even the implied warranty of
   MERCHANTABILITY or FITNESS FOR A PARTICULAR PURPOSE.  See the
   GNU Lesser General Public License for more details.
   
   Cite this work as:
   * C. Bannwarth, E. Caldeweyher, S. Ehlert, A. Hansen, P. Pracht,
     J. Seibert, S. Spicher, S. Grimme, WIREs Comput. Mol. Sci., 2020, 11,
     e01493. DOI: 10.1002/wcms.1493
   
   for GFN2-xTB:
   * C. Bannwarth, S. Ehlert and S. Grimme., J. Chem. Theory Comput., 2019,
     15, 1652-1671. DOI: 10.1021/acs.jctc.8b01176
   for GFN1-xTB:
   * S. Grimme, C. Bannwarth, P. Shushkov, J. Chem. Theory Comput., 2017,
     13, 1989-2009. DOI: 10.1021/acs.jctc.7b00118
   for GFN0-xTB:
   * P. Pracht, E. Caldeweyher, S. Ehlert, S. Grimme, ChemRxiv, 2019, preprint.
     DOI: 10.26434/chemrxiv.8326202.v1
   for GFN-FF:
   * S. Spicher and S. Grimme, Angew. Chem. Int. Ed., 2020, 59, 15665-15673.
     DOI: 10.1002/anie.202004239
   
   for ALPB and GBSA implicit solvation:
   * S. Ehlert, M. Stahn, S. Spicher, S. Grimme, J. Chem. Theory Comput.,
     2021, 17, 4250-4261. DOI: 10.1021/acs.jctc.1c00471
   
   for DFT-D4:
   * E. Caldeweyher, C. Bannwarth and S. Grimme, J. Chem. Phys., 2017,
     147, 034112. DOI: 10.1063/1.4993215
   * E. Caldeweyher, S. Ehlert, A. Hansen, H. Neugebauer, S. Spicher,
     C. Bannwarth and S. Grimme, J. Chem. Phys., 2019, 150, 154122.
     DOI: 10.1063/1.5090222
   * E. Caldeweyher, J.-M. Mewes, S. Ehlert and S. Grimme, Phys. Chem. Chem. Phys.
     2020, 22, 8499-8512. DOI: 10.1039/D0CP00502A
   
   for sTDA-xTB:
   * S. Grimme and C. Bannwarth, J. Chem. Phys., 2016, 145, 054103.
     DOI: 10.1063/1.4959605
   
   in the mass-spec context:
   * V. Asgeirsson, C. Bauer and S. Grimme, Chem. Sci., 2017, 8, 4879.
     DOI: 10.1039/c7sc00601b
   * J. Koopman and S. Grimme, ACS Omega 2019, 4, 12, 15120-15133.
     DOI: 10.1021/acsomega.9b02011
   
   for metadynamics refer to:
   * S. Grimme, J. Chem. Theory Comput., 2019, 155, 2847-2862
     DOI: 10.1021/acs.jctc.9b00143
   
   for SPH calculations refer to:
   * S. Spicher and S. Grimme, J. Chem. Theory Comput., 2021, 17, 1701-1714
     DOI: 10.1021/acs.jctc.0c01306
   
   with help from (in alphabetical order)
   P. Atkinson, C. Bannwarth, F. Bohle, G. Brandenburg, E. Caldeweyher
   M. Checinski, S. Dohm, S. Ehlert, S. Ehrlich, I. Gerasimov, C. Hölzer
   A. Katbashev, J. Koopman, C. Lavigne, S. Lehtola, F. März, M. Müller,
   F. Musil, H. Neugebauer, J. Pisarek, C. Plett, P. Pracht, F. Pultar,
   J. Seibert, P. Shushkov, S. Spicher, M. Stahn, M. Steiner, T. Strunk,
   J. Stückrath, T. Rose, and J. Unsleber
   
 * started run on 2022/07/30 at 12:24:07.577     

           -------------------------------------------------
          |                Calculation Setup                |
           -------------------------------------------------

          program call               : xtb xtbopt.xyz --gfn 1 --vipea
          hostname                   : cx3-6-25.cx3.hpc.ic.ac.uk
          coordinate file            : xtbopt.xyz
          omp threads                :                     1

   ID    Z sym.   atoms
    1    6 C      1-5, 7-11, 15-19, 21-26, 28-32, 36-41, 62-66, 68-72, 76-80,
                  82-87, 89-93, 97-102, 123-181, 183-187, 191-195, 197-202,
                  204-208, 212-217, 237-241, 243-247, 251-255, 257-262,
                  264-268, 272-277, 297-301, 303-307, 311-315, 317-322,
                  324-328, 332-337, 357-361, 363-367, 371-375, 377-382,
                  384-388, 392-397, 417-421, 423-427, 431-435, 437-442,
                  444-448, 452-457, 477-481, 483-487, 491-495, 497-502,
                  504-508, 512-517, 537-541, 543-547, 551-555, 557-562,
                  564-568, 572-577, 597-601, 603-607, 611-615, 617-622,
                  624-628, 632-637
    2    7 N      6, 12, 20, 27, 33, 42, 67, 73, 81, 88, 94, 103, 182, 188,
                  196, 203, 209, 218, 242, 248, 256, 263, 269, 278, 302, 308,
                  316, 323, 329, 338, 362, 368, 376, 383, 389, 398, 422, 428,
                  436, 443, 449, 458, 482, 488, 496, 503, 509, 518, 542, 548,
                  556, 563, 569, 578, 602, 608, 616, 623, 629, 638
    3    8 O      13, 14, 34, 35, 74, 75, 95, 96, 189, 190, 210, 211, 249,
                  250, 270, 271, 309, 310, 330, 331, 369, 370, 390, 391, 429,
                  430, 450, 451, 489, 490, 510, 511, 549, 550, 570, 571, 609,
                  610, 630, 631
    4    1 H      43-61, 104-122, 219-236, 279-296, 339-356, 399-416,
                  459-476, 519-536, 579-596, 639-656

           -------------------------------------------------
          |                 I P E A - x T B                 |
           -------------------------------------------------

        Reference                      10.1039/c7sc00601b
      * Hamiltonian:
        H0-scaling (s, p, d)           2.150000    2.300000    2.000000
        zeta-weighting                 0.000000
      * Dispersion:
        s8                             2.400000
        a1                             0.630000
        a2                             5.000000
        s9                             0.000000
      * Repulsion:
        kExp                           1.500000
        rExp                           1.000000
      * Coulomb:
        alpha                          1.000000
        third order                    atomic
        anisotropic                    false
      * Halogen bond correction:
        rad-scale                      1.300000
        damping                        0.440000


          ...................................................
          :                      SETUP                      :
          :.................................................:
          :  # basis functions                2734          :
          :  # atomic orbitals                2734          :
          :  # shells                         1786          :
          :  # electrons                      2218          :
          :  # halogen bonds                     0          :
          :  max. iterations                   250          :
          :  Hamiltonian                  GFN1-xTB          :
          :  restarted?                      false          :
          :  GBSA solvation                  false          :
          :  PC potential                    false          :
          :  electronic temp.          300.0000000     K    :
          :  accuracy                    1.0000000          :
          :  -> integral cutoff          0.2500000E+02      :
          :  -> integral neglect         0.1000000E-07      :
          :  -> SCF convergence          0.1000000E-05 Eh   :
          :  -> wf. convergence          0.2000000E-04 e    :
          :  Broyden damping             0.4000000          :
          ...................................................

 iter      E             dE          RMSdq      gap      omega  full diag
   1  -1438.2103074 -0.143821E+04  0.102E+01    0.54       0.0  T
   2  -1439.1351465 -0.924839E+00  0.628E+00    1.10       1.0  T
   3  -1417.5380547  0.215971E+02  0.475E+00    0.10       1.0  T
   4  -1442.6366903 -0.250986E+02  0.959E-01    1.01       1.0  T
   5  -1444.0320291 -0.139534E+01  0.235E-01    0.90       1.0  T
   6  -1444.1048995 -0.728704E-01  0.992E-02    0.93       1.0  T
   7  -1444.1132576 -0.835807E-02  0.575E-02    0.91       1.0  T
   8  -1444.1160252 -0.276764E-02  0.337E-02    0.91       1.0  T
   9  -1444.1165963 -0.571028E-03  0.229E-02    0.91       1.0  T
  10  -1444.1171199 -0.523590E-03  0.578E-03    0.91       1.0  T
  11  -1444.1171443 -0.244661E-04  0.298E-03    0.91       1.3  T
  12  -1444.1171517 -0.742088E-05  0.160E-03    0.91       2.4  T
  13  -1444.1171551 -0.333201E-05  0.491E-04    0.91       8.0  T
  14  -1444.1171553 -0.259927E-06  0.220E-04    0.91      17.7  T
  15  -1444.1171554 -0.281623E-07  0.121E-04    0.91      32.4  T
  16  -1444.1171554 -0.155792E-07  0.682E-05    0.91      57.2  T

   *** convergence criteria satisfied after 16 iterations ***

         #    Occupation            Energy/Eh            Energy/eV
      -------------------------------------------------------------
         1        2.0000           -1.1899877             -32.3812
       ...           ...                  ...                  ...
      1103        2.0000           -0.3953292             -10.7575
      1104        2.0000           -0.3923050             -10.6752
      1105        2.0000           -0.3891905             -10.5904
      1106        2.0000           -0.3861203             -10.5069
      1107        2.0000           -0.3833069             -10.4303
      1108        2.0000           -0.3810445             -10.3687
      1109        2.0000           -0.3799451             -10.3388 (HOMO)
      1110                         -0.3464724              -9.4280 (LUMO)
      1111                         -0.3443481              -9.3702
      1112                         -0.3415923              -9.2952
      1113                         -0.3384330              -9.2092
      1114                         -0.3351183              -9.1190
       ...                                ...                  ...
      2734                        559.7165439           15230.6624
      -------------------------------------------------------------
                  HL-Gap            0.0334727 Eh            0.9108 eV
             Fermi-level           -0.3631188 Eh           -9.8810 eV

 SCC (total)                   0 d,  0 h,  1 min, 36.127 sec
 SCC setup                      ...        0 min,  0.045 sec (  0.047%)
 Dispersion                     ...        0 min,  0.043 sec (  0.045%)
 classical contributions        ...        0 min,  0.010 sec (  0.010%)
 integral evaluation            ...        0 min,  2.589 sec (  2.694%)
 iterations                     ...        1 min, 28.095 sec ( 91.644%)
 molecular gradient             ...        0 min,  4.387 sec (  4.564%)
 printout                       ...        0 min,  0.958 sec (  0.996%)

         :::::::::::::::::::::::::::::::::::::::::::::::::::::
         ::                     SUMMARY                     ::
         :::::::::::::::::::::::::::::::::::::::::::::::::::::
         :: total energy           -1417.480661132866 Eh    ::
         :: gradient norm              0.218325226392 Eh/a0 ::
         :: HOMO-LUMO gap              0.910838706181 eV    ::
         ::.................................................::
         :: SCC energy             -1444.117155377239 Eh    ::
         :: -> electrostatic           1.158110518141 Eh    ::
         :: repulsion energy          27.204195340807 Eh    ::
         :: dispersion energy         -0.567701096435 Eh    ::
         :: halogen bond corr.         0.000000000000 Eh    ::
         :: add. restraining           0.000000000000 Eh    ::
         :: total charge               0.000000000038 e     ::
         :::::::::::::::::::::::::::::::::::::::::::::::::::::

           ------------------------------------------------- 
          |        vertical delta SCC IP calculation        |
           ------------------------------------------------- 
   1  -1443.7242054 -0.144372E+04  0.310E-02    0.91       0.0  T
   2  -1443.7243967 -0.191229E-03  0.269E-02    0.90       1.0  T
   3  -1443.7247839 -0.387267E-03  0.212E-02    0.91       1.0  T
   4  -1443.7256565 -0.872563E-03  0.161E-02    0.90       1.0  T
   5  -1443.7259910 -0.334534E-03  0.103E-02    0.91       1.0  T
   6  -1443.7256800  0.311001E-03  0.116E-02    0.91       1.0  T
   7  -1443.7264832 -0.803160E-03  0.357E-03    0.91       1.1  T
   8  -1443.7265066 -0.233953E-04  0.127E-03    0.91       3.1  T
   9  -1443.7265093 -0.268975E-05  0.593E-04    0.91       6.6  T
  10  -1443.7265096 -0.338101E-06  0.351E-04    0.91      11.1  T
  11  -1443.7265097 -0.876030E-07  0.153E-04    0.91      25.6  T
  12  -1443.7265098 -0.594364E-07  0.659E-05    0.91      59.2  T
     SCC iter.                  ...        1 min,  6.167 sec
     gradient                   ...        0 min,  4.377 sec
------------------------------------------------------------------------
empirical IP shift (eV):    4.8455
delta SCC IP (eV):    5.7845
------------------------------------------------------------------------
           ------------------------------------------------- 
          |        vertical delta SCC EA calculation        |
           ------------------------------------------------- 
   1  -1444.4429895 -0.144444E+04  0.558E-02    0.05       0.0  T
   2  -1444.4452725 -0.228305E-02  0.492E-02    0.01       1.0  T
   3  -1444.4480994 -0.282684E-02  0.340E-02    0.06       1.0  T
   4  -1444.4501750 -0.207560E-02  0.248E-02    0.02       1.0  T
   5  -1444.4513933 -0.121838E-02  0.126E-02    0.03       1.0  T
   6  -1444.4498801  0.151319E-02  0.162E-02    0.04       1.0  T
   7  -1444.4508706 -0.990456E-03  0.104E-02    0.04       1.0  T
   8  -1444.4516009 -0.730253E-03  0.257E-03    0.03       1.5  T
   9  -1444.4516212 -0.203720E-04  0.135E-03    0.03       2.9  T
  10  -1444.4516235 -0.222279E-05  0.618E-04    0.03       6.3  T
  11  -1444.4516242 -0.761457E-06  0.225E-04    0.03      17.4  T
  12  -1444.4516243 -0.448526E-07  0.130E-04    0.03      30.0  T
  13  -1444.4516243 -0.168566E-07  0.639E-05    0.03      61.1  T
     SCC iter.                  ...        1 min, 11.307 sec
     gradient                   ...        0 min,  4.413 sec
------------------------------------------------------------------------
empirical EA shift (eV):    4.8455
delta SCC EA (eV):    4.2559
------------------------------------------------------------------------
           -------------------------------------------------
          |                Property Printout                |
           -------------------------------------------------

    * Orbital Energies and Occupations

         #    Occupation            Energy/Eh            Energy/eV
      -------------------------------------------------------------
         1        2.0000           -1.1743782             -31.9565
       ...           ...                  ...                  ...
      1098        2.0000           -0.3862298             -10.5098
      1099        2.0000           -0.3862253             -10.5097
      1100        2.0000           -0.3792564             -10.3201
      1101        2.0000           -0.3786191             -10.3028
      1102        2.0000           -0.3761680             -10.2361
      1103        2.0000           -0.3731519             -10.1540
      1104        2.0000           -0.3699563             -10.0670
      1105        2.0000           -0.3666466              -9.9770
      1106        2.0000           -0.3633421              -9.8870
      1107        2.0000           -0.3601776              -9.8009
      1108        2.0000           -0.3573112              -9.7229
      1109        2.0000           -0.3552981              -9.6682
      1110        0.6172           -0.3216481              -8.7525 (HOMO)
      1111        0.3302           -0.3205225              -8.7219 (LUMO)
      1112        0.0499           -0.3183950              -8.6640
      1113        0.0025           -0.3155118              -8.5855
      1114        0.0001           -0.3126150              -8.5067
      1115        0.0000           -0.3108083              -8.4575
      1116        0.0000           -0.3100257              -8.4362
      1117        0.0000           -0.3084970              -8.3946
      1118        0.0000           -0.3069151              -8.3516
      1119        0.0000           -0.3067366              -8.3467
      1120        0.0000           -0.3061589              -8.3310
      1121                         -0.3054445              -8.3116
       ...                                ...                  ...
      2734                        559.7406720           15231.3190
      -------------------------------------------------------------
                  HL-Gap            0.0011256 Eh            0.0306 eV
             Fermi-level           -0.3298750 Eh           -8.9764 eV

  Mulliken/CM5 charges         n(s)   n(p)   n(d)
     1C    -0.01696 -0.05780   1.091  2.926  0.000
     2C     0.06469  0.12506   1.106  2.829  0.000
     3C    -0.03046 -0.07581   1.083  2.948  0.000
     4C    -0.03044 -0.07545   1.075  2.955  0.000
     5C     0.06527  0.12933   1.101  2.833  0.000
     6N    -0.15619 -0.50924   1.311  3.845  0.000
     7C     0.01034  0.01611   1.090  2.900  0.000
     8C     0.01784  0.00932   1.092  2.890  0.000
     9C    -0.01428 -0.06735   1.077  2.937  0.000
    10C    -0.00717 -0.05389   1.092  2.915  0.000
    11C     0.04536  0.09991   1.119  2.836  0.000
    12N     0.30034  0.12827   1.469  3.231  0.000
    13O    -0.27103 -0.23008   1.675  4.596  0.000
    14O    -0.27161 -0.23067   1.675  4.597  0.000
    15C    -0.00777 -0.05448   1.092  2.916  0.000
    16C    -0.01577 -0.06875   1.075  2.941  0.000
    17C     0.06154  0.12970   1.118  2.820  0.000
    18C    -0.03605 -0.08212   1.084  2.952  0.000
    19C    -0.03535 -0.08083   1.091  2.944  0.000
    20N    -0.28190 -0.46861   1.293  3.989  0.000
    21C     0.06649  0.13727   1.130  2.803  0.000
    22C     0.02098  0.02816   1.086  2.893  0.000
    23C     0.06843  0.13331   1.110  2.822  0.000
    24C    -0.03030 -0.07476   1.081  2.950  0.000
    25C    -0.03079 -0.07580   1.074  2.957  0.000
    26C     0.06416  0.12761   1.099  2.837  0.000
    27N    -0.15439 -0.50666   1.313  3.841  0.000
    28C     0.00985  0.01567   1.090  2.900  0.000
    29C     0.01773  0.00923   1.092  2.890  0.000
    30C    -0.01469 -0.06777   1.077  2.938  0.000
    31C    -0.00746 -0.05419   1.092  2.916  0.000
    32C     0.04521  0.09979   1.118  2.836  0.000
    33N     0.30002  0.12794   1.469  3.231  0.000
    34O    -0.27156 -0.23061   1.675  4.597  0.000
    35O    -0.27170 -0.23078   1.675  4.597  0.000
    36C    -0.00773 -0.05444   1.092  2.916  0.000
    37C    -0.01557 -0.06856   1.075  2.941  0.000
    38C     0.06308  0.13257   1.121  2.816  0.000
    39C    -0.03598 -0.08204   1.085  2.950  0.000
    40C    -0.03580 -0.08224   1.093  2.943  0.000
    41C     0.06173  0.12735   1.126  2.812  0.000
    42N    -0.28387 -0.47095   1.293  3.991  0.000
    43H     0.03593  0.09498   0.964  0.000  0.000
    44H     0.04684  0.10355   0.953  0.000  0.000
    45H     0.03777  0.09650   0.962  0.000  0.000
    46H     0.16677  0.37508   0.833  0.000  0.000
    47H     0.03882  0.09690   0.961  0.000  0.000
    48H     0.05678  0.12071   0.943  0.000  0.000
    49H     0.05621  0.12014   0.944  0.000  0.000
    50H     0.03882  0.09686   0.961  0.000  0.000
    51H     0.02818  0.08698   0.972  0.000  0.000
    52H     0.03072  0.08882   0.969  0.000  0.000
    53H     0.04054  0.09867   0.959  0.000  0.000
    54H     0.03762  0.09643   0.962  0.000  0.000
    55H     0.16563  0.37390   0.834  0.000  0.000
    56H     0.03839  0.09647   0.962  0.000  0.000
    57H     0.05630  0.12022   0.944  0.000  0.000
    58H     0.05635  0.12028   0.944  0.000  0.000
    59H     0.03903  0.09710   0.961  0.000  0.000
    60H     0.02810  0.08681   0.972  0.000  0.000
    61H     0.03678  0.09325   0.963  0.000  0.000
    62C    -0.01690 -0.05775   1.091  2.926  0.000
    63C     0.06470  0.12507   1.106  2.829  0.000
    64C    -0.03043 -0.07578   1.083  2.948  0.000
    65C    -0.03042 -0.07542   1.075  2.955  0.000
    66C     0.06530  0.12935   1.101  2.833  0.000
    67N    -0.15616 -0.50920   1.311  3.845  0.000
    68C     0.01037  0.01613   1.090  2.900  0.000
    69C     0.01783  0.00931   1.092  2.890  0.000
    70C    -0.01426 -0.06734   1.077  2.937  0.000
    71C    -0.00711 -0.05384   1.092  2.915  0.000
    72C     0.04535  0.09990   1.119  2.836  0.000
    73N     0.30035  0.12828   1.469  3.231  0.000
    74O    -0.27084 -0.22988   1.675  4.596  0.000
    75O    -0.27172 -0.23080   1.675  4.597  0.000
    76C    -0.00781 -0.05452   1.092  2.916  0.000
    77C    -0.01581 -0.06879   1.075  2.941  0.000
    78C     0.06159  0.12975   1.118  2.820  0.000
    79C    -0.03604 -0.08210   1.084  2.952  0.000
    80C    -0.03530 -0.08078   1.091  2.944  0.000
    81N    -0.28192 -0.46860   1.293  3.989  0.000
    82C     0.06651  0.13728   1.130  2.803  0.000
    83C     0.02099  0.02817   1.086  2.893  0.000
    84C     0.06848  0.13337   1.110  2.822  0.000
    85C    -0.03024 -0.07470   1.081  2.950  0.000
    86C    -0.03075 -0.07576   1.074  2.957  0.000
    87C     0.06422  0.12766   1.099  2.837  0.000
    88N    -0.15440 -0.50666   1.313  3.841  0.000
    89C     0.00987  0.01570   1.090  2.900  0.000
    90C     0.01774  0.00923   1.092  2.890  0.000
    91C    -0.01471 -0.06778   1.077  2.938  0.000
    92C    -0.00748 -0.05420   1.092  2.916  0.000
    93C     0.04522  0.09979   1.118  2.836  0.000
    94N     0.30004  0.12796   1.469  3.231  0.000
    95O    -0.27162 -0.23068   1.675  4.597  0.000
    96O    -0.27156 -0.23063   1.675  4.597  0.000
    97C    -0.00769 -0.05440   1.092  2.916  0.000
    98C    -0.01557 -0.06857   1.075  2.941  0.000
    99C     0.06310  0.13259   1.121  2.816  0.000
   100C    -0.03597 -0.08203   1.086  2.950  0.000
   101C    -0.03578 -0.08222   1.093  2.943  0.000
   102C     0.06173  0.12735   1.126  2.812  0.000
   103N    -0.28384 -0.47093   1.293  3.991  0.000
   104H     0.03597  0.09502   0.964  0.000  0.000
   105H     0.04689  0.10359   0.953  0.000  0.000
   106H     0.03783  0.09656   0.962  0.000  0.000
   107H     0.16679  0.37510   0.833  0.000  0.000
   108H     0.03897  0.09702   0.961  0.000  0.000
   109H     0.05695  0.12087   0.943  0.000  0.000
   110H     0.05614  0.12007   0.944  0.000  0.000
   111H     0.03876  0.09680   0.961  0.000  0.000
   112H     0.02821  0.08702   0.972  0.000  0.000
   113H     0.03070  0.08879   0.969  0.000  0.000
   114H     0.04055  0.09869   0.959  0.000  0.000
   115H     0.03766  0.09648   0.962  0.000  0.000
   116H     0.16567  0.37392   0.834  0.000  0.000
   117H     0.03841  0.09649   0.962  0.000  0.000
   118H     0.05628  0.12020   0.944  0.000  0.000
   119H     0.05644  0.12038   0.944  0.000  0.000
   120H     0.03905  0.09710   0.961  0.000  0.000
   121H     0.02813  0.08684   0.972  0.000  0.000
   122H     0.03681  0.09328   0.963  0.000  0.000
   123C    -0.01035 -0.01046   1.077  2.934  0.000
   124C    -0.01196 -0.01207   1.075  2.937  0.000
   125C    -0.01481 -0.01558   1.062  2.953  0.000
   126C    -0.01435 -0.01599   1.091  2.923  0.000
   127C    -0.01624 -0.01698   1.061  2.955  0.000
   128C    -0.01277 -0.01435   1.093  2.919  0.000
   129C    -0.01123 -0.01133   1.076  2.935  0.000
   130C    -0.01181 -0.01191   1.076  2.936  0.000
   131C    -0.01551 -0.01625   1.062  2.954  0.000
   132C    -0.01423 -0.01581   1.092  2.923  0.000
   133C    -0.01601 -0.01675   1.061  2.955  0.000
   134C    -0.01361 -0.01518   1.092  2.921  0.000
   135C    -0.01142 -0.01152   1.076  2.936  0.000
   136C    -0.01136 -0.01145   1.076  2.935  0.000
   137C    -0.01572 -0.01645   1.062  2.954  0.000
   138C    -0.01380 -0.01537   1.092  2.922  0.000
   139C    -0.01558 -0.01631   1.062  2.954  0.000
   140C    -0.01380 -0.01537   1.092  2.922  0.000
   141C    -0.01126 -0.01136   1.076  2.935  0.000
   142C    -0.01116 -0.01126   1.076  2.935  0.000
   143C    -0.01555 -0.01627   1.062  2.954  0.000
   144C    -0.01362 -0.01519   1.092  2.921  0.000
   145C    -0.01541 -0.01613   1.062  2.954  0.000
   146C    -0.01369 -0.01524   1.092  2.922  0.000
   147C    -0.01114 -0.01124   1.076  2.935  0.000
   148C    -0.01115 -0.01125   1.076  2.935  0.000
   149C    -0.01541 -0.01613   1.062  2.954  0.000
   150C    -0.01361 -0.01517   1.092  2.921  0.000
   151C    -0.01542 -0.01614   1.062  2.954  0.000
   152C    -0.01360 -0.01516   1.092  2.921  0.000
   153C    -0.01116 -0.01126   1.076  2.935  0.000
   154C    -0.01126 -0.01136   1.076  2.935  0.000
   155C    -0.01541 -0.01613   1.062  2.954  0.000
   156C    -0.01370 -0.01525   1.092  2.922  0.000
   157C    -0.01555 -0.01628   1.062  2.954  0.000
   158C    -0.01363 -0.01519   1.092  2.921  0.000
   159C    -0.01137 -0.01147   1.076  2.935  0.000
   160C    -0.01142 -0.01151   1.076  2.936  0.000
   161C    -0.01560 -0.01632   1.062  2.954  0.000
   162C    -0.01380 -0.01536   1.092  2.922  0.000
   163C    -0.01572 -0.01645   1.062  2.954  0.000
   164C    -0.01382 -0.01539   1.092  2.922  0.000
   165C    -0.01183 -0.01193   1.076  2.936  0.000
   166C    -0.01120 -0.01130   1.076  2.935  0.000
   167C    -0.01603 -0.01676   1.061  2.955  0.000
   168C    -0.01358 -0.01515   1.092  2.921  0.000
   169C    -0.01548 -0.01622   1.062  2.954  0.000
   170C    -0.01426 -0.01584   1.092  2.923  0.000
   171C    -0.01197 -0.01207   1.075  2.937  0.000
   172C    -0.01033 -0.01043   1.077  2.934  0.000
   173C    -0.01626 -0.01700   1.061  2.955  0.000
   174C    -0.01275 -0.01433   1.093  2.919  0.000
   175C    -0.01480 -0.01557   1.062  2.953  0.000
   176C    -0.01436 -0.01600   1.091  2.923  0.000
   177C     0.01888  0.02612   1.084  2.897  0.000
   178C     0.06794  0.13282   1.110  2.822  0.000
   179C    -0.03208 -0.07655   1.079  2.953  0.000
   180C    -0.03149 -0.07647   1.074  2.957  0.000
   181C     0.06270  0.12622   1.097  2.840  0.000
   182N    -0.15388 -0.50639   1.313  3.841  0.000
   183C     0.01236  0.01803   1.091  2.896  0.000
   184C     0.01831  0.00971   1.093  2.889  0.000
   185C    -0.01410 -0.06718   1.077  2.937  0.000
   186C    -0.00719 -0.05392   1.092  2.915  0.000
   187C     0.04529  0.09979   1.119  2.836  0.000
   188N     0.30030  0.12824   1.469  3.231  0.000
   189O    -0.27172 -0.23078   1.675  4.597  0.000
   190O    -0.27108 -0.23011   1.675  4.596  0.000
   191C    -0.00773 -0.05444   1.092  2.916  0.000
   192C    -0.01534 -0.06833   1.075  2.940  0.000
   193C     0.06046  0.12853   1.117  2.823  0.000
   194C    -0.03641 -0.08246   1.084  2.952  0.000
   195C    -0.03622 -0.08170   1.091  2.945  0.000
   196N    -0.28171 -0.46792   1.292  3.989  0.000
   197C     0.06634  0.13716   1.131  2.803  0.000
   198C     0.01994  0.02717   1.085  2.895  0.000
   199C     0.06814  0.13304   1.110  2.822  0.000
   200C    -0.03144 -0.07590   1.080  2.952  0.000
   201C    -0.03127 -0.07625   1.074  2.957  0.000
   202C     0.06291  0.12636   1.097  2.840  0.000
   203N    -0.15369 -0.50615   1.313  3.841  0.000
   204C     0.01225  0.01792   1.091  2.897  0.000
   205C     0.01826  0.00966   1.093  2.889  0.000
   206C    -0.01522 -0.06822   1.075  2.940  0.000
   207C    -0.00755 -0.05427   1.092  2.916  0.000
   208C     0.04534  0.09983   1.119  2.836  0.000
   209N     0.30034  0.12829   1.469  3.231  0.000
   210O    -0.27137 -0.23041   1.675  4.596  0.000
   211O    -0.27135 -0.23039   1.675  4.596  0.000
   212C    -0.00728 -0.05401   1.092  2.915  0.000
   213C    -0.01420 -0.06728   1.077  2.937  0.000
   214C     0.06065  0.12881   1.117  2.823  0.000
   215C    -0.03628 -0.08234   1.084  2.952  0.000
   216C    -0.03639 -0.08189   1.091  2.946  0.000
   217C     0.06620  0.13693   1.130  2.803  0.000
   218N    -0.28208 -0.46833   1.292  3.990  0.000
   219H     0.03901  0.09709   0.961  0.000  0.000
   220H     0.03640  0.09526   0.964  0.000  0.000
   221H     0.16562  0.37357   0.834  0.000  0.000
   222H     0.03879  0.09683   0.961  0.000  0.000
   223H     0.05654  0.12046   0.943  0.000  0.000
   224H     0.05600  0.11994   0.944  0.000  0.000
   225H     0.03892  0.09696   0.961  0.000  0.000
   226H     0.02727  0.08609   0.973  0.000  0.000
   227H     0.02971  0.08775   0.970  0.000  0.000
   228H     0.03997  0.09805   0.960  0.000  0.000
   229H     0.03686  0.09569   0.963  0.000  0.000
   230H     0.16553  0.37346   0.834  0.000  0.000
   231H     0.03917  0.09718   0.961  0.000  0.000
   232H     0.05635  0.12028   0.944  0.000  0.000
   233H     0.05626  0.12019   0.944  0.000  0.000
   234H     0.03849  0.09655   0.962  0.000  0.000
   235H     0.02726  0.08611   0.973  0.000  0.000
   236H     0.02944  0.08749   0.971  0.000  0.000
   237C     0.01931  0.02655   1.085  2.896  0.000
   238C     0.06802  0.13291   1.110  2.822  0.000
   239C    -0.03182 -0.07628   1.080  2.952  0.000
   240C    -0.03139 -0.07636   1.074  2.957  0.000
   241C     0.06272  0.12621   1.097  2.841  0.000
   242N    -0.15377 -0.50624   1.313  3.841  0.000
   243C     0.01239  0.01805   1.091  2.896  0.000
   244C     0.01833  0.00972   1.093  2.889  0.000
   245C    -0.01414 -0.06721   1.077  2.937  0.000
   246C    -0.00722 -0.05395   1.092  2.915  0.000
   247C     0.04530  0.09977   1.119  2.836  0.000
   248N     0.30034  0.12829   1.469  3.231  0.000
   249O    -0.27154 -0.23058   1.675  4.597  0.000
   250O    -0.27120 -0.23022   1.675  4.596  0.000
   251C    -0.00763 -0.05435   1.092  2.916  0.000
   252C    -0.01526 -0.06827   1.075  2.940  0.000
   253C     0.06044  0.12853   1.117  2.823  0.000
   254C    -0.03640 -0.08245   1.084  2.952  0.000
   255C    -0.03634 -0.08182   1.091  2.946  0.000
   256N    -0.28187 -0.46803   1.292  3.990  0.000
   257C     0.06626  0.13705   1.131  2.803  0.000
   258C     0.01955  0.02679   1.085  2.895  0.000
   259C     0.06811  0.13299   1.110  2.822  0.000
   260C    -0.03162 -0.07608   1.080  2.952  0.000
   261C    -0.03128 -0.07626   1.074  2.957  0.000
   262C     0.06277  0.12623   1.097  2.840  0.000
   263N    -0.15378 -0.50621   1.313  3.841  0.000
   264C     0.01238  0.01804   1.091  2.896  0.000
   265C     0.01832  0.00971   1.093  2.889  0.000
   266C    -0.01523 -0.06823   1.075  2.940  0.000
   267C    -0.00759 -0.05431   1.092  2.916  0.000
   268C     0.04530  0.09978   1.119  2.836  0.000
   269N     0.30035  0.12830   1.469  3.231  0.000
   270O    -0.27127 -0.23030   1.675  4.596  0.000
   271O    -0.27143 -0.23048   1.675  4.596  0.000
   272C    -0.00726 -0.05398   1.092  2.915  0.000
   273C    -0.01417 -0.06725   1.077  2.937  0.000
   274C     0.06044  0.12857   1.117  2.823  0.000
   275C    -0.03645 -0.08250   1.084  2.952  0.000
   276C    -0.03649 -0.08198   1.091  2.946  0.000
   277C     0.06617  0.13694   1.131  2.803  0.000
   278N    -0.28189 -0.46809   1.292  3.990  0.000
   279H     0.03947  0.09755   0.961  0.000  0.000
   280H     0.03658  0.09546   0.963  0.000  0.000
   281H     0.16553  0.37345   0.834  0.000  0.000
   282H     0.03869  0.09672   0.961  0.000  0.000
   283H     0.05639  0.12032   0.944  0.000  0.000
   284H     0.05611  0.12005   0.944  0.000  0.000
   285H     0.03898  0.09700   0.961  0.000  0.000
   286H     0.02716  0.08600   0.973  0.000  0.000
   287H     0.02948  0.08751   0.971  0.000  0.000
   288H     0.03975  0.09782   0.960  0.000  0.000
   289H     0.03673  0.09558   0.963  0.000  0.000
   290H     0.16551  0.37342   0.834  0.000  0.000
   291H     0.03908  0.09709   0.961  0.000  0.000
   292H     0.05622  0.12016   0.944  0.000  0.000
   293H     0.05629  0.12022   0.944  0.000  0.000
   294H     0.03857  0.09661   0.961  0.000  0.000
   295H     0.02707  0.08593   0.973  0.000  0.000
   296H     0.02925  0.08728   0.971  0.000  0.000
   297C     0.01975  0.02700   1.085  2.895  0.000
   298C     0.06811  0.13298   1.110  2.822  0.000
   299C    -0.03153 -0.07600   1.080  2.952  0.000
   300C    -0.03122 -0.07619   1.074  2.957  0.000
   301C     0.06291  0.12639   1.097  2.840  0.000
   302N    -0.15369 -0.50614   1.313  3.841  0.000
   303C     0.01243  0.01808   1.091  2.896  0.000
   304C     0.01830  0.00968   1.093  2.889  0.000
   305C    -0.01415 -0.06722   1.077  2.937  0.000
   306C    -0.00721 -0.05393   1.092  2.915  0.000
   307C     0.04534  0.09981   1.119  2.836  0.000
   308N     0.30041  0.12837   1.469  3.231  0.000
   309O    -0.27142 -0.23046   1.675  4.596  0.000
   310O    -0.27114 -0.23017   1.675  4.596  0.000
   311C    -0.00759 -0.05430   1.092  2.916  0.000
   312C    -0.01525 -0.06826   1.075  2.940  0.000
   313C     0.06059  0.12869   1.117  2.823  0.000
   314C    -0.03632 -0.08236   1.084  2.952  0.000
   315C    -0.03626 -0.08175   1.091  2.945  0.000
   316N    -0.28179 -0.46793   1.292  3.990  0.000
   317C     0.06628  0.13704   1.131  2.803  0.000
   318C     0.01968  0.02692   1.085  2.895  0.000
   319C     0.06815  0.13302   1.110  2.822  0.000
   320C    -0.03150 -0.07596   1.080  2.952  0.000
   321C    -0.03117 -0.07614   1.074  2.957  0.000
   322C     0.06291  0.12637   1.097  2.840  0.000
   323N    -0.15374 -0.50616   1.313  3.841  0.000
   324C     0.01246  0.01811   1.091  2.896  0.000
   325C     0.01830  0.00968   1.093  2.889  0.000
   326C    -0.01524 -0.06824   1.075  2.940  0.000
   327C    -0.00757 -0.05429   1.092  2.916  0.000
   328C     0.04535  0.09982   1.119  2.836  0.000
   329N     0.30042  0.12838   1.469  3.231  0.000
   330O    -0.27116 -0.23018   1.675  4.596  0.000
   331O    -0.27138 -0.23042   1.675  4.596  0.000
   332C    -0.00721 -0.05394   1.092  2.915  0.000
   333C    -0.01415 -0.06723   1.077  2.937  0.000
   334C     0.06058  0.12869   1.117  2.823  0.000
   335C    -0.03635 -0.08240   1.084  2.952  0.000
   336C    -0.03630 -0.08179   1.091  2.945  0.000
   337C     0.06625  0.13701   1.131  2.803  0.000
   338N    -0.28174 -0.46789   1.292  3.990  0.000
   339H     0.03980  0.09786   0.960  0.000  0.000
   340H     0.03680  0.09568   0.963  0.000  0.000
   341H     0.16558  0.37348   0.834  0.000  0.000
   342H     0.03870  0.09673   0.961  0.000  0.000
   343H     0.05643  0.12036   0.944  0.000  0.000
   344H     0.05623  0.12016   0.944  0.000  0.000
   345H     0.03907  0.09708   0.961  0.000  0.000
   346H     0.02727  0.08612   0.973  0.000  0.000
   347H     0.02956  0.08758   0.970  0.000  0.000
   348H     0.03985  0.09791   0.960  0.000  0.000
   349H     0.03685  0.09571   0.963  0.000  0.000
   350H     0.16558  0.37347   0.834  0.000  0.000
   351H     0.03910  0.09712   0.961  0.000  0.000
   352H     0.05626  0.12020   0.944  0.000  0.000
   353H     0.05640  0.12033   0.944  0.000  0.000
   354H     0.03866  0.09670   0.961  0.000  0.000
   355H     0.02724  0.08610   0.973  0.000  0.000
   356H     0.02951  0.08754   0.970  0.000  0.000
   357C     0.01988  0.02712   1.085  2.895  0.000
   358C     0.06817  0.13304   1.110  2.822  0.000
   359C    -0.03142 -0.07588   1.080  2.952  0.000
   360C    -0.03113 -0.07610   1.074  2.957  0.000
   361C     0.06301  0.12648   1.097  2.840  0.000
   362N    -0.15367 -0.50610   1.313  3.841  0.000
   363C     0.01248  0.01813   1.092  2.896  0.000
   364C     0.01828  0.00966   1.093  2.889  0.000
   365C    -0.01415 -0.06723   1.077  2.937  0.000
   366C    -0.00719 -0.05392   1.092  2.915  0.000
   367C     0.04537  0.09984   1.119  2.836  0.000
   368N     0.30046  0.12842   1.469  3.231  0.000
   369O    -0.27135 -0.23039   1.675  4.596  0.000
   370O    -0.27109 -0.23012   1.675  4.596  0.000
   371C    -0.00756 -0.05428   1.092  2.916  0.000
   372C    -0.01525 -0.06825   1.075  2.940  0.000
   373C     0.06067  0.12878   1.117  2.823  0.000
   374C    -0.03628 -0.08233   1.085  2.952  0.000
   375C    -0.03621 -0.08170   1.091  2.945  0.000
   376N    -0.28171 -0.46784   1.292  3.989  0.000
   377C     0.06630  0.13705   1.131  2.803  0.000
   378C     0.01983  0.02708   1.085  2.895  0.000
   379C     0.06818  0.13304   1.110  2.822  0.000
   380C    -0.03141 -0.07588   1.080  2.952  0.000
   381C    -0.03111 -0.07608   1.075  2.957  0.000
   382C     0.06300  0.12647   1.097  2.840  0.000
   383N    -0.15369 -0.50611   1.313  3.841  0.000
   384C     0.01249  0.01814   1.092  2.896  0.000
   385C     0.01828  0.00966   1.093  2.889  0.000
   386C    -0.01525 -0.06825   1.075  2.940  0.000
   387C    -0.00756 -0.05428   1.092  2.916  0.000
   388C     0.04537  0.09984   1.119  2.836  0.000
   389N     0.30046  0.12842   1.469  3.231  0.000
   390O    -0.27110 -0.23012   1.675  4.596  0.000
   391O    -0.27134 -0.23038   1.675  4.596  0.000
   392C    -0.00719 -0.05392   1.092  2.915  0.000
   393C    -0.01415 -0.06723   1.077  2.937  0.000
   394C     0.06067  0.12878   1.117  2.823  0.000
   395C    -0.03629 -0.08234   1.085  2.952  0.000
   396C    -0.03622 -0.08171   1.091  2.945  0.000
   397C     0.06630  0.13705   1.131  2.803  0.000
   398N    -0.28169 -0.46782   1.292  3.989  0.000
   399H     0.03994  0.09800   0.960  0.000  0.000
   400H     0.03692  0.09580   0.963  0.000  0.000
   401H     0.16562  0.37351   0.834  0.000  0.000
   402H     0.03872  0.09675   0.961  0.000  0.000
   403H     0.05647  0.12040   0.944  0.000  0.000
   404H     0.05630  0.12023   0.944  0.000  0.000
   405H     0.03911  0.09713   0.961  0.000  0.000
   406H     0.02735  0.08620   0.973  0.000  0.000
   407H     0.02963  0.08765   0.970  0.000  0.000
   408H     0.03994  0.09800   0.960  0.000  0.000
   409H     0.03693  0.09580   0.963  0.000  0.000
   410H     0.16562  0.37351   0.834  0.000  0.000
   411H     0.03912  0.09714   0.961  0.000  0.000
   412H     0.05630  0.12024   0.944  0.000  0.000
   413H     0.05647  0.12039   0.944  0.000  0.000
   414H     0.03871  0.09674   0.961  0.000  0.000
   415H     0.02734  0.08620   0.973  0.000  0.000
   416H     0.02963  0.08765   0.970  0.000  0.000
   417C     0.01983  0.02707   1.085  2.895  0.000
   418C     0.06818  0.13304   1.110  2.822  0.000
   419C    -0.03141 -0.07588   1.080  2.952  0.000
   420C    -0.03111 -0.07608   1.075  2.957  0.000
   421C     0.06300  0.12647   1.097  2.840  0.000
   422N    -0.15369 -0.50611   1.313  3.841  0.000
   423C     0.01249  0.01814   1.092  2.896  0.000
   424C     0.01828  0.00966   1.093  2.889  0.000
   425C    -0.01415 -0.06723   1.077  2.937  0.000
   426C    -0.00719 -0.05392   1.092  2.915  0.000
   427C     0.04537  0.09984   1.119  2.836  0.000
   428N     0.30046  0.12842   1.469  3.231  0.000
   429O    -0.27134 -0.23038   1.675  4.596  0.000
   430O    -0.27110 -0.23012   1.675  4.596  0.000
   431C    -0.00756 -0.05428   1.092  2.916  0.000
   432C    -0.01525 -0.06825   1.075  2.940  0.000
   433C     0.06067  0.12878   1.117  2.823  0.000
   434C    -0.03629 -0.08234   1.085  2.952  0.000
   435C    -0.03622 -0.08171   1.091  2.945  0.000
   436N    -0.28169 -0.46782   1.292  3.989  0.000
   437C     0.06629  0.13704   1.131  2.803  0.000
   438C     0.01988  0.02712   1.085  2.895  0.000
   439C     0.06817  0.13304   1.110  2.822  0.000
   440C    -0.03142 -0.07588   1.080  2.952  0.000
   441C    -0.03113 -0.07610   1.074  2.957  0.000
   442C     0.06301  0.12648   1.097  2.840  0.000
   443N    -0.15367 -0.50610   1.313  3.841  0.000
   444C     0.01248  0.01812   1.092  2.896  0.000
   445C     0.01828  0.00966   1.093  2.889  0.000
   446C    -0.01525 -0.06825   1.075  2.940  0.000
   447C    -0.00756 -0.05428   1.092  2.916  0.000
   448C     0.04537  0.09984   1.119  2.836  0.000
   449N     0.30046  0.12842   1.469  3.231  0.000
   450O    -0.27110 -0.23012   1.675  4.596  0.000
   451O    -0.27135 -0.23039   1.675  4.596  0.000
   452C    -0.00719 -0.05392   1.092  2.915  0.000
   453C    -0.01415 -0.06723   1.077  2.937  0.000
   454C     0.06067  0.12878   1.117  2.823  0.000
   455C    -0.03628 -0.08233   1.085  2.952  0.000
   456C    -0.03621 -0.08170   1.091  2.945  0.000
   457C     0.06630  0.13705   1.131  2.803  0.000
   458N    -0.28171 -0.46784   1.292  3.989  0.000
   459H     0.03994  0.09800   0.960  0.000  0.000
   460H     0.03693  0.09580   0.963  0.000  0.000
   461H     0.16562  0.37350   0.834  0.000  0.000
   462H     0.03871  0.09674   0.961  0.000  0.000
   463H     0.05647  0.12039   0.944  0.000  0.000
   464H     0.05630  0.12024   0.944  0.000  0.000
   465H     0.03912  0.09714   0.961  0.000  0.000
   466H     0.02734  0.08620   0.973  0.000  0.000
   467H     0.02963  0.08765   0.970  0.000  0.000
   468H     0.03994  0.09800   0.960  0.000  0.000
   469H     0.03692  0.09580   0.963  0.000  0.000
   470H     0.16562  0.37351   0.834  0.000  0.000
   471H     0.03911  0.09713   0.961  0.000  0.000
   472H     0.05630  0.12023   0.944  0.000  0.000
   473H     0.05647  0.12040   0.944  0.000  0.000
   474H     0.03871  0.09675   0.961  0.000  0.000
   475H     0.02735  0.08620   0.973  0.000  0.000
   476H     0.02963  0.08765   0.970  0.000  0.000
   477C     0.01968  0.02692   1.085  2.895  0.000
   478C     0.06815  0.13303   1.110  2.822  0.000
   479C    -0.03150 -0.07596   1.080  2.952  0.000
   480C    -0.03117 -0.07614   1.074  2.957  0.000
   481C     0.06291  0.12637   1.097  2.840  0.000
   482N    -0.15374 -0.50616   1.313  3.841  0.000
   483C     0.01246  0.01811   1.091  2.896  0.000
   484C     0.01830  0.00968   1.093  2.889  0.000
   485C    -0.01415 -0.06723   1.077  2.937  0.000
   486C    -0.00721 -0.05394   1.092  2.915  0.000
   487C     0.04534  0.09981   1.119  2.836  0.000
   488N     0.30042  0.12838   1.469  3.231  0.000
   489O    -0.27139 -0.23043   1.675  4.596  0.000
   490O    -0.27116 -0.23018   1.675  4.596  0.000
   491C    -0.00757 -0.05429   1.092  2.916  0.000
   492C    -0.01525 -0.06824   1.075  2.940  0.000
   493C     0.06058  0.12869   1.117  2.823  0.000
   494C    -0.03636 -0.08240   1.084  2.952  0.000
   495C    -0.03630 -0.08179   1.091  2.946  0.000
   496N    -0.28174 -0.46790   1.292  3.990  0.000
   497C     0.06625  0.13700   1.131  2.803  0.000
   498C     0.01975  0.02699   1.085  2.895  0.000
   499C     0.06811  0.13298   1.110  2.822  0.000
   500C    -0.03154 -0.07600   1.080  2.952  0.000
   501C    -0.03122 -0.07620   1.074  2.957  0.000
   502C     0.06291  0.12639   1.097  2.840  0.000
   503N    -0.15369 -0.50614   1.313  3.841  0.000
   504C     0.01243  0.01808   1.091  2.896  0.000
   505C     0.01830  0.00968   1.093  2.889  0.000
   506C    -0.01525 -0.06826   1.075  2.940  0.000
   507C    -0.00759 -0.05430   1.092  2.916  0.000
   508C     0.04534  0.09981   1.119  2.836  0.000
   509N     0.30041  0.12837   1.469  3.231  0.000
   510O    -0.27114 -0.23017   1.675  4.596  0.000
   511O    -0.27142 -0.23046   1.675  4.596  0.000
   512C    -0.00721 -0.05393   1.092  2.915  0.000
   513C    -0.01415 -0.06723   1.077  2.937  0.000
   514C     0.06059  0.12868   1.117  2.823  0.000
   515C    -0.03632 -0.08236   1.084  2.952  0.000
   516C    -0.03626 -0.08175   1.091  2.945  0.000
   517C     0.06628  0.13704   1.131  2.803  0.000
   518N    -0.28179 -0.46793   1.292  3.990  0.000
   519H     0.03985  0.09792   0.960  0.000  0.000
   520H     0.03684  0.09571   0.963  0.000  0.000
   521H     0.16558  0.37347   0.834  0.000  0.000
   522H     0.03866  0.09670   0.961  0.000  0.000
   523H     0.05640  0.12033   0.944  0.000  0.000
   524H     0.05626  0.12020   0.944  0.000  0.000
   525H     0.03910  0.09711   0.961  0.000  0.000
   526H     0.02723  0.08609   0.973  0.000  0.000
   527H     0.02950  0.08753   0.970  0.000  0.000
   528H     0.03979  0.09786   0.960  0.000  0.000
   529H     0.03680  0.09567   0.963  0.000  0.000
   530H     0.16558  0.37348   0.834  0.000  0.000
   531H     0.03906  0.09708   0.961  0.000  0.000
   532H     0.05623  0.12016   0.944  0.000  0.000
   533H     0.05643  0.12035   0.944  0.000  0.000
   534H     0.03870  0.09673   0.961  0.000  0.000
   535H     0.02727  0.08611   0.973  0.000  0.000
   536H     0.02955  0.08758   0.970  0.000  0.000
   537C     0.01955  0.02679   1.085  2.895  0.000
   538C     0.06811  0.13299   1.110  2.822  0.000
   539C    -0.03162 -0.07608   1.080  2.952  0.000
   540C    -0.03128 -0.07626   1.074  2.957  0.000
   541C     0.06277  0.12622   1.097  2.840  0.000
   542N    -0.15378 -0.50621   1.313  3.841  0.000
   543C     0.01239  0.01804   1.091  2.896  0.000
   544C     0.01832  0.00971   1.093  2.889  0.000
   545C    -0.01417 -0.06725   1.077  2.937  0.000
   546C    -0.00726 -0.05398   1.092  2.915  0.000
   547C     0.04530  0.09978   1.119  2.836  0.000
   548N     0.30035  0.12830   1.469  3.231  0.000
   549O    -0.27145 -0.23049   1.675  4.596  0.000
   550O    -0.27126 -0.23029   1.675  4.596  0.000
   551C    -0.00760 -0.05431   1.092  2.916  0.000
   552C    -0.01524 -0.06823   1.075  2.940  0.000
   553C     0.06044  0.12856   1.117  2.823  0.000
   554C    -0.03645 -0.08250   1.084  2.952  0.000
   555C    -0.03650 -0.08199   1.091  2.946  0.000
   556N    -0.28190 -0.46809   1.292  3.990  0.000
   557C     0.06618  0.13694   1.130  2.803  0.000
   558C     0.01929  0.02653   1.085  2.896  0.000
   559C     0.06802  0.13291   1.110  2.822  0.000
   560C    -0.03183 -0.07629   1.080  2.952  0.000
   561C    -0.03139 -0.07637   1.074  2.957  0.000
   562C     0.06272  0.12620   1.097  2.841  0.000
   563N    -0.15377 -0.50625   1.313  3.841  0.000
   564C     0.01239  0.01805   1.091  2.896  0.000
   565C     0.01833  0.00972   1.093  2.889  0.000
   566C    -0.01526 -0.06827   1.075  2.940  0.000
   567C    -0.00763 -0.05435   1.092  2.916  0.000
   568C     0.04530  0.09977   1.119  2.836  0.000
   569N     0.30034  0.12829   1.469  3.231  0.000
   570O    -0.27120 -0.23023   1.675  4.596  0.000
   571O    -0.27153 -0.23057   1.675  4.597  0.000
   572C    -0.00723 -0.05395   1.092  2.915  0.000
   573C    -0.01414 -0.06721   1.077  2.937  0.000
   574C     0.06044  0.12853   1.117  2.823  0.000
   575C    -0.03640 -0.08245   1.084  2.952  0.000
   576C    -0.03634 -0.08183   1.091  2.946  0.000
   577C     0.06626  0.13704   1.131  2.803  0.000
   578N    -0.28187 -0.46803   1.292  3.990  0.000
   579H     0.03975  0.09783   0.960  0.000  0.000
   580H     0.03673  0.09558   0.963  0.000  0.000
   581H     0.16551  0.37341   0.834  0.000  0.000
   582H     0.03858  0.09662   0.961  0.000  0.000
   583H     0.05630  0.12022   0.944  0.000  0.000
   584H     0.05622  0.12015   0.944  0.000  0.000
   585H     0.03907  0.09709   0.961  0.000  0.000
   586H     0.02706  0.08593   0.973  0.000  0.000
   587H     0.02923  0.08726   0.971  0.000  0.000
   588H     0.03948  0.09756   0.961  0.000  0.000
   589H     0.03658  0.09545   0.963  0.000  0.000
   590H     0.16554  0.37345   0.834  0.000  0.000
   591H     0.03898  0.09701   0.961  0.000  0.000
   592H     0.05612  0.12005   0.944  0.000  0.000
   593H     0.05639  0.12031   0.944  0.000  0.000
   594H     0.03869  0.09672   0.961  0.000  0.000
   595H     0.02716  0.08600   0.973  0.000  0.000
   596H     0.02948  0.08752   0.971  0.000  0.000
   597C     0.01997  0.02720   1.085  2.895  0.000
   598C     0.06813  0.13303   1.110  2.822  0.000
   599C    -0.03142 -0.07588   1.080  2.952  0.000
   600C    -0.03126 -0.07623   1.074  2.957  0.000
   601C     0.06292  0.12637   1.097  2.840  0.000
   602N    -0.15368 -0.50613   1.313  3.841  0.000
   603C     0.01226  0.01793   1.091  2.897  0.000
   604C     0.01826  0.00966   1.093  2.889  0.000
   605C    -0.01419 -0.06728   1.077  2.937  0.000
   606C    -0.00723 -0.05396   1.092  2.915  0.000
   607C     0.04533  0.09981   1.119  2.836  0.000
   608N     0.30034  0.12830   1.469  3.231  0.000
   609O    -0.27147 -0.23052   1.675  4.596  0.000
   610O    -0.27121 -0.23024   1.675  4.596  0.000
   611C    -0.00760 -0.05431   1.092  2.916  0.000
   612C    -0.01527 -0.06825   1.075  2.940  0.000
   613C     0.06068  0.12884   1.117  2.823  0.000
   614C    -0.03629 -0.08234   1.084  2.952  0.000
   615C    -0.03637 -0.08187   1.091  2.946  0.000
   616N    -0.28212 -0.46834   1.292  3.990  0.000
   617C     0.06621  0.13695   1.130  2.803  0.000
   618C     0.01884  0.02608   1.084  2.897  0.000
   619C     0.06798  0.13285   1.110  2.822  0.000
   620C    -0.03204 -0.07651   1.080  2.953  0.000
   621C    -0.03147 -0.07645   1.074  2.957  0.000
   622C     0.06274  0.12625   1.097  2.840  0.000
   623N    -0.15391 -0.50640   1.313  3.841  0.000
   624C     0.01237  0.01803   1.091  2.896  0.000
   625C     0.01832  0.00972   1.093  2.889  0.000
   626C    -0.01534 -0.06835   1.075  2.940  0.000
   627C    -0.00770 -0.05442   1.092  2.916  0.000
   628C     0.04529  0.09978   1.119  2.836  0.000
   629N     0.30031  0.12826   1.469  3.231  0.000
   630O    -0.27116 -0.23019   1.675  4.596  0.000
   631O    -0.27160 -0.23065   1.675  4.597  0.000
   632C    -0.00722 -0.05394   1.092  2.915  0.000
   633C    -0.01413 -0.06720   1.077  2.937  0.000
   634C     0.06046  0.12854   1.117  2.823  0.000
   635C    -0.03642 -0.08247   1.084  2.952  0.000
   636C    -0.03621 -0.08169   1.091  2.945  0.000
   637C     0.06634  0.13715   1.131  2.803  0.000
   638N    -0.28170 -0.46791   1.292  3.989  0.000
   639H     0.03999  0.09808   0.960  0.000  0.000
   640H     0.03689  0.09573   0.963  0.000  0.000
   641H     0.16554  0.37347   0.834  0.000  0.000
   642H     0.03861  0.09665   0.961  0.000  0.000
   643H     0.05639  0.12032   0.944  0.000  0.000
   644H     0.05627  0.12021   0.944  0.000  0.000
   645H     0.03911  0.09712   0.961  0.000  0.000
   646H     0.02726  0.08612   0.973  0.000  0.000
   647H     0.02939  0.08744   0.971  0.000  0.000
   648H     0.03898  0.09707   0.961  0.000  0.000
   649H     0.03643  0.09530   0.964  0.000  0.000
   650H     0.16564  0.37357   0.834  0.000  0.000
   651H     0.03893  0.09695   0.961  0.000  0.000
   652H     0.05608  0.12001   0.944  0.000  0.000
   653H     0.05650  0.12043   0.943  0.000  0.000
   654H     0.03881  0.09684   0.961  0.000  0.000
   655H     0.02728  0.08610   0.973  0.000  0.000
   656H     0.02971  0.08776   0.970  0.000  0.000

Wiberg/Mayer (AO) data.
largest (>0.10) Wiberg bond orders for each atom

 ---------------------------------------------------------------------------
     #   Z sym  total        # sym  WBO       # sym  WBO       # sym  WBO
 ---------------------------------------------------------------------------
     1   6 C    3.821 --    41 C    1.387     2 C    1.375    43 H    0.995
     2   6 C    3.924 --     1 C    1.375     3 C    1.238     6 N    1.229
     3   6 C    3.842 --     4 C    1.603     2 C    1.238    44 H    0.991
     4   6 C    3.824 --     3 C    1.603     5 C    1.248    45 H    0.997
     5   6 C    3.900 --     7 C    1.340     4 C    1.248     6 N    1.234
     6   7 N    3.250 --     5 C    1.234     2 C    1.229    46 H    0.960
     7   6 C    3.842 --    17 C    1.365     5 C    1.340     8 C    1.057
     8   6 C    3.896 --    16 C    1.414     9 C    1.413     7 C    1.057
     9   6 C    3.862 --    10 C    1.466     8 C    1.413    47 H    0.987
    10   6 C    3.898 --     9 C    1.466    11 C    1.406    48 H    0.985
    11   6 C    3.936 --    15 C    1.407    10 C    1.406    12 N    1.005
    12   7 N    4.110 --    13 O    1.569    14 O    1.568    11 C    1.005
    13   8 O    2.011 --    12 N    1.569    14 O    0.384
    14   8 O    2.010 --    12 N    1.568    13 O    0.384
    15   6 C    3.898 --    16 C    1.465    11 C    1.407    49 H    0.985
    16   6 C    3.858 --    15 C    1.465     8 C    1.414    50 H    0.987
    17   6 C    3.925 --     7 C    1.365    20 N    1.359    18 C    1.159
    18   6 C    3.838 --    19 C    1.696    17 C    1.159    51 H    0.997
    19   6 C    3.853 --    18 C    1.696    21 C    1.164    52 H    0.998
    20   7 N    2.569 --    21 C    1.411    17 C    1.359
    21   6 C    3.942 --    20 N    1.411    22 C    1.290    19 C    1.164
    22   6 C    3.857 --    21 C    1.290    23 C    1.290   126 C    1.218
    23   6 C    3.903 --    22 C    1.290    24 C    1.264    27 N    1.249
    24   6 C    3.837 --    25 C    1.588    23 C    1.264    53 H    0.997
    25   6 C    3.817 --    24 C    1.588    26 C    1.255    54 H    0.997
    26   6 C    3.895 --    28 C    1.344    25 C    1.255    27 N    1.225
    27   7 N    3.259 --    23 C    1.249    26 C    1.225    55 H    0.959
    28   6 C    3.829 --    38 C    1.353    26 C    1.344    29 C    1.059
    29   6 C    3.895 --    30 C    1.413    37 C    1.412    28 C    1.059
    30   6 C    3.861 --    31 C    1.466    29 C    1.413    56 H    0.987
    31   6 C    3.898 --    30 C    1.466    32 C    1.406    57 H    0.985
    32   6 C    3.935 --    31 C    1.406    36 C    1.406    33 N    1.006
    33   7 N    4.110 --    34 O    1.568    35 O    1.568    32 C    1.006
    34   8 O    2.010 --    33 N    1.568    35 O    0.383
    35   8 O    2.009 --    33 N    1.568    34 O    0.383
    36   6 C    3.897 --    37 C    1.466    32 C    1.406    58 H    0.985
    37   6 C    3.857 --    36 C    1.466    29 C    1.412    59 H    0.986
    38   6 C    3.946 --    42 N    1.386    28 C    1.353    39 C    1.151
    39   6 C    3.842 --    40 C    1.710    38 C    1.151    60 H    0.998
    40   6 C    3.865 --    39 C    1.710    41 C    1.145    61 H    0.991
    41   6 C    3.967 --     1 C    1.387    42 N    1.373    40 C    1.145
    42   7 N    2.558 --    38 C    1.386    41 C    1.373
    43   1 H    1.029 --     1 C    0.995
    44   1 H    1.013 --     3 C    0.991
    45   1 H    1.028 --     4 C    0.997
    46   1 H    1.079 --     6 N    0.960
    47   1 H    1.044 --     9 C    0.987
    48   1 H    1.027 --    10 C    0.985
    49   1 H    1.027 --    15 C    0.985
    50   1 H    1.040 --    16 C    0.987
    51   1 H    1.032 --    18 C    0.997
    52   1 H    1.029 --    19 C    0.998
    53   1 H    1.025 --    24 C    0.997
    54   1 H    1.028 --    25 C    0.997
    55   1 H    1.083 --    27 N    0.959
    56   1 H    1.043 --    30 C    0.987
    57   1 H    1.028 --    31 C    0.985
    58   1 H    1.027 --    36 C    0.985
    59   1 H    1.040 --    37 C    0.986
    60   1 H    1.032 --    39 C    0.998
    61   1 H    1.016 --    40 C    0.991
    62   6 C    3.822 --   102 C    1.387    63 C    1.375   104 H    0.995
    63   6 C    3.924 --    62 C    1.375    64 C    1.238    67 N    1.229
    64   6 C    3.843 --    65 C    1.603    63 C    1.238   105 H    0.991
    65   6 C    3.824 --    64 C    1.603    66 C    1.248   106 H    0.997
    66   6 C    3.901 --    68 C    1.340    65 C    1.248    67 N    1.234
    67   7 N    3.250 --    66 C    1.234    63 C    1.229   107 H    0.960
    68   6 C    3.842 --    78 C    1.365    66 C    1.340    69 C    1.057
    69   6 C    3.896 --    77 C    1.414    70 C    1.414    68 C    1.057
    70   6 C    3.862 --    71 C    1.465    69 C    1.414   108 H    0.987
    71   6 C    3.898 --    70 C    1.465    72 C    1.406   109 H    0.984
    72   6 C    3.936 --    76 C    1.407    71 C    1.406    73 N    1.005
    73   7 N    4.110 --    74 O    1.569    75 O    1.568    72 C    1.005
    74   8 O    2.011 --    73 N    1.569    75 O    0.384
    75   8 O    2.010 --    73 N    1.568    74 O    0.384
    76   6 C    3.898 --    77 C    1.465    72 C    1.407   110 H    0.985
    77   6 C    3.858 --    76 C    1.465    69 C    1.414   111 H    0.987
    78   6 C    3.925 --    68 C    1.365    81 N    1.359    79 C    1.159
    79   6 C    3.838 --    80 C    1.696    78 C    1.159   112 H    0.997
    80   6 C    3.854 --    79 C    1.696    82 C    1.163   113 H    0.998
    81   7 N    2.570 --    82 C    1.411    78 C    1.359
    82   6 C    3.943 --    81 N    1.411    83 C    1.290    80 C    1.163
    83   6 C    3.858 --    82 C    1.290    84 C    1.290   176 C    1.217
    84   6 C    3.903 --    83 C    1.290    85 C    1.264    88 N    1.249
    85   6 C    3.837 --    86 C    1.589    84 C    1.264   114 H    0.997
    86   6 C    3.817 --    85 C    1.589    87 C    1.255   115 H    0.997
    87   6 C    3.895 --    89 C    1.344    86 C    1.255    88 N    1.225
    88   7 N    3.259 --    84 C    1.249    87 C    1.225   116 H    0.959
    89   6 C    3.829 --    99 C    1.353    87 C    1.344    90 C    1.059
    90   6 C    3.895 --    91 C    1.413    98 C    1.412    89 C    1.059
    91   6 C    3.861 --    92 C    1.466    90 C    1.413   117 H    0.987
    92   6 C    3.898 --    91 C    1.466    93 C    1.406   118 H    0.985
    93   6 C    3.935 --    97 C    1.406    92 C    1.406    94 N    1.005
    94   7 N    4.110 --    95 O    1.568    96 O    1.568    93 C    1.005
    95   8 O    2.010 --    94 N    1.568    96 O    0.383
    96   8 O    2.010 --    94 N    1.568    95 O    0.383
    97   6 C    3.897 --    98 C    1.466    93 C    1.406   119 H    0.985
    98   6 C    3.857 --    97 C    1.466    90 C    1.412   120 H    0.986
    99   6 C    3.946 --   103 N    1.386    89 C    1.353   100 C    1.151
   100   6 C    3.842 --   101 C    1.710    99 C    1.151   121 H    0.998
   101   6 C    3.865 --   100 C    1.710   102 C    1.145   122 H    0.991
   102   6 C    3.967 --    62 C    1.387   103 N    1.373   101 C    1.145
   103   7 N    2.559 --    99 C    1.386   102 C    1.373
   104   1 H    1.029 --    62 C    0.995
   105   1 H    1.013 --    64 C    0.991
   106   1 H    1.028 --    65 C    0.997
   107   1 H    1.079 --    67 N    0.960
   108   1 H    1.043 --    70 C    0.987
   109   1 H    1.027 --    71 C    0.984
   110   1 H    1.027 --    76 C    0.985
   111   1 H    1.040 --    77 C    0.987
   112   1 H    1.032 --    79 C    0.997
   113   1 H    1.029 --    80 C    0.998
   114   1 H    1.025 --    85 C    0.997
   115   1 H    1.028 --    86 C    0.997
   116   1 H    1.083 --    88 N    0.959
   117   1 H    1.043 --    91 C    0.987
   118   1 H    1.028 --    92 C    0.985
   119   1 H    1.027 --    97 C    0.985
   120   1 H    1.040 --    98 C    0.986
   121   1 H    1.032 --   100 C    0.998
   122   1 H    1.016 --   101 C    0.991
   123   6 C    3.838 --   124 C    2.379   127 C    1.355   126 C    0.172
   124   6 C    3.835 --   123 C    2.379   125 C    1.353   128 C    0.172
   125   6 C    3.812 --   126 C    2.478   124 C    1.353
   126   6 C    3.769 --   125 C    2.478    22 C    1.218   123 C    0.172
   127   6 C    3.807 --   128 C    2.473   123 C    1.355
   128   6 C    3.771 --   127 C    2.473   177 C    1.222   124 C    0.172
   129   6 C    3.835 --   130 C    2.372   133 C    1.359   132 C    0.171
   130   6 C    3.835 --   129 C    2.372   131 C    1.359   134 C    0.171
   131   6 C    3.806 --   132 C    2.468   130 C    1.359
   132   6 C    3.769 --   131 C    2.468   198 C    1.226   129 C    0.171
   133   6 C    3.806 --   134 C    2.468   129 C    1.359
   134   6 C    3.769 --   133 C    2.468   237 C    1.226   130 C    0.171
   135   6 C    3.836 --   136 C    2.373   139 C    1.358   138 C    0.171
   136   6 C    3.836 --   135 C    2.373   137 C    1.359   140 C    0.171
   137   6 C    3.807 --   138 C    2.469   136 C    1.359
   138   6 C    3.769 --   137 C    2.469   258 C    1.226   135 C    0.171
   139   6 C    3.807 --   140 C    2.469   135 C    1.358
   140   6 C    3.769 --   139 C    2.469   297 C    1.226   136 C    0.171
   141   6 C    3.836 --   142 C    2.374   145 C    1.358   144 C    0.171
   142   6 C    3.836 --   141 C    2.374   143 C    1.358   146 C    0.171
   143   6 C    3.807 --   144 C    2.470   142 C    1.358
   144   6 C    3.770 --   143 C    2.470   318 C    1.225   141 C    0.171
   145   6 C    3.807 --   146 C    2.470   141 C    1.358
   146   6 C    3.770 --   145 C    2.470   357 C    1.225   142 C    0.171
   147   6 C    3.836 --   148 C    2.374   151 C    1.358   150 C    0.171
   148   6 C    3.836 --   147 C    2.374   149 C    1.358   152 C    0.171
   149   6 C    3.807 --   150 C    2.470   148 C    1.358
   150   6 C    3.770 --   149 C    2.470   378 C    1.225   147 C    0.171
   151   6 C    3.807 --   152 C    2.470   147 C    1.358
   152   6 C    3.770 --   151 C    2.470   417 C    1.225   148 C    0.171
   153   6 C    3.836 --   154 C    2.374   157 C    1.358   156 C    0.171
   154   6 C    3.836 --   153 C    2.374   155 C    1.358   158 C    0.171
   155   6 C    3.807 --   156 C    2.470   154 C    1.358
   156   6 C    3.770 --   155 C    2.470   438 C    1.225   153 C    0.171
   157   6 C    3.807 --   158 C    2.470   153 C    1.358
   158   6 C    3.770 --   157 C    2.470   477 C    1.225   154 C    0.171
   159   6 C    3.836 --   160 C    2.373   163 C    1.359   162 C    0.171
   160   6 C    3.836 --   159 C    2.373   161 C    1.358   164 C    0.171
   161   6 C    3.807 --   162 C    2.469   160 C    1.358
   162   6 C    3.769 --   161 C    2.469   498 C    1.226   159 C    0.171
   163   6 C    3.807 --   164 C    2.469   159 C    1.359
   164   6 C    3.769 --   163 C    2.469   537 C    1.226   160 C    0.171
   165   6 C    3.835 --   166 C    2.372   169 C    1.359   168 C    0.171
   166   6 C    3.835 --   165 C    2.372   167 C    1.359   170 C    0.171
   167   6 C    3.806 --   168 C    2.468   166 C    1.359
   168   6 C    3.769 --   167 C    2.468   558 C    1.226   165 C    0.171
   169   6 C    3.806 --   170 C    2.469   165 C    1.359
   170   6 C    3.769 --   169 C    2.469   597 C    1.226   166 C    0.171
   171   6 C    3.835 --   172 C    2.380   175 C    1.353   174 C    0.172
   172   6 C    3.838 --   171 C    2.380   173 C    1.354   176 C    0.172
   173   6 C    3.807 --   174 C    2.474   172 C    1.354
   174   6 C    3.771 --   173 C    2.474   618 C    1.221   171 C    0.172
   175   6 C    3.812 --   176 C    2.479   171 C    1.353
   176   6 C    3.769 --   175 C    2.479    83 C    1.217   172 C    0.172
   177   6 C    3.837 --   217 C    1.287   178 C    1.283   128 C    1.222
   178   6 C    3.904 --   177 C    1.283   179 C    1.269   182 N    1.250
   179   6 C    3.831 --   180 C    1.581   178 C    1.269   219 H    0.997
   180   6 C    3.817 --   179 C    1.581   181 C    1.261   220 H    0.997
   181   6 C    3.887 --   183 C    1.336   180 C    1.261   182 N    1.224
   182   7 N    3.251 --   178 C    1.250   181 C    1.224   221 H    0.960
   183   6 C    3.833 --   193 C    1.370   181 C    1.336   184 C    1.056
   184   6 C    3.896 --   185 C    1.415   192 C    1.414   183 C    1.056
   185   6 C    3.862 --   186 C    1.465   184 C    1.415   222 H    0.987
   186   6 C    3.898 --   185 C    1.465   187 C    1.407   223 H    0.985
   187   6 C    3.936 --   186 C    1.407   191 C    1.407   188 N    1.005
   188   7 N    4.110 --   190 O    1.569   189 O    1.568   187 C    1.005
   189   8 O    2.010 --   188 N    1.568   190 O    0.383
   190   8 O    2.011 --   188 N    1.569   189 O    0.383
   191   6 C    3.898 --   192 C    1.465   187 C    1.407   224 H    0.985
   192   6 C    3.858 --   191 C    1.465   184 C    1.414   225 H    0.987
   193   6 C    3.924 --   183 C    1.370   196 N    1.355   194 C    1.159
   194   6 C    3.838 --   195 C    1.695   193 C    1.159   226 H    0.997
   195   6 C    3.851 --   194 C    1.695   197 C    1.165   227 H    0.998
   196   7 N    2.554 --   197 C    1.415   193 C    1.355
   197   6 C    3.943 --   196 N    1.415   198 C    1.285   195 C    1.165
   198   6 C    3.837 --   197 C    1.285   199 C    1.282   132 C    1.226
   199   6 C    3.904 --   198 C    1.282   200 C    1.270   203 N    1.251
   200   6 C    3.831 --   201 C    1.580   199 C    1.270   228 H    0.997
   201   6 C    3.817 --   200 C    1.580   202 C    1.261   229 H    0.997
   202   6 C    3.887 --   204 C    1.335   201 C    1.261   203 N    1.225
   203   7 N    3.252 --   199 C    1.251   202 C    1.225   230 H    0.960
   204   6 C    3.832 --   214 C    1.370   202 C    1.335   205 C    1.056
   205   6 C    3.896 --   206 C    1.415   213 C    1.414   204 C    1.056
   206   6 C    3.858 --   207 C    1.465   205 C    1.415   231 H    0.987
   207   6 C    3.897 --   206 C    1.465   208 C    1.407   232 H    0.985
   208   6 C    3.936 --   207 C    1.407   212 C    1.407   209 N    1.005
   209   7 N    4.110 --   210 O    1.569   211 O    1.569   208 C    1.005
   210   8 O    2.011 --   209 N    1.569   211 O    0.384
   211   8 O    2.011 --   209 N    1.569   210 O    0.384
   212   6 C    3.898 --   213 C    1.465   208 C    1.407   233 H    0.985
   213   6 C    3.862 --   212 C    1.465   205 C    1.414   234 H    0.987
   214   6 C    3.925 --   204 C    1.370   218 N    1.355   215 C    1.159
   215   6 C    3.838 --   216 C    1.695   214 C    1.159   235 H    0.998
   216   6 C    3.851 --   215 C    1.695   217 C    1.165   236 H    0.998
   217   6 C    3.943 --   218 N    1.413   177 C    1.287   216 C    1.165
   218   7 N    2.552 --   217 C    1.413   214 C    1.355
   219   1 H    1.025 --   179 C    0.997
   220   1 H    1.029 --   180 C    0.997
   221   1 H    1.080 --   182 N    0.960
   222   1 H    1.043 --   185 C    0.987
   223   1 H    1.028 --   186 C    0.985
   224   1 H    1.028 --   191 C    0.985
   225   1 H    1.040 --   192 C    0.987
   226   1 H    1.032 --   194 C    0.997
   227   1 H    1.029 --   195 C    0.998
   228   1 H    1.025 --   200 C    0.997
   229   1 H    1.028 --   201 C    0.997
   230   1 H    1.080 --   203 N    0.960
   231   1 H    1.040 --   206 C    0.987
   232   1 H    1.027 --   207 C    0.985
   233   1 H    1.028 --   212 C    0.985
   234   1 H    1.043 --   213 C    0.987
   235   1 H    1.032 --   215 C    0.998
   236   1 H    1.029 --   216 C    0.998
   237   6 C    3.837 --   277 C    1.285   238 C    1.282   134 C    1.226
   238   6 C    3.904 --   237 C    1.282   239 C    1.270   242 N    1.251
   239   6 C    3.831 --   240 C    1.580   238 C    1.270   279 H    0.997
   240   6 C    3.818 --   239 C    1.580   241 C    1.261   280 H    0.997
   241   6 C    3.887 --   243 C    1.335   240 C    1.261   242 N    1.224
   242   7 N    3.251 --   238 C    1.251   241 C    1.224   281 H    0.960
   243   6 C    3.832 --   253 C    1.371   241 C    1.335   244 C    1.055
   244   6 C    3.896 --   245 C    1.415   252 C    1.415   243 C    1.055
   245   6 C    3.862 --   246 C    1.465   244 C    1.415   282 H    0.987
   246   6 C    3.898 --   245 C    1.465   247 C    1.407   283 H    0.985
   247   6 C    3.936 --   251 C    1.407   246 C    1.407   248 N    1.004
   248   7 N    4.110 --   250 O    1.569   249 O    1.569   247 C    1.004
   249   8 O    2.011 --   248 N    1.569   250 O    0.384
   250   8 O    2.011 --   248 N    1.569   249 O    0.384
   251   6 C    3.897 --   252 C    1.465   247 C    1.407   284 H    0.985
   252   6 C    3.858 --   251 C    1.465   244 C    1.415   285 H    0.987
   253   6 C    3.924 --   243 C    1.371   256 N    1.355   254 C    1.159
   254   6 C    3.838 --   255 C    1.695   253 C    1.159   286 H    0.998
   255   6 C    3.851 --   254 C    1.695   257 C    1.165   287 H    0.998
   256   7 N    2.553 --   257 C    1.414   253 C    1.355
   257   6 C    3.943 --   256 N    1.414   258 C    1.285   255 C    1.165
   258   6 C    3.837 --   257 C    1.285   259 C    1.282   138 C    1.226
   259   6 C    3.904 --   258 C    1.282   260 C    1.270   263 N    1.251
   260   6 C    3.831 --   261 C    1.581   259 C    1.270   288 H    0.997
   261   6 C    3.819 --   260 C    1.581   262 C    1.261   289 H    0.997
   262   6 C    3.887 --   264 C    1.336   261 C    1.261   263 N    1.224
   263   7 N    3.251 --   259 C    1.251   262 C    1.224   290 H    0.960
   264   6 C    3.832 --   274 C    1.371   262 C    1.336   265 C    1.055
   265   6 C    3.896 --   266 C    1.415   273 C    1.414   264 C    1.055
   266   6 C    3.858 --   267 C    1.465   265 C    1.415   291 H    0.987
   267   6 C    3.898 --   266 C    1.465   268 C    1.407   292 H    0.985
   268   6 C    3.936 --   267 C    1.407   272 C    1.407   269 N    1.004
   269   7 N    4.110 --   270 O    1.569   271 O    1.569   268 C    1.004
   270   8 O    2.011 --   269 N    1.569   271 O    0.384
   271   8 O    2.011 --   269 N    1.569   270 O    0.384
   272   6 C    3.898 --   273 C    1.465   268 C    1.407   293 H    0.985
   273   6 C    3.862 --   272 C    1.465   265 C    1.414   294 H    0.987
   274   6 C    3.924 --   264 C    1.371   278 N    1.355   275 C    1.159
   275   6 C    3.838 --   276 C    1.695   274 C    1.159   295 H    0.998
   276   6 C    3.851 --   275 C    1.695   277 C    1.165   296 H    0.998
   277   6 C    3.943 --   278 N    1.414   237 C    1.285   276 C    1.165
   278   7 N    2.553 --   277 C    1.414   274 C    1.355
   279   1 H    1.025 --   239 C    0.997
   280   1 H    1.028 --   240 C    0.997
   281   1 H    1.080 --   242 N    0.960
   282   1 H    1.043 --   245 C    0.987
   283   1 H    1.028 --   246 C    0.985
   284   1 H    1.027 --   251 C    0.985
   285   1 H    1.040 --   252 C    0.987
   286   1 H    1.034 --   254 C    0.998
   287   1 H    1.029 --   255 C    0.998
   288   1 H    1.025 --   260 C    0.997
   289   1 H    1.028 --   261 C    0.997
   290   1 H    1.080 --   263 N    0.960
   291   1 H    1.040 --   266 C    0.987
   292   1 H    1.027 --   267 C    0.985
   293   1 H    1.028 --   272 C    0.985
   294   1 H    1.043 --   273 C    0.987
   295   1 H    1.034 --   275 C    0.998
   296   1 H    1.029 --   276 C    0.998
   297   6 C    3.839 --   337 C    1.286   298 C    1.282   140 C    1.226
   298   6 C    3.904 --   297 C    1.282   299 C    1.270   302 N    1.250
   299   6 C    3.832 --   300 C    1.581   298 C    1.270   339 H    0.997
   300   6 C    3.819 --   299 C    1.581   301 C    1.261   340 H    0.997
   301   6 C    3.887 --   303 C    1.336   300 C    1.261   302 N    1.225
   302   7 N    3.252 --   298 C    1.250   301 C    1.225   341 H    0.960
   303   6 C    3.833 --   313 C    1.371   301 C    1.336   304 C    1.055
   304   6 C    3.896 --   305 C    1.415   312 C    1.415   303 C    1.055
   305   6 C    3.862 --   306 C    1.465   304 C    1.415   342 H    0.987
   306   6 C    3.898 --   305 C    1.465   307 C    1.407   343 H    0.985
   307   6 C    3.936 --   311 C    1.407   306 C    1.407   308 N    1.004
   308   7 N    4.110 --   310 O    1.569   309 O    1.569   307 C    1.004
   309   8 O    2.011 --   308 N    1.569   310 O    0.384
   310   8 O    2.011 --   308 N    1.569   309 O    0.384
   311   6 C    3.897 --   312 C    1.465   307 C    1.407   344 H    0.985
   312   6 C    3.858 --   311 C    1.465   304 C    1.415   345 H    0.986
   313   6 C    3.925 --   303 C    1.371   316 N    1.355   314 C    1.159
   314   6 C    3.838 --   315 C    1.695   313 C    1.159   346 H    0.998
   315   6 C    3.852 --   314 C    1.695   317 C    1.165   347 H    0.998
   316   7 N    2.554 --   317 C    1.414   313 C    1.355
   317   6 C    3.943 --   316 N    1.414   318 C    1.286   315 C    1.165
   318   6 C    3.839 --   317 C    1.286   319 C    1.283   144 C    1.225
   319   6 C    3.904 --   318 C    1.283   320 C    1.270   323 N    1.251
   320   6 C    3.832 --   321 C    1.581   319 C    1.270   348 H    0.997
   321   6 C    3.819 --   320 C    1.581   322 C    1.261   349 H    0.997
   322   6 C    3.887 --   324 C    1.336   321 C    1.261   323 N    1.224
   323   7 N    3.251 --   319 C    1.251   322 C    1.224   350 H    0.960
   324   6 C    3.833 --   334 C    1.370   322 C    1.336   325 C    1.055
   325   6 C    3.896 --   326 C    1.415   333 C    1.415   324 C    1.055
   326   6 C    3.858 --   327 C    1.464   325 C    1.415   351 H    0.986
   327   6 C    3.897 --   326 C    1.464   328 C    1.407   352 H    0.985
   328   6 C    3.936 --   327 C    1.407   332 C    1.407   329 N    1.004
   329   7 N    4.110 --   330 O    1.569   331 O    1.569   328 C    1.004
   330   8 O    2.011 --   329 N    1.569   331 O    0.384
   331   8 O    2.011 --   329 N    1.569   330 O    0.384
   332   6 C    3.898 --   333 C    1.465   328 C    1.407   353 H    0.985
   333   6 C    3.862 --   332 C    1.465   325 C    1.415   354 H    0.987
   334   6 C    3.924 --   324 C    1.370   338 N    1.356   335 C    1.159
   335   6 C    3.838 --   336 C    1.695   334 C    1.159   355 H    0.998
   336   6 C    3.852 --   335 C    1.695   337 C    1.166   356 H    0.998
   337   6 C    3.943 --   338 N    1.414   297 C    1.286   336 C    1.166
   338   7 N    2.554 --   337 C    1.414   334 C    1.356
   339   1 H    1.025 --   299 C    0.997
   340   1 H    1.028 --   300 C    0.997
   341   1 H    1.080 --   302 N    0.960
   342   1 H    1.043 --   305 C    0.987
   343   1 H    1.028 --   306 C    0.985
   344   1 H    1.027 --   311 C    0.985
   345   1 H    1.040 --   312 C    0.986
   346   1 H    1.034 --   314 C    0.998
   347   1 H    1.029 --   315 C    0.998
   348   1 H    1.025 --   320 C    0.997
   349   1 H    1.028 --   321 C    0.997
   350   1 H    1.080 --   323 N    0.960
   351   1 H    1.040 --   326 C    0.986
   352   1 H    1.027 --   327 C    0.985
   353   1 H    1.028 --   332 C    0.985
   354   1 H    1.043 --   333 C    0.987
   355   1 H    1.034 --   335 C    0.998
   356   1 H    1.029 --   336 C    0.998
   357   6 C    3.839 --   397 C    1.286   358 C    1.283   146 C    1.225
   358   6 C    3.904 --   357 C    1.283   359 C    1.270   362 N    1.250
   359   6 C    3.832 --   360 C    1.581   358 C    1.270   399 H    0.997
   360   6 C    3.819 --   359 C    1.581   361 C    1.261   400 H    0.997
   361   6 C    3.888 --   363 C    1.336   360 C    1.261   362 N    1.225
   362   7 N    3.252 --   358 C    1.250   361 C    1.225   401 H    0.960
   363   6 C    3.833 --   373 C    1.370   361 C    1.336   364 C    1.055
   364   6 C    3.896 --   372 C    1.415   365 C    1.415   363 C    1.055
   365   6 C    3.862 --   366 C    1.465   364 C    1.415   402 H    0.987
   366   6 C    3.898 --   365 C    1.465   367 C    1.407   403 H    0.985
   367   6 C    3.936 --   371 C    1.407   366 C    1.407   368 N    1.004
   368   7 N    4.110 --   370 O    1.569   369 O    1.569   367 C    1.004
   369   8 O    2.011 --   368 N    1.569   370 O    0.384
   370   8 O    2.011 --   368 N    1.569   369 O    0.384
   371   6 C    3.897 --   372 C    1.465   367 C    1.407   404 H    0.985
   372   6 C    3.858 --   371 C    1.465   364 C    1.415   405 H    0.986
   373   6 C    3.925 --   363 C    1.370   376 N    1.356   374 C    1.159
   374   6 C    3.838 --   375 C    1.695   373 C    1.159   406 H    0.998
   375   6 C    3.852 --   374 C    1.695   377 C    1.165   407 H    0.998
   376   7 N    2.554 --   377 C    1.414   373 C    1.356
   377   6 C    3.943 --   376 N    1.414   378 C    1.286   375 C    1.165
   378   6 C    3.839 --   377 C    1.286   379 C    1.283   150 C    1.225
   379   6 C    3.904 --   378 C    1.283   380 C    1.269   383 N    1.250
   380   6 C    3.832 --   381 C    1.581   379 C    1.269   408 H    0.997
   381   6 C    3.819 --   380 C    1.581   382 C    1.260   409 H    0.997
   382   6 C    3.888 --   384 C    1.336   381 C    1.260   383 N    1.225
   383   7 N    3.252 --   379 C    1.250   382 C    1.225   410 H    0.960
   384   6 C    3.833 --   394 C    1.370   382 C    1.336   385 C    1.055
   385   6 C    3.896 --   386 C    1.415   393 C    1.415   384 C    1.055
   386   6 C    3.858 --   387 C    1.464   385 C    1.415   411 H    0.986
   387   6 C    3.897 --   386 C    1.464   388 C    1.407   412 H    0.985
   388   6 C    3.936 --   387 C    1.407   392 C    1.407   389 N    1.004
   389   7 N    4.110 --   390 O    1.569   391 O    1.569   388 C    1.004
   390   8 O    2.011 --   389 N    1.569   391 O    0.384
   391   8 O    2.011 --   389 N    1.569   390 O    0.384
   392   6 C    3.898 --   393 C    1.465   388 C    1.407   413 H    0.985
   393   6 C    3.862 --   392 C    1.465   385 C    1.415   414 H    0.987
   394   6 C    3.925 --   384 C    1.370   398 N    1.356   395 C    1.159
   395   6 C    3.838 --   396 C    1.695   394 C    1.159   415 H    0.998
   396   6 C    3.852 --   395 C    1.695   397 C    1.165   416 H    0.998
   397   6 C    3.943 --   398 N    1.414   357 C    1.286   396 C    1.165
   398   7 N    2.554 --   397 C    1.414   394 C    1.356
   399   1 H    1.025 --   359 C    0.997
   400   1 H    1.028 --   360 C    0.997
   401   1 H    1.080 --   362 N    0.960
   402   1 H    1.043 --   365 C    0.987
   403   1 H    1.028 --   366 C    0.985
   404   1 H    1.027 --   371 C    0.985
   405   1 H    1.040 --   372 C    0.986
   406   1 H    1.034 --   374 C    0.998
   407   1 H    1.029 --   375 C    0.998
   408   1 H    1.025 --   380 C    0.997
   409   1 H    1.028 --   381 C    0.997
   410   1 H    1.080 --   383 N    0.960
   411   1 H    1.040 --   386 C    0.986
   412   1 H    1.027 --   387 C    0.985
   413   1 H    1.028 --   392 C    0.985
   414   1 H    1.043 --   393 C    0.987
   415   1 H    1.034 --   395 C    0.998
   416   1 H    1.029 --   396 C    0.998
   417   6 C    3.839 --   457 C    1.286   418 C    1.283   152 C    1.225
   418   6 C    3.904 --   417 C    1.283   419 C    1.269   422 N    1.250
   419   6 C    3.832 --   420 C    1.581   418 C    1.269   459 H    0.997
   420   6 C    3.819 --   419 C    1.581   421 C    1.260   460 H    0.997
   421   6 C    3.888 --   423 C    1.336   420 C    1.260   422 N    1.225
   422   7 N    3.252 --   418 C    1.250   421 C    1.225   461 H    0.960
   423   6 C    3.833 --   433 C    1.370   421 C    1.336   424 C    1.055
   424   6 C    3.896 --   432 C    1.415   425 C    1.415   423 C    1.055
   425   6 C    3.862 --   426 C    1.465   424 C    1.415   462 H    0.987
   426   6 C    3.898 --   425 C    1.465   427 C    1.407   463 H    0.985
   427   6 C    3.936 --   431 C    1.407   426 C    1.407   428 N    1.004
   428   7 N    4.110 --   430 O    1.569   429 O    1.569   427 C    1.004
   429   8 O    2.011 --   428 N    1.569   430 O    0.384
   430   8 O    2.011 --   428 N    1.569   429 O    0.384
   431   6 C    3.897 --   432 C    1.464   427 C    1.407   464 H    0.985
   432   6 C    3.858 --   431 C    1.464   424 C    1.415   465 H    0.986
   433   6 C    3.925 --   423 C    1.370   436 N    1.356   434 C    1.159
   434   6 C    3.838 --   435 C    1.695   433 C    1.159   466 H    0.998
   435   6 C    3.852 --   434 C    1.695   437 C    1.165   467 H    0.998
   436   7 N    2.554 --   437 C    1.414   433 C    1.356
   437   6 C    3.943 --   436 N    1.414   438 C    1.286   435 C    1.165
   438   6 C    3.839 --   437 C    1.286   439 C    1.283   156 C    1.225
   439   6 C    3.904 --   438 C    1.283   440 C    1.270   443 N    1.250
   440   6 C    3.832 --   441 C    1.581   439 C    1.270   468 H    0.997
   441   6 C    3.819 --   440 C    1.581   442 C    1.261   469 H    0.997
   442   6 C    3.888 --   444 C    1.336   441 C    1.261   443 N    1.225
   443   7 N    3.252 --   439 C    1.250   442 C    1.225   470 H    0.960
   444   6 C    3.833 --   454 C    1.370   442 C    1.336   445 C    1.055
   445   6 C    3.896 --   446 C    1.415   453 C    1.415   444 C    1.055
   446   6 C    3.858 --   447 C    1.465   445 C    1.415   471 H    0.986
   447   6 C    3.897 --   446 C    1.465   448 C    1.407   472 H    0.985
   448   6 C    3.936 --   447 C    1.407   452 C    1.407   449 N    1.004
   449   7 N    4.110 --   450 O    1.569   451 O    1.569   448 C    1.004
   450   8 O    2.011 --   449 N    1.569   451 O    0.384
   451   8 O    2.011 --   449 N    1.569   450 O    0.384
   452   6 C    3.898 --   453 C    1.465   448 C    1.407   473 H    0.985
   453   6 C    3.862 --   452 C    1.465   445 C    1.415   474 H    0.987
   454   6 C    3.925 --   444 C    1.370   458 N    1.356   455 C    1.159
   455   6 C    3.838 --   456 C    1.695   454 C    1.159   475 H    0.998
   456   6 C    3.852 --   455 C    1.695   457 C    1.165   476 H    0.998
   457   6 C    3.943 --   458 N    1.414   417 C    1.286   456 C    1.165
   458   7 N    2.554 --   457 C    1.414   454 C    1.356
   459   1 H    1.025 --   419 C    0.997
   460   1 H    1.028 --   420 C    0.997
   461   1 H    1.080 --   422 N    0.960
   462   1 H    1.043 --   425 C    0.987
   463   1 H    1.028 --   426 C    0.985
   464   1 H    1.027 --   431 C    0.985
   465   1 H    1.040 --   432 C    0.986
   466   1 H    1.034 --   434 C    0.998
   467   1 H    1.029 --   435 C    0.998
   468   1 H    1.025 --   440 C    0.997
   469   1 H    1.028 --   441 C    0.997
   470   1 H    1.080 --   443 N    0.960
   471   1 H    1.040 --   446 C    0.986
   472   1 H    1.027 --   447 C    0.985
   473   1 H    1.028 --   452 C    0.985
   474   1 H    1.043 --   453 C    0.987
   475   1 H    1.034 --   455 C    0.998
   476   1 H    1.029 --   456 C    0.998
   477   6 C    3.839 --   517 C    1.286   478 C    1.283   158 C    1.225
   478   6 C    3.904 --   477 C    1.283   479 C    1.269   482 N    1.251
   479   6 C    3.832 --   480 C    1.581   478 C    1.269   519 H    0.997
   480   6 C    3.819 --   479 C    1.581   481 C    1.261   520 H    0.997
   481   6 C    3.887 --   483 C    1.336   480 C    1.261   482 N    1.224
   482   7 N    3.251 --   478 C    1.251   481 C    1.224   521 H    0.960
   483   6 C    3.833 --   493 C    1.370   481 C    1.336   484 C    1.055
   484   6 C    3.896 --   492 C    1.415   485 C    1.415   483 C    1.055
   485   6 C    3.862 --   486 C    1.465   484 C    1.415   522 H    0.987
   486   6 C    3.898 --   485 C    1.465   487 C    1.407   523 H    0.985
   487   6 C    3.936 --   491 C    1.407   486 C    1.407   488 N    1.004
   488   7 N    4.110 --   490 O    1.569   489 O    1.569   487 C    1.004
   489   8 O    2.011 --   488 N    1.569   490 O    0.384
   490   8 O    2.011 --   488 N    1.569   489 O    0.384
   491   6 C    3.897 --   492 C    1.464   487 C    1.407   524 H    0.985
   492   6 C    3.858 --   491 C    1.464   484 C    1.415   525 H    0.986
   493   6 C    3.924 --   483 C    1.370   496 N    1.356   494 C    1.159
   494   6 C    3.838 --   495 C    1.695   493 C    1.159   526 H    0.998
   495   6 C    3.852 --   494 C    1.695   497 C    1.166   527 H    0.998
   496   7 N    2.554 --   497 C    1.414   493 C    1.356
   497   6 C    3.943 --   496 N    1.414   498 C    1.286   495 C    1.166
   498   6 C    3.839 --   497 C    1.286   499 C    1.282   162 C    1.226
   499   6 C    3.904 --   498 C    1.282   500 C    1.270   503 N    1.250
   500   6 C    3.832 --   501 C    1.581   499 C    1.270   528 H    0.997
   501   6 C    3.819 --   500 C    1.581   502 C    1.261   529 H    0.997
   502   6 C    3.887 --   504 C    1.336   501 C    1.261   503 N    1.225
   503   7 N    3.252 --   499 C    1.250   502 C    1.225   530 H    0.960
   504   6 C    3.833 --   514 C    1.371   502 C    1.336   505 C    1.055
   505   6 C    3.896 --   513 C    1.415   506 C    1.415   504 C    1.055
   506   6 C    3.858 --   507 C    1.465   505 C    1.415   531 H    0.986
   507   6 C    3.897 --   506 C    1.465   508 C    1.407   532 H    0.985
   508   6 C    3.936 --   507 C    1.407   512 C    1.407   509 N    1.004
   509   7 N    4.110 --   510 O    1.569   511 O    1.569   508 C    1.004
   510   8 O    2.011 --   509 N    1.569   511 O    0.384
   511   8 O    2.011 --   509 N    1.569   510 O    0.384
   512   6 C    3.898 --   513 C    1.465   508 C    1.407   533 H    0.985
   513   6 C    3.862 --   512 C    1.465   505 C    1.415   534 H    0.987
   514   6 C    3.925 --   504 C    1.371   518 N    1.355   515 C    1.159
   515   6 C    3.838 --   516 C    1.695   514 C    1.159   535 H    0.998
   516   6 C    3.852 --   515 C    1.695   517 C    1.165   536 H    0.998
   517   6 C    3.943 --   518 N    1.414   477 C    1.286   516 C    1.165
   518   7 N    2.554 --   517 C    1.414   514 C    1.355
   519   1 H    1.025 --   479 C    0.997
   520   1 H    1.028 --   480 C    0.997
   521   1 H    1.080 --   482 N    0.960
   522   1 H    1.043 --   485 C    0.987
   523   1 H    1.028 --   486 C    0.985
   524   1 H    1.027 --   491 C    0.985
   525   1 H    1.040 --   492 C    0.986
   526   1 H    1.034 --   494 C    0.998
   527   1 H    1.029 --   495 C    0.998
   528   1 H    1.025 --   500 C    0.997
   529   1 H    1.028 --   501 C    0.997
   530   1 H    1.080 --   503 N    0.960
   531   1 H    1.040 --   506 C    0.986
   532   1 H    1.027 --   507 C    0.985
   533   1 H    1.028 --   512 C    0.985
   534   1 H    1.043 --   513 C    0.987
   535   1 H    1.034 --   515 C    0.998
   536   1 H    1.029 --   516 C    0.998
   537   6 C    3.837 --   577 C    1.285   538 C    1.282   164 C    1.226
   538   6 C    3.904 --   537 C    1.282   539 C    1.270   542 N    1.251
   539   6 C    3.831 --   540 C    1.581   538 C    1.270   579 H    0.997
   540   6 C    3.819 --   539 C    1.581   541 C    1.261   580 H    0.997
   541   6 C    3.887 --   543 C    1.336   540 C    1.261   542 N    1.224
   542   7 N    3.251 --   538 C    1.251   541 C    1.224   581 H    0.960
   543   6 C    3.832 --   553 C    1.371   541 C    1.336   544 C    1.055
   544   6 C    3.896 --   552 C    1.415   545 C    1.414   543 C    1.055
   545   6 C    3.862 --   546 C    1.465   544 C    1.414   582 H    0.987
   546   6 C    3.898 --   545 C    1.465   547 C    1.407   583 H    0.985
   547   6 C    3.936 --   551 C    1.407   546 C    1.407   548 N    1.004
   548   7 N    4.110 --   550 O    1.569   549 O    1.569   547 C    1.004
   549   8 O    2.011 --   548 N    1.569   550 O    0.384
   550   8 O    2.011 --   548 N    1.569   549 O    0.384
   551   6 C    3.898 --   552 C    1.465   547 C    1.407   584 H    0.985
   552   6 C    3.858 --   551 C    1.465   544 C    1.415   585 H    0.987
   553   6 C    3.924 --   543 C    1.371   556 N    1.355   554 C    1.159
   554   6 C    3.838 --   555 C    1.695   553 C    1.159   586 H    0.998
   555   6 C    3.851 --   554 C    1.695   557 C    1.165   587 H    0.998
   556   7 N    2.553 --   557 C    1.414   553 C    1.355
   557   6 C    3.943 --   556 N    1.414   558 C    1.285   555 C    1.165
   558   6 C    3.837 --   557 C    1.285   559 C    1.282   168 C    1.226
   559   6 C    3.904 --   558 C    1.282   560 C    1.270   563 N    1.251
   560   6 C    3.831 --   561 C    1.580   559 C    1.270   588 H    0.997
   561   6 C    3.818 --   560 C    1.580   562 C    1.261   589 H    0.997
   562   6 C    3.887 --   564 C    1.335   561 C    1.261   563 N    1.224
   563   7 N    3.251 --   559 C    1.251   562 C    1.224   590 H    0.960
   564   6 C    3.832 --   574 C    1.371   562 C    1.335   565 C    1.055
   565   6 C    3.896 --   573 C    1.415   566 C    1.415   564 C    1.055
   566   6 C    3.858 --   567 C    1.465   565 C    1.415   591 H    0.987
   567   6 C    3.897 --   566 C    1.465   568 C    1.407   592 H    0.985
   568   6 C    3.936 --   567 C    1.407   572 C    1.407   569 N    1.004
   569   7 N    4.110 --   570 O    1.569   571 O    1.569   568 C    1.004
   570   8 O    2.011 --   569 N    1.569   571 O    0.384
   571   8 O    2.011 --   569 N    1.569   570 O    0.384
   572   6 C    3.898 --   573 C    1.465   568 C    1.407   593 H    0.985
   573   6 C    3.862 --   572 C    1.465   565 C    1.415   594 H    0.987
   574   6 C    3.924 --   564 C    1.371   578 N    1.355   575 C    1.159
   575   6 C    3.838 --   576 C    1.695   574 C    1.159   595 H    0.998
   576   6 C    3.851 --   575 C    1.695   577 C    1.165   596 H    0.998
   577   6 C    3.943 --   578 N    1.414   537 C    1.285   576 C    1.165
   578   7 N    2.553 --   577 C    1.414   574 C    1.355
   579   1 H    1.025 --   539 C    0.997
   580   1 H    1.028 --   540 C    0.997
   581   1 H    1.080 --   542 N    0.960
   582   1 H    1.043 --   545 C    0.987
   583   1 H    1.028 --   546 C    0.985
   584   1 H    1.027 --   551 C    0.985
   585   1 H    1.040 --   552 C    0.987
   586   1 H    1.034 --   554 C    0.998
   587   1 H    1.029 --   555 C    0.998
   588   1 H    1.025 --   560 C    0.997
   589   1 H    1.028 --   561 C    0.997
   590   1 H    1.080 --   563 N    0.960
   591   1 H    1.040 --   566 C    0.987
   592   1 H    1.027 --   567 C    0.985
   593   1 H    1.028 --   572 C    0.985
   594   1 H    1.043 --   573 C    0.987
   595   1 H    1.034 --   575 C    0.998
   596   1 H    1.029 --   576 C    0.998
   597   6 C    3.838 --   637 C    1.285   598 C    1.282   170 C    1.226
   598   6 C    3.904 --   597 C    1.282   599 C    1.270   602 N    1.251
   599   6 C    3.831 --   600 C    1.581   598 C    1.270   639 H    0.997
   600   6 C    3.817 --   599 C    1.581   601 C    1.261   640 H    0.997
   601   6 C    3.887 --   603 C    1.335   600 C    1.261   602 N    1.225
   602   7 N    3.252 --   598 C    1.251   601 C    1.225   641 H    0.960
   603   6 C    3.832 --   613 C    1.371   601 C    1.335   604 C    1.055
   604   6 C    3.896 --   612 C    1.415   605 C    1.414   603 C    1.055
   605   6 C    3.862 --   606 C    1.465   604 C    1.414   642 H    0.987
   606   6 C    3.898 --   605 C    1.465   607 C    1.407   643 H    0.985
   607   6 C    3.936 --   611 C    1.407   606 C    1.407   608 N    1.004
   608   7 N    4.110 --   610 O    1.569   609 O    1.569   607 C    1.004
   609   8 O    2.011 --   608 N    1.569   610 O    0.384
   610   8 O    2.011 --   608 N    1.569   609 O    0.384
   611   6 C    3.898 --   612 C    1.465   607 C    1.407   644 H    0.985
   612   6 C    3.858 --   611 C    1.465   604 C    1.415   645 H    0.987
   613   6 C    3.925 --   603 C    1.371   616 N    1.355   614 C    1.158
   614   6 C    3.838 --   615 C    1.696   613 C    1.158   646 H    0.998
   615   6 C    3.851 --   614 C    1.696   617 C    1.165   647 H    0.998
   616   7 N    2.553 --   617 C    1.413   613 C    1.355
   617   6 C    3.944 --   616 N    1.413   618 C    1.288   615 C    1.165
   618   6 C    3.838 --   617 C    1.288   619 C    1.284   174 C    1.221
   619   6 C    3.904 --   618 C    1.284   620 C    1.269   623 N    1.250
   620   6 C    3.831 --   621 C    1.581   619 C    1.269   648 H    0.997
   621   6 C    3.817 --   620 C    1.581   622 C    1.261   649 H    0.997
   622   6 C    3.887 --   624 C    1.336   621 C    1.261   623 N    1.224
   623   7 N    3.251 --   619 C    1.250   622 C    1.224   650 H    0.960
   624   6 C    3.833 --   634 C    1.370   622 C    1.336   625 C    1.055
   625   6 C    3.896 --   633 C    1.415   626 C    1.414   624 C    1.055
   626   6 C    3.858 --   627 C    1.465   625 C    1.414   651 H    0.987
   627   6 C    3.897 --   626 C    1.465   628 C    1.407   652 H    0.985
   628   6 C    3.936 --   627 C    1.407   632 C    1.407   629 N    1.005
   629   7 N    4.110 --   630 O    1.569   631 O    1.568   628 C    1.005
   630   8 O    2.011 --   629 N    1.569   631 O    0.384
   631   8 O    2.011 --   629 N    1.568   630 O    0.384
   632   6 C    3.898 --   633 C    1.465   628 C    1.407   653 H    0.985
   633   6 C    3.862 --   632 C    1.465   625 C    1.415   654 H    0.987
   634   6 C    3.924 --   624 C    1.370   638 N    1.355   635 C    1.159
   635   6 C    3.838 --   636 C    1.695   634 C    1.159   655 H    0.998
   636   6 C    3.851 --   635 C    1.695   637 C    1.165   656 H    0.998
   637   6 C    3.943 --   638 N    1.414   597 C    1.285   636 C    1.165
   638   7 N    2.554 --   637 C    1.414   634 C    1.355
   639   1 H    1.025 --   599 C    0.997
   640   1 H    1.028 --   600 C    0.997
   641   1 H    1.080 --   602 N    0.960
   642   1 H    1.043 --   605 C    0.987
   643   1 H    1.028 --   606 C    0.985
   644   1 H    1.027 --   611 C    0.985
   645   1 H    1.040 --   612 C    0.987
   646   1 H    1.032 --   614 C    0.998
   647   1 H    1.029 --   615 C    0.998
   648   1 H    1.025 --   620 C    0.997
   649   1 H    1.029 --   621 C    0.997
   650   1 H    1.080 --   623 N    0.960
   651   1 H    1.040 --   626 C    0.987
   652   1 H    1.028 --   627 C    0.985
   653   1 H    1.028 --   632 C    0.985
   654   1 H    1.043 --   633 C    0.987
   655   1 H    1.032 --   635 C    0.998
   656   1 H    1.029 --   636 C    0.998
 ---------------------------------------------------------------------------

Topologies differ in total number of bonds
Writing topology from bond orders to xtbtopo.mol

 dipole moment from electron density (au)
     X       Y       Z   
-391.5206  -0.3274  -0.3068  total (Debye):  995.147


           -------------------------------------------------
          | TOTAL ENERGY            -1417.815130031719 Eh   |
          | GRADIENT NORM               0.223160971064 Eh/α |
          | HOMO-LUMO GAP               0.030629047782 eV   |
           -------------------------------------------------
########################################################################
[WARNING] Runtime exception occurred
-1- restart_readRestart: Dimension missmatch in restart file.
########################################################################

------------------------------------------------------------------------
 * finished run on 2022/07/30 at 12:28:19.075     
------------------------------------------------------------------------
 total:
 * wall-time:     0 d,  0 h,  4 min, 11.498 sec
 *  cpu-time:     0 d,  0 h,  4 min, 10.584 sec
 * ratio c/w:     0.996 speedup
 SCF:
 * wall-time:     0 d,  0 h,  4 min,  9.731 sec
 *  cpu-time:     0 d,  0 h,  4 min,  8.828 sec
 * ratio c/w:     0.996 speedup

