      -----------------------------------------------------------      
     |                   =====================                   |     
     |                           x T B                           |     
     |                   =====================                   |     
     |                         S. Grimme                         |     
     |          Mulliken Center for Theoretical Chemistry        |     
     |                    University of Bonn                     |     
      -----------------------------------------------------------      

   * xtb version 6.5.1 (b24c23e) compiled by 'conda@728c89f4b128' on 2022-07-12

   xtb is free software: you can redistribute it and/or modify it under
   the terms of the GNU Lesser General Public License as published by
   the Free Software Foundation, either version 3 of the License, or
   (at your option) any later version.
   
   xtb is distributed in the hope that it will be useful,
   but WITHOUT ANY WARRANTY; without even the implied warranty of
   MERCHANTABILITY or FITNESS FOR A PARTICULAR PURPOSE.  See the
   GNU Lesser General Public License for more details.
   
   Cite this work as:
   * C. Bannwarth, E. Caldeweyher, S. Ehlert, A. Hansen, P. Pracht,
     J. Seibert, S. Spicher, S. Grimme, WIREs Comput. Mol. Sci., 2020, 11,
     e01493. DOI: 10.1002/wcms.1493
   
   for GFN2-xTB:
   * C. Bannwarth, S. Ehlert and S. Grimme., J. Chem. Theory Comput., 2019,
     15, 1652-1671. DOI: 10.1021/acs.jctc.8b01176
   for GFN1-xTB:
   * S. Grimme, C. Bannwarth, P. Shushkov, J. Chem. Theory Comput., 2017,
     13, 1989-2009. DOI: 10.1021/acs.jctc.7b00118
   for GFN0-xTB:
   * P. Pracht, E. Caldeweyher, S. Ehlert, S. Grimme, ChemRxiv, 2019, preprint.
     DOI: 10.26434/chemrxiv.8326202.v1
   for GFN-FF:
   * S. Spicher and S. Grimme, Angew. Chem. Int. Ed., 2020, 59, 15665-15673.
     DOI: 10.1002/anie.202004239
   
   for ALPB and GBSA implicit solvation:
   * S. Ehlert, M. Stahn, S. Spicher, S. Grimme, J. Chem. Theory Comput.,
     2021, 17, 4250-4261. DOI: 10.1021/acs.jctc.1c00471
   
   for DFT-D4:
   * E. Caldeweyher, C. Bannwarth and S. Grimme, J. Chem. Phys., 2017,
     147, 034112. DOI: 10.1063/1.4993215
   * E. Caldeweyher, S. Ehlert, A. Hansen, H. Neugebauer, S. Spicher,
     C. Bannwarth and S. Grimme, J. Chem. Phys., 2019, 150, 154122.
     DOI: 10.1063/1.5090222
   * E. Caldeweyher, J.-M. Mewes, S. Ehlert and S. Grimme, Phys. Chem. Chem. Phys.
     2020, 22, 8499-8512. DOI: 10.1039/D0CP00502A
   
   for sTDA-xTB:
   * S. Grimme and C. Bannwarth, J. Chem. Phys., 2016, 145, 054103.
     DOI: 10.1063/1.4959605
   
   in the mass-spec context:
   * V. Asgeirsson, C. Bauer and S. Grimme, Chem. Sci., 2017, 8, 4879.
     DOI: 10.1039/c7sc00601b
   * J. Koopman and S. Grimme, ACS Omega 2019, 4, 12, 15120-15133.
     DOI: 10.1021/acsomega.9b02011
   
   for metadynamics refer to:
   * S. Grimme, J. Chem. Theory Comput., 2019, 155, 2847-2862
     DOI: 10.1021/acs.jctc.9b00143
   
   for SPH calculations refer to:
   * S. Spicher and S. Grimme, J. Chem. Theory Comput., 2021, 17, 1701-1714
     DOI: 10.1021/acs.jctc.0c01306
   
   with help from (in alphabetical order)
   P. Atkinson, C. Bannwarth, F. Bohle, G. Brandenburg, E. Caldeweyher
   M. Checinski, S. Dohm, S. Ehlert, S. Ehrlich, I. Gerasimov, C. Hölzer
   A. Katbashev, J. Koopman, C. Lavigne, S. Lehtola, F. März, M. Müller,
   F. Musil, H. Neugebauer, J. Pisarek, C. Plett, P. Pracht, F. Pultar,
   J. Seibert, P. Shushkov, S. Spicher, M. Stahn, M. Steiner, T. Strunk,
   J. Stückrath, T. Rose, and J. Unsleber
   
 * started run on 2022/07/29 at 20:11:27.297     

           -------------------------------------------------
          |                Calculation Setup                |
           -------------------------------------------------

          program call               : xtb Fe_PhNO2_C2_3.xyz --gfn 1 --opt -T 48
          hostname                   : cx3-15-11.cx3.hpc.ic.ac.uk
          coordinate file            : Fe_PhNO2_C2_3.xyz
          omp threads                :                     1

   ID    Z sym.   atoms
    1   26 Fe     1, 61, 125
    2    6 C      2-6, 8-12, 16-20, 22-27, 29-33, 37-42, 62-66, 68-72, 76-80,
                  82-87, 89-93, 97-102, 121-124, 126-130, 132-136, 140-144,
                  146-151, 153-157, 161-166
    3    7 N      7, 13, 21, 28, 34, 43, 67, 73, 81, 88, 94, 103, 131, 137,
                  145, 152, 158, 167
    4    8 O      14, 15, 35, 36, 74, 75, 95, 96, 138, 139, 159, 160
    5    1 H      44-60, 104-120, 168-183
########################################################################
[WARNING] Please study the warnings concerning your input carefully
-1- prog_main_parseArguments: Unknown option '-T' provided
########################################################################

           -------------------------------------------------
          |                 G F N 1 - x T B                 |
           -------------------------------------------------

        Reference                      10.1021/acs.jctc.7b00118
      * Hamiltonian:
        H0-scaling (s, p, d)           1.850000    2.250000    2.000000
        zeta-weighting                 0.000000
      * Dispersion:
        s8                             2.400000
        a1                             0.630000
        a2                             5.000000
        s9                             0.000000
      * Repulsion:
        kExp                           1.500000
        rExp                           1.000000
      * Coulomb:
        alpha                          2.000000
        third order                    atomic
        anisotropic                    false
      * Halogen bond correction:
        rad-scale                      1.300000
        damping                        0.440000


          ...................................................
          :                      SETUP                      :
          :.................................................:
          :  # basis functions                 650          :
          :  # atomic orbitals                 647          :
          :  # shells                          369          :
          :  # electrons                       636          :
          :  # halogen bonds                     0          :
          :  max. iterations                   250          :
          :  Hamiltonian                  GFN1-xTB          :
          :  restarted?                      false          :
          :  GBSA solvation                  false          :
          :  PC potential                    false          :
          :  electronic temp.          300.0000000     K    :
          :  accuracy                    1.0000000          :
          :  -> integral cutoff          0.2500000E+02      :
          :  -> integral neglect         0.1000000E-07      :
          :  -> SCF convergence          0.1000000E-05 Eh   :
          :  -> wf. convergence          0.2000000E-04 e    :
          :  Broyden damping             0.4000000          :
          ...................................................

 iter      E             dE          RMSdq      gap      omega  full diag
   1   -332.1697167 -0.332170E+03  0.122E+01    0.20       0.0  T
   2   -222.2805540  0.109889E+03  0.126E+01    0.26       1.0  T
   3   -310.3499761 -0.880694E+02  0.989E+00    0.10       1.0  T
   4   -282.3211470  0.280288E+02  0.901E+00    0.33       1.0  T
   5   -277.6946355  0.462651E+01  0.100E+01    0.06       1.0  T
   6   -274.3724953  0.332214E+01  0.846E+00    0.06       1.0  T
   7   -302.3723024 -0.279998E+02  0.637E+00    0.15       1.0  T
   8   -316.2333216 -0.138610E+02  0.618E+00    0.04       1.0  T
   9   -325.2588526 -0.902553E+01  0.642E+00    0.03       1.0  T
  10   -355.2258494 -0.299670E+02  0.452E+00    0.03       1.0  T
  11   -355.2620944 -0.362450E-01  0.440E+00    0.07       1.0  T
  12   -355.5417144 -0.279620E+00  0.437E+00    0.04       1.0  T
  13   -355.5031951  0.385194E-01  0.435E+00    0.05       1.0  T
  14   -356.4043250 -0.901130E+00  0.387E+00    0.10       1.0  T
  15   -358.8546533 -0.245033E+01  0.298E+00    0.03       1.0  T
  16   -361.1666262 -0.231197E+01  0.229E+00    0.02       1.0  T
  17   -342.9168054  0.182498E+02  0.450E+00    0.27       1.0  T
  18   -355.2672499 -0.123504E+02  0.278E+00    0.00       1.0  T
  19   -353.9716659  0.129558E+01  0.320E+00    0.03       1.0  T
  20   -348.9752762  0.499639E+01  0.411E+00    0.06       1.0  T
  21   -349.8675138 -0.892238E+00  0.399E+00    0.09       1.0  T
  22   -353.6160939 -0.374858E+01  0.352E+00    0.05       1.0  T
  23   -362.8815977 -0.926550E+01  0.137E+00    0.04       1.0  T
  24   -361.9536090  0.927989E+00  0.179E+00    0.00       1.0  T
  25   -361.4363587  0.517250E+00  0.189E+00    0.04       1.0  T
  26   -356.4518235  0.498454E+01  0.293E+00    0.01       1.0  T
  27   -352.7210469  0.373078E+01  0.353E+00    0.05       1.0  T
  28   -342.0435212  0.106775E+02  0.475E+00    0.03       1.0  T
  29   -340.4765134  0.156701E+01  0.489E+00    0.09       1.0  T
  30   -340.4382826  0.382308E-01  0.490E+00    0.05       1.0  T
  31   -340.6561429 -0.217860E+00  0.488E+00    0.05       1.0  T
  32   -343.1125297 -0.245639E+01  0.466E+00    0.05       1.0  T
  33   -351.4423363 -0.832981E+01  0.375E+00    0.06       1.0  T
  34   -340.3917266  0.110506E+02  0.491E+00    0.07       1.0  T
  35   -340.0731256  0.318601E+00  0.495E+00    0.05       1.0  T
  36   -340.2177812 -0.144656E+00  0.494E+00    0.05       1.0  T
  37   -340.4797525 -0.261971E+00  0.492E+00    0.07       1.0  T
  38   -340.7830680 -0.303315E+00  0.488E+00    0.06       1.0  T
  39   -342.4773440 -0.169428E+01  0.468E+00    0.02       1.0  T
  40   -344.8830944 -0.240575E+01  0.448E+00    0.05       1.0  T
  41   -359.4471022 -0.145640E+02  0.246E+00    0.05       1.0  T
  42   -352.2962477  0.715085E+01  0.354E+00    0.05       1.0  T
  43   -360.4110854 -0.811484E+01  0.217E+00    0.04       1.0  T
  44   -362.0027018 -0.159162E+01  0.170E+00    0.01       1.0  T
  45   -359.8988260  0.210388E+01  0.223E+00    0.05       1.0  T
  46   -362.4744311 -0.257561E+01  0.150E+00    0.01       1.0  T
  47   -362.3395082  0.134923E+00  0.151E+00    0.07       1.0  T
  48   -357.5990458  0.474046E+01  0.265E+00    0.01       1.0  T
  49   -362.0787672 -0.447972E+01  0.161E+00    0.05       1.0  T
  50   -364.4530365 -0.237427E+01  0.364E-01    0.01       1.0  T
  51   -362.0291762  0.242386E+01  0.162E+00    0.04       1.0  T
  52   -363.6591517 -0.162998E+01  0.997E-01    0.02       1.0  T
  53   -362.2888825  0.137027E+01  0.152E+00    0.03       1.0  T
  54   -362.8118946 -0.523012E+00  0.136E+00    0.03       1.0  T
  55   -360.7594406  0.205245E+01  0.196E+00    0.05       1.0  T
  56   -364.1755489 -0.341611E+01  0.662E-01    0.01       1.0  T
  57   -364.5011922 -0.325643E+00  0.308E-01    0.02       1.0  T
  58   -364.5654660 -0.642738E-01  0.164E-01    0.03       1.0  T
  59   -364.5689056 -0.343964E-02  0.155E-01    0.03       1.0  T
  60   -364.5593034  0.960215E-02  0.186E-01    0.02       1.0  T
  61   -363.7902156  0.769088E+00  0.902E-01    0.02       1.0  T
  62   -364.5187230 -0.728507E+00  0.279E-01    0.01       1.0  T
  63   -364.0383492  0.480374E+00  0.752E-01    0.02       1.0  T
  64   -364.5466212 -0.508272E+00  0.205E-01    0.02       1.0  T
  65   -364.5044025  0.422187E-01  0.293E-01    0.02       1.0  T
  66   -364.5440704 -0.396679E-01  0.217E-01    0.02       1.0  T
  67   -364.5744840 -0.304136E-01  0.135E-01    0.03       1.0  T
  68   -364.5604978  0.139862E-01  0.182E-01    0.02       1.0  T
  69   -364.5659976 -0.549974E-02  0.161E-01    0.02       1.0  T
  70   -364.5716387 -0.564111E-02  0.142E-01    0.02       1.0  T
  71   -364.5487864  0.228523E-01  0.208E-01    0.02       1.0  T
  72   -364.5815012 -0.327148E-01  0.103E-01    0.03       1.0  T
  73   -364.5851886 -0.368738E-02  0.807E-02    0.02       1.0  T
  74   -364.5855825 -0.393866E-03  0.744E-02    0.03       1.0  T
  75   -364.5767579  0.882458E-02  0.119E-01    0.02       1.0  T
  76   -364.5832950 -0.653714E-02  0.876E-02    0.02       1.0  T
  77   -364.5876594 -0.436438E-02  0.570E-02    0.03       1.0  T
  78   -364.5873340  0.325375E-03  0.596E-02    0.03       1.0  T
  79   -364.5841597  0.317433E-02  0.813E-02    0.03       1.0  T
  80   -364.5867606 -0.260095E-02  0.635E-02    0.03       1.0  T
  81   -364.5893900 -0.262931E-02  0.383E-02    0.03       1.0  T
  82   -364.5900591 -0.669096E-03  0.291E-02    0.03       1.0  T
  83   -364.5899804  0.786636E-04  0.300E-02    0.03       1.0  T
  84   -364.5897220  0.258394E-03  0.335E-02    0.03       1.0  T
  85   -364.5901217 -0.399706E-03  0.270E-02    0.03       1.0  T
  86   -364.5907547 -0.632971E-03  0.112E-02    0.03       1.0  T
  87   -364.5903816  0.373071E-03  0.211E-02    0.03       1.0  T
  88   -364.5901124  0.269243E-03  0.266E-02    0.03       1.0  T
  89   -364.5903312 -0.218847E-03  0.223E-02    0.03       1.0  T
  90   -364.5906031 -0.271938E-03  0.153E-02    0.03       1.0  T
  91   -364.5906465 -0.433686E-04  0.139E-02    0.03       1.0  T
  92   -364.5907770 -0.130447E-03  0.840E-03    0.03       1.0  T
  93   -364.5908486 -0.716714E-04  0.233E-03    0.03       3.2  T
  94   -364.5908543 -0.562070E-05  0.135E-03    0.03       5.5  T
  95   -364.5908485  0.578817E-05  0.245E-03    0.03       3.0  T
  96   -364.5908474  0.103870E-05  0.271E-03    0.03       2.7  T
  97   -364.5908541 -0.662929E-05  0.113E-03    0.03       6.6  T
  98   -364.5908550 -0.947767E-06  0.739E-04    0.03      10.0  T
  99   -364.5908535  0.145136E-05  0.132E-03    0.03       5.6  T
 100   -364.5908518  0.172157E-05  0.189E-03    0.03       3.9  T
 101   -364.5908545 -0.268256E-05  0.100E-03    0.03       7.4  T
 102   -364.5908543  0.169576E-06  0.108E-03    0.03       6.9  T
 103   -364.5908541  0.244240E-06  0.117E-03    0.03       6.3  T
 104   -364.5908547 -0.622545E-06  0.832E-04    0.03       8.9  T
 105   -364.5908536  0.111562E-05  0.134E-03    0.03       5.5  T
 106   -364.5908533  0.262505E-06  0.143E-03    0.03       5.2  T
 107   -364.5908543 -0.958007E-06  0.104E-03    0.03       7.1  T
 108   -364.5908551 -0.794270E-06  0.534E-04    0.03      13.8  T
 109   -364.5908551  0.357949E-07  0.546E-04    0.03      13.5  T
 110   -364.5908552 -0.126062E-06  0.408E-04    0.03      18.1  T
 111   -364.5908550  0.177506E-06  0.585E-04    0.03      12.6  T
 112   -364.5908547  0.333157E-06  0.822E-04    0.03       9.0  T
 113   -364.5908552 -0.570884E-06  0.316E-04    0.03      23.4  T
 114   -364.5908551  0.120435E-06  0.474E-04    0.03      15.6  T
 115   -364.5908553 -0.191376E-06  0.123E-04    0.03      60.2  T
 116   -364.5908553 -0.212026E-09  0.115E-04    0.03      64.2  T

   *** convergence criteria satisfied after 116 iterations ***

         #    Occupation            Energy/Eh            Energy/eV
      -------------------------------------------------------------
         1        2.0000           -0.9019810             -24.5442
       ...           ...                  ...                  ...
       312        1.9990           -0.4140959             -11.2681
       313        1.9975           -0.4132009             -11.2438
       314        1.9974           -0.4131608             -11.2427
       315        1.9962           -0.4128045             -11.2330
       316        1.4299           -0.4077162             -11.0945
       317        1.3537           -0.4075449             -11.0899
       318        1.3366           -0.4075080             -11.0889 (HOMO)
       319        0.8426           -0.4065408             -11.0625 (LUMO)
       320        0.6796           -0.4062114             -11.0536
       321        0.3686           -0.4054293             -11.0323
       322                         -0.3863171             -10.5122
       323                         -0.3854504             -10.4886
       ...                                ...                  ...
       647                          1.7639355              47.9991
      -------------------------------------------------------------
                  HL-Gap            0.0009671 Eh            0.0263 eV
             Fermi-level           -0.4068425 Eh          -11.0707 eV

 SCC (total)                   0 d,  0 h,  0 min, 20.273 sec
 SCC setup                      ...        0 min,  0.011 sec (  0.053%)
 Dispersion                     ...        0 min,  0.008 sec (  0.038%)
 classical contributions        ...        0 min,  0.003 sec (  0.013%)
 integral evaluation            ...        0 min,  0.233 sec (  1.148%)
 iterations                     ...        0 min, 19.420 sec ( 95.788%)
 molecular gradient             ...        0 min,  0.541 sec (  2.666%)
 printout                       ...        0 min,  0.059 sec (  0.293%)

         :::::::::::::::::::::::::::::::::::::::::::::::::::::
         ::                     SUMMARY                     ::
         :::::::::::::::::::::::::::::::::::::::::::::::::::::
         :: total energy            -359.757454528700 Eh    ::
         :: gradient norm              0.990028615156 Eh/a0 ::
         :: HOMO-LUMO gap              0.026317121961 eV    ::
         ::.................................................::
         :: SCC energy              -364.590855315380 Eh    ::
         :: -> electrostatic           0.715148336315 Eh    ::
         :: repulsion energy           5.002543159293 Eh    ::
         :: dispersion energy         -0.169142372613 Eh    ::
         :: halogen bond corr.         0.000000000000 Eh    ::
         :: add. restraining           0.000000000000 Eh    ::
         :: total charge               0.000000000357 e     ::
         :::::::::::::::::::::::::::::::::::::::::::::::::::::

      ----------------------------------------------------------- 
     |                   =====================                   |
     |                        A N C O P T                        |
     |                   =====================                   |
     |               Approximate Normal Coordinate               |
     |                Rational Function Optimizer                |
      ----------------------------------------------------------- 

          ...................................................
          :                      SETUP                      :
          :.................................................:
          :   optimization level            normal          :
          :   max. optcycles                   549          :
          :   ANC micro-cycles                  20          :
          :   degrees of freedom               543          :
          :.................................................:
          :   RF solver                   davidson          :
          :   write xtbopt.log                true          :
          :   linear?                        false          :
          :   energy convergence         0.5000000E-05 Eh   :
          :   grad. convergence          0.1000000E-02 Eh/α :
          :   maximium RF displ.         1.0000000          :
          :   Hlow (freq-cutoff)         0.1000000E-01      :
          :   Hmax (freq-cutoff)         5.0000000          :
          :   S6 in model hess.         20.0000000          :
          ...................................................

generating ANC from model Hessian ...
Using Lindh-Hessian (1995)
 Shifting diagonal of input Hessian by    1.0009432350859779E-002
 Lowest  eigenvalues of input Hessian
    0.010000    0.010003    0.010003    0.010005    0.010009    0.000000
    0.000000    0.000000    0.000000    0.000000    0.000000    0.010018
    0.010068    0.010116    0.010122    0.010188    0.010219    0.010230
 Highest eigenvalues
    2.149544    2.149544    2.217220    2.239981    3.122286    3.162260


........................................................................
.............................. CYCLE    1 ..............................
........................................................................
   1   -364.5908553 -0.364591E+03  0.903E-05    0.03       0.0  T
   2   -364.5903972  0.458158E-03  0.216E-02    0.03       1.0  T
   3   -364.5908489 -0.451693E-03  0.255E-03    0.03       2.9  T
   4   -364.5906992  0.149614E-03  0.128E-02    0.03       1.0  T
   5   -364.5908520 -0.152756E-03  0.193E-03    0.03       3.8  T
   6   -364.5908540 -0.200689E-05  0.114E-03    0.03       6.5  T
   7   -364.5908448  0.916824E-05  0.322E-03    0.03       2.3  T
   8   -364.5908553 -0.104580E-04  0.185E-04    0.03      40.0  T
   9   -364.5908553 -0.614693E-08  0.165E-04    0.03      44.8  T
  10   -364.5908553 -0.912343E-08  0.135E-04    0.03      54.9  T
     SCC iter.                  ...        0 min,  1.718 sec
     gradient                   ...        0 min,  0.544 sec
 * total energy  :  -359.7574545 Eh     change        0.7086385E-08 Eh
   gradient norm :     0.9900284 Eh/α   predicted     0.0000000E+00 (-100.00%)
   displ. norm   :     0.5544308 α      lambda       -0.4740347E+00
   maximum displ.:     0.1499019 α      in ANC's #428, #376, #349, ...

........................................................................
.............................. CYCLE    2 ..............................
........................................................................
   1   -364.6435886 -0.364644E+03  0.392E-01    0.01       0.0  T
   2   -331.2572898  0.333863E+02  0.562E+00    0.13       1.0  T
   3   -360.0163555 -0.287591E+02  0.253E+00    0.03       1.0  T
   4   -364.0341681 -0.401781E+01  0.877E-01    0.01       1.0  T
   5   -350.6290781  0.134051E+02  0.371E+00    0.08       1.0  T
   6   -359.7895776 -0.916050E+01  0.226E+00    0.01       1.0  T
   7   -360.5036760 -0.714098E+00  0.204E+00    0.03       1.0  T
   8   -355.0641166  0.543956E+01  0.307E+00    0.03       1.0  T
   9   -363.5045269 -0.844041E+01  0.113E+00    0.01       1.0  T
  10   -362.3382929  0.116623E+01  0.159E+00    0.02       1.0  T
  11   -364.2701002 -0.193181E+01  0.703E-01    0.01       1.0  T
  12   -362.7888629  0.148124E+01  0.139E+00    0.02       1.0  T
  13   -362.9333828 -0.144520E+00  0.136E+00    0.02       1.0  T
  14   -364.1768153 -0.124343E+01  0.759E-01    0.01       1.0  T
  15   -364.2720583 -0.952429E-01  0.710E-01    0.01       1.0  T
  16   -364.1407260  0.131332E+00  0.792E-01    0.02       1.0  T
  17   -364.5877359 -0.447010E+00  0.410E-01    0.01       1.0  T
  18   -364.4861826  0.101553E+00  0.521E-01    0.01       1.0  T
  19   -364.7115420 -0.225359E+00  0.194E-01    0.00       1.0  T
  20   -364.7080633  0.347865E-02  0.203E-01    0.01       1.0  T
  21   -364.7458603 -0.377969E-01  0.518E-02    0.01       1.0  T
  22   -364.7458824 -0.220861E-04  0.504E-02    0.01       1.0  T
  23   -364.7457104  0.172001E-03  0.526E-02    0.01       1.0  T
  24   -364.7460504 -0.340039E-03  0.487E-02    0.01       1.0  T
  25   -364.7476937 -0.164329E-02  0.265E-02    0.01       1.0  T
  26   -364.7477057 -0.119893E-04  0.257E-02    0.01       1.0  T
  27   -364.7482336 -0.527953E-03  0.114E-02    0.01       1.0  T
  28   -364.7481591  0.745481E-04  0.144E-02    0.01       1.0  T
  29   -364.7483190 -0.159946E-03  0.690E-03    0.01       1.1  T
  30   -364.7482931  0.258828E-04  0.869E-03    0.01       1.0  T
  31   -364.7483598 -0.666627E-04  0.265E-03    0.01       2.8  T
  32   -364.7483590  0.847559E-06  0.281E-03    0.01       2.6  T
  33   -364.7483656 -0.665998E-05  0.981E-04    0.01       7.5  T
  34   -364.7483662 -0.564279E-06  0.598E-04    0.01      12.4  T
  35   -364.7483664 -0.186271E-06  0.401E-04    0.01      18.4  T
  36   -364.7483665 -0.891056E-07  0.267E-04    0.01      27.6  T
  37   -364.7483665 -0.627117E-07  0.941E-05    0.01      78.5  T
  38   -364.7483665 -0.767335E-08  0.347E-05    0.01     213.0  T
     SCC iter.                  ...        0 min,  5.830 sec
     gradient                   ...        0 min,  0.543 sec
 * total energy  :  -360.1073237 Eh     change       -0.3498692E+00 Eh
   gradient norm :     0.4927629 Eh/α   predicted    -0.3098892E+00 ( -11.43%)
   displ. norm   :     0.6017528 α      lambda       -0.2618321E+00
   maximum displ.:     0.1362584 α      in ANC's #381, #376, #253, ...

........................................................................
.............................. CYCLE    3 ..............................
........................................................................
   1   -364.8573935 -0.364857E+03  0.341E-01    0.02       0.0  T
   2   -351.9243098  0.129331E+02  0.366E+00    0.01       1.0  T
   3   -360.4038281 -0.847952E+01  0.246E+00    0.02       1.0  T
   4   -362.5394561 -0.213563E+01  0.160E+00    0.01       1.0  T
   5   -352.2526348  0.102868E+02  0.353E+00    0.05       1.0  T
   6   -353.9379545 -0.168532E+01  0.333E+00    0.02       1.0  T
   7   -357.3130979 -0.337514E+01  0.278E+00    0.02       1.0  T
   8   -362.2832134 -0.497012E+01  0.169E+00    0.03       1.0  T
   9   -357.6921560  0.459106E+01  0.268E+00    0.02       1.0  T
  10   -361.3205092 -0.362835E+01  0.193E+00    0.05       1.0  T
  11   -362.3780818 -0.105757E+01  0.167E+00    0.01       1.0  T
  12   -362.5125133 -0.134432E+00  0.160E+00    0.03       1.0  T
  13   -364.8473900 -0.233488E+01  0.248E-01    0.01       1.0  T
  14   -363.7540809  0.109331E+01  0.113E+00    0.02       1.0  T
  15   -363.5250332  0.229048E+00  0.119E+00    0.03       1.0  T
  16   -363.9027941 -0.377761E+00  0.101E+00    0.03       1.0  T
  17   -362.1898707  0.171292E+01  0.165E+00    0.01       1.0  T
  18   -364.6155039 -0.242563E+01  0.561E-01    0.01       1.0  T
  19   -364.3648486  0.250655E+00  0.759E-01    0.02       1.0  T
  20   -364.6469102 -0.282062E+00  0.532E-01    0.01       1.0  T
  21   -364.8854700 -0.238560E+00  0.171E-01    0.01       1.0  T
  22   -364.2360425  0.649428E+00  0.842E-01    0.01       1.0  T
  23   -364.6315900 -0.395547E+00  0.545E-01    0.00       1.0  T
  24   -364.8016805 -0.170091E+00  0.341E-01    0.01       1.0  T
  25   -364.7947744  0.690617E-02  0.352E-01    0.00       1.0  T
  26   -364.8380859 -0.433115E-01  0.274E-01    0.01       1.0  T
  27   -364.9014706 -0.633847E-01  0.965E-02    0.00       1.0  T
  28   -364.8960543  0.541624E-02  0.121E-01    0.01       1.0  T
  29   -364.9062812 -0.102269E-01  0.632E-02    0.00       1.0  T
  30   -364.9072467 -0.965512E-03  0.547E-02    0.00       1.0  T
  31   -364.9086335 -0.138672E-02  0.387E-02    0.00       1.0  T
  32   -364.9069664  0.166710E-02  0.568E-02    0.00       1.0  T
  33   -364.9088739 -0.190755E-02  0.347E-02    0.00       1.0  T
  34   -364.9094853 -0.611433E-03  0.247E-02    0.00       1.0  T
  35   -364.9097029 -0.217525E-03  0.198E-02    0.00       1.0  T
  36   -364.9100272 -0.324357E-03  0.890E-03    0.00       1.0  T
  37   -364.9100923 -0.650966E-04  0.402E-03    0.00       1.8  T
  38   -364.9100955 -0.322587E-05  0.364E-03    0.00       2.0  T
  39   -364.9101077 -0.121045E-04  0.126E-03    0.00       5.9  T
  40   -364.9101056  0.204316E-05  0.192E-03    0.00       3.9  T
  41   -364.9101091 -0.353610E-05  0.968E-05    0.00      76.3  T
  42   -364.9101090  0.186267E-06  0.448E-04    0.00      16.5  T
  43   -364.9101091 -0.188212E-06  0.864E-05    0.00      85.6  T
  44   -364.9101092 -0.548528E-08  0.408E-05    0.00     181.3  T
     SCC iter.                  ...        0 min,  6.708 sec
     gradient                   ...        0 min,  0.542 sec
 * total energy  :  -360.2909914 Eh     change       -0.1836677E+00 Eh
   gradient norm :     0.1903615 Eh/α   predicted    -0.1783217E+00 (  -2.91%)
   displ. norm   :     0.6121980 α      lambda       -0.8920790E-01
   maximum displ.:     0.1945491 α      in ANC's #53, #253, #164, ...

........................................................................
.............................. CYCLE    4 ..............................
........................................................................
   1   -364.9940745 -0.364994E+03  0.123E-01    0.03       0.0  T
   2   -363.2624270  0.173165E+01  0.148E+00    0.02       1.0  T
   3   -357.9036226  0.535880E+01  0.271E+00    0.01       1.0  T
   4   -358.1574549 -0.253832E+00  0.261E+00    0.00       1.0  T
   5   -361.2370925 -0.307964E+01  0.195E+00    0.06       1.0  T
   6   -364.5781523 -0.334106E+01  0.657E-01    0.01       1.0  T
   7   -363.7772129  0.800939E+00  0.113E+00    0.04       1.0  T
   8   -362.4598762  0.131734E+01  0.162E+00    0.03       1.0  T
   9   -363.7352107 -0.127533E+01  0.115E+00    0.03       1.0  T
  10   -363.0738969  0.661314E+00  0.141E+00    0.02       1.0  T
  11   -363.7899352 -0.716038E+00  0.111E+00    0.03       1.0  T
  12   -364.6638064 -0.873871E+00  0.595E-01    0.01       1.0  T
  13   -364.9479410 -0.284135E+00  0.232E-01    0.01       1.0  T
  14   -364.9613731 -0.134322E-01  0.202E-01    0.01       1.0  T
  15   -364.9972426 -0.358695E-01  0.591E-02    0.02       1.0  T
  16   -364.9939605  0.328215E-02  0.831E-02    0.02       1.0  T
  17   -364.9988588 -0.489830E-02  0.367E-02    0.02       1.0  T
  18   -364.9907169  0.814183E-02  0.992E-02    0.02       1.0  T
  19   -364.9935863 -0.286935E-02  0.835E-02    0.02       1.0  T
  20   -364.9924780  0.110827E-02  0.898E-02    0.02       1.0  T
  21   -364.9958450 -0.336702E-02  0.671E-02    0.02       1.0  T
  22   -364.9966427 -0.797674E-03  0.603E-02    0.02       1.0  T
  23   -364.9983551 -0.171244E-02  0.423E-02    0.02       1.0  T
  24   -364.9989445 -0.589365E-03  0.337E-02    0.02       1.0  T
  25   -364.9991144 -0.169870E-03  0.305E-02    0.02       1.0  T
  26   -364.9996930 -0.578656E-03  0.179E-02    0.02       1.0  T
  27   -364.9995877  0.105325E-03  0.206E-02    0.02       1.0  T
  28   -364.9997081 -0.120405E-03  0.172E-02    0.02       1.0  T
  29   -364.9998506 -0.142474E-03  0.121E-02    0.02       1.0  T
  30   -364.9999379 -0.873292E-04  0.740E-03    0.02       1.0  T
  31   -364.9999747 -0.367824E-04  0.401E-03    0.02       1.8  T
  32   -364.9999890 -0.142676E-04  0.115E-03    0.02       6.4  T
  33   -364.9999897 -0.761462E-06  0.710E-04    0.02      10.4  T
  34   -364.9999902 -0.473108E-06  0.144E-04    0.02      51.5  T
  35   -364.9999902 -0.192598E-07  0.308E-05    0.02     240.1  T
     SCC iter.                  ...        0 min,  5.341 sec
     gradient                   ...        0 min,  0.540 sec
 * total energy  :  -360.3516330 Eh     change       -0.6064161E-01 Eh
   gradient norm :     0.1025919 Eh/α   predicted    -0.6132111E-01 (   1.12%)
   displ. norm   :     0.6151468 α      lambda       -0.3511752E-01
   maximum displ.:     0.3293943 α      in ANC's #53, #125, #25, ...

........................................................................
.............................. CYCLE    5 ..............................
........................................................................
   1   -365.0505572 -0.365051E+03  0.100E-01    0.04       0.0  T
   2   -361.9258415  0.312472E+01  0.184E+00    0.01       1.0  T
   3   -363.5418730 -0.161603E+01  0.132E+00    0.04       1.0  T
   4   -362.6793681  0.862505E+00  0.157E+00    0.04       1.0  T
   5   -364.1552582 -0.147589E+01  0.977E-01    0.01       1.0  T
   6   -364.8657954 -0.710537E+00  0.444E-01    0.03       1.0  T
   7   -364.6503613  0.215434E+00  0.648E-01    0.02       1.0  T
   8   -364.8282413 -0.177880E+00  0.506E-01    0.00       1.0  T
   9   -364.6560983  0.172143E+00  0.644E-01    0.02       1.0  T
  10   -364.5022157  0.153883E+00  0.772E-01    0.01       1.0  T
  11   -364.8458395 -0.343624E+00  0.472E-01    0.02       1.0  T
  12   -364.9220222 -0.761826E-01  0.368E-01    0.02       1.0  T
  13   -365.0355810 -0.113559E+00  0.149E-01    0.03       1.0  T
  14   -365.0436655 -0.808459E-02  0.116E-01    0.04       1.0  T
  15   -364.9991967  0.444688E-01  0.249E-01    0.03       1.0  T
  16   -365.0319535 -0.327568E-01  0.160E-01    0.04       1.0  T
  17   -365.0388766 -0.692310E-02  0.135E-01    0.04       1.0  T
  18   -365.0474067 -0.853002E-02  0.102E-01    0.04       1.0  T
  19   -365.0536141 -0.620746E-02  0.611E-02    0.04       1.0  T
  20   -365.0554697 -0.185559E-02  0.418E-02    0.04       1.0  T
  21   -365.0542669  0.120278E-02  0.546E-02    0.04       1.0  T
  22   -365.0559782 -0.171126E-02  0.347E-02    0.04       1.0  T
  23   -365.0570086 -0.103039E-02  0.122E-02    0.04       1.0  T
  24   -365.0571481 -0.139495E-03  0.283E-03    0.04       2.6  T
  25   -365.0571410  0.710484E-05  0.392E-03    0.04       1.9  T
  26   -365.0571482 -0.724498E-05  0.267E-03    0.04       2.8  T
  27   -365.0571544 -0.616528E-05  0.831E-04    0.04       8.9  T
  28   -365.0571550 -0.619550E-06  0.209E-04    0.04      35.3  T
  29   -365.0571550 -0.243627E-07  0.132E-04    0.04      55.9  T
  30   -365.0571550 -0.136409E-07  0.612E-05    0.04     120.8  T
     SCC iter.                  ...        0 min,  4.592 sec
     gradient                   ...        0 min,  0.541 sec
 * total energy  :  -360.3777141 Eh     change       -0.2608111E-01 Eh
   gradient norm :     0.0605497 Eh/α   predicted    -0.2420327E-01 (  -7.20%)
   displ. norm   :     0.6774891 α      lambda       -0.2230210E-01
   maximum displ.:     0.4207848 α      in ANC's #53, #25, #125, ...

........................................................................
.............................. CYCLE    6 ..............................
........................................................................
   1   -365.1049092 -0.365105E+03  0.121E-01    0.08       0.0  T
   2   -361.9942471  0.311066E+01  0.196E+00    0.03       1.0  T
   3   -353.2803539  0.871389E+01  0.342E+00    0.00       1.0  T
   4   -364.5648732 -0.112845E+02  0.754E-01    0.02       1.0  T
   5   -358.4592330  0.610564E+01  0.263E+00    0.00       1.0  T
   6   -357.8864965  0.572736E+00  0.268E+00    0.01       1.0  T
   7   -364.1701947 -0.628370E+01  0.997E-01    0.01       1.0  T
   8   -363.1102200  0.105997E+01  0.144E+00    0.01       1.0  T
   9   -364.7256860 -0.161547E+01  0.650E-01    0.01       1.0  T
  10   -364.7046157  0.210703E-01  0.661E-01    0.03       1.0  T
  11   -365.0472892 -0.342673E+00  0.271E-01    0.06       1.0  T
  12   -364.7760429  0.271246E+00  0.594E-01    0.02       1.0  T
  13   -364.9461132 -0.170070E+00  0.427E-01    0.04       1.0  T
  14   -365.0598277 -0.113715E+00  0.245E-01    0.05       1.0  T
  15   -365.0598025  0.252337E-04  0.250E-01    0.04       1.0  T
  16   -365.0638081 -0.400562E-02  0.240E-01    0.04       1.0  T
  17   -365.0638639 -0.557630E-04  0.240E-01    0.04       1.0  T
  18   -365.0981301 -0.342662E-01  0.138E-01    0.05       1.0  T
  19   -365.0962479  0.188226E-02  0.142E-01    0.05       1.0  T
  20   -365.1048861 -0.863822E-02  0.109E-01    0.05       1.0  T
  21   -365.1054588 -0.572719E-03  0.108E-01    0.05       1.0  T
  22   -365.1073245 -0.186567E-02  0.100E-01    0.06       1.0  T
  23   -365.1109328 -0.360833E-02  0.799E-02    0.06       1.0  T
  24   -365.1141740 -0.324115E-02  0.526E-02    0.06       1.0  T
  25   -365.1156256 -0.145160E-02  0.331E-02    0.06       1.0  T
  26   -365.1157878 -0.162236E-03  0.299E-02    0.06       1.0  T
  27   -365.1163100 -0.522182E-03  0.181E-02    0.06       1.0  T
  28   -365.1165796 -0.269573E-03  0.450E-03    0.06       1.6  T
  29   -365.1165767  0.289201E-05  0.438E-03    0.06       1.7  T
  30   -365.1165793 -0.265121E-05  0.365E-03    0.06       2.0  T
  31   -365.1165891 -0.979487E-05  0.136E-03    0.06       5.4  T
  32   -365.1165895 -0.353676E-06  0.123E-03    0.06       6.0  T
  33   -365.1165907 -0.124346E-05  0.439E-04    0.06      16.8  T
  34   -365.1165909 -0.149018E-06  0.175E-04    0.06      42.3  T
  35   -365.1165909 -0.228405E-07  0.733E-05    0.06     100.8  T
     SCC iter.                  ...        0 min,  5.299 sec
     gradient                   ...        0 min,  0.548 sec
 * total energy  :  -360.3947138 Eh     change       -0.1699967E-01 Eh
   gradient norm :     0.0327873 Eh/α   predicted    -0.1626929E-01 (  -4.30%)
   displ. norm   :     0.7344663 α      lambda       -0.1384489E-01
   maximum displ.:     0.5218140 α      in ANC's #53, #25, #52, ...

........................................................................
.............................. CYCLE    7 ..............................
........................................................................
   1   -365.1503232 -0.365150E+03  0.500E-02    0.07       0.0  T
   2   -359.5159888  0.563433E+01  0.241E+00    0.04       1.0  T
   3   -360.6081371 -0.109215E+01  0.220E+00    0.04       1.0  T
   4   -360.7237076 -0.115571E+00  0.215E+00    0.04       1.0  T
   5   -365.1373849 -0.441368E+01  0.126E-01    0.06       1.0  T
   6   -365.1327086  0.467628E-02  0.139E-01    0.05       1.0  T
   7   -365.1086450  0.240636E-01  0.217E-01    0.04       1.0  T
   8   -365.1258692 -0.172242E-01  0.175E-01    0.04       1.0  T
   9   -365.1195759  0.629329E-02  0.186E-01    0.04       1.0  T
  10   -365.1243441 -0.476814E-02  0.174E-01    0.05       1.0  T
  11   -365.1381872 -0.138432E-01  0.131E-01    0.05       1.0  T
  12   -365.1407362 -0.254898E-02  0.117E-01    0.05       1.0  T
  13   -365.1371012  0.363499E-02  0.126E-01    0.06       1.0  T
  14   -365.1521467 -0.150455E-01  0.163E-02    0.06       1.0  T
  15   -365.1520312  0.115543E-03  0.190E-02    0.06       1.0  T
  16   -365.1518684  0.162805E-03  0.235E-02    0.06       1.0  T
  17   -365.1523251 -0.456691E-03  0.824E-03    0.06       1.0  T
  18   -365.1523711 -0.460244E-04  0.460E-03    0.06       1.6  T
  19   -365.1523740 -0.291610E-05  0.429E-03    0.06       1.7  T
  20   -365.1523823 -0.826138E-05  0.312E-03    0.06       2.4  T
  21   -365.1523842 -0.194591E-05  0.275E-03    0.06       2.7  T
  22   -365.1523852 -0.104348E-05  0.253E-03    0.06       2.9  T
  23   -365.1523891 -0.382477E-05  0.155E-03    0.06       4.8  T
  24   -365.1523905 -0.142474E-05  0.969E-04    0.06       7.6  T
  25   -365.1523912 -0.696851E-06  0.464E-04    0.06      15.9  T
  26   -365.1523914 -0.169336E-06  0.191E-04    0.06      38.7  T
  27   -365.1523914 -0.317417E-07  0.540E-05    0.06     137.0  T
     SCC iter.                  ...        0 min,  4.097 sec
     gradient                   ...        0 min,  0.553 sec
 * total energy  :  -360.4056682 Eh     change       -0.1095444E-01 Eh
   gradient norm :     0.0309453 Eh/α   predicted    -0.1065677E-01 (  -2.72%)
   displ. norm   :     0.7753384 α      lambda       -0.1167661E-01
   maximum displ.:     0.5443702 α      in ANC's #53, #25, #54, ...

........................................................................
.............................. CYCLE    8 ..............................
........................................................................
   1   -365.1797284 -0.365180E+03  0.500E-02    0.07       0.0  T
   2   -362.9320442  0.224768E+01  0.152E+00    0.05       1.0  T
   3   -363.2045946 -0.272550E+00  0.146E+00    0.04       1.0  T
   4   -363.8012264 -0.596632E+00  0.124E+00    0.06       1.0  T
   5   -365.1315599 -0.133033E+01  0.227E-01    0.05       1.0  T
   6   -364.9937177  0.137842E+00  0.434E-01    0.04       1.0  T
   7   -364.9099091  0.838086E-01  0.519E-01    0.04       1.0  T
   8   -364.9542040 -0.442949E-01  0.475E-01    0.04       1.0  T
   9   -365.1215061 -0.167302E+00  0.242E-01    0.07       1.0  T
  10   -365.1403848 -0.188787E-01  0.209E-01    0.06       1.0  T
  11   -365.1131553  0.272295E-01  0.267E-01    0.05       1.0  T
  12   -365.0923513  0.208040E-01  0.305E-01    0.05       1.0  T
  13   -365.1585778 -0.662265E-01  0.155E-01    0.06       1.0  T
  14   -365.1812514 -0.226736E-01  0.296E-02    0.06       1.0  T
  15   -365.1807144  0.537028E-03  0.377E-02    0.06       1.0  T
  16   -365.1806666  0.477894E-04  0.376E-02    0.06       1.0  T
  17   -365.1808603 -0.193695E-03  0.344E-02    0.06       1.0  T
  18   -365.1793107  0.154962E-02  0.529E-02    0.06       1.0  T
  19   -365.1794840 -0.173330E-03  0.513E-02    0.06       1.0  T
  20   -365.1807022 -0.121823E-02  0.366E-02    0.06       1.0  T
  21   -365.1817031 -0.100088E-02  0.167E-02    0.06       1.0  T
  22   -365.1818665 -0.163397E-03  0.100E-02    0.06       1.0  T
  23   -365.1819370 -0.705006E-04  0.501E-03    0.06       1.5  T
  24   -365.1819502 -0.131782E-04  0.329E-03    0.06       2.2  T
  25   -365.1819577 -0.747577E-05  0.178E-03    0.06       4.2  T
  26   -365.1819599 -0.226227E-05  0.903E-04    0.06       8.2  T
  27   -365.1819605 -0.550407E-06  0.493E-04    0.06      15.0  T
  28   -365.1819607 -0.198651E-06  0.189E-04    0.06      39.1  T
  29   -365.1819607 -0.312038E-07  0.552E-05    0.06     134.0  T
     SCC iter.                  ...        0 min,  3.678 sec
     gradient                   ...        0 min,  0.521 sec
 * total energy  :  -360.4128680 Eh     change       -0.7199811E-02 Eh
   gradient norm :     0.0390120 Eh/α   predicted    -0.9348034E-02 (  29.84%)
   displ. norm   :     0.6505484 α      lambda       -0.9207964E-02
   maximum displ.:     0.4366426 α      in ANC's #53, #25, #52, ...

........................................................................
.............................. CYCLE    9 ..............................
........................................................................
   1   -365.2142564 -0.365214E+03  0.523E-02    0.06       0.0  T
   2   -362.2363737  0.297788E+01  0.177E+00    0.00       1.0  T
   3   -364.8122291 -0.257586E+01  0.701E-01    0.01       1.0  T
   4   -363.9071379  0.905091E+00  0.118E+00    0.01       1.0  T
   5   -365.1716593 -0.126452E+01  0.217E-01    0.06       1.0  T
   6   -365.1742689 -0.260957E-02  0.206E-01    0.06       1.0  T
   7   -365.1642746  0.999433E-02  0.233E-01    0.07       1.0  T
   8   -365.1867949 -0.225204E-01  0.177E-01    0.05       1.0  T
   9   -365.1801878  0.660714E-02  0.192E-01    0.04       1.0  T
  10   -365.2122648 -0.320770E-01  0.700E-02    0.05       1.0  T
  11   -365.1827184  0.295464E-01  0.186E-01    0.05       1.0  T
  12   -365.2021211 -0.194027E-01  0.121E-01    0.05       1.0  T
  13   -365.2132005 -0.110794E-01  0.598E-02    0.06       1.0  T
  14   -365.2150719 -0.187131E-02  0.410E-02    0.06       1.0  T
  15   -365.2159289 -0.857072E-03  0.285E-02    0.06       1.0  T
  16   -365.2161956 -0.266671E-03  0.230E-02    0.06       1.0  T
  17   -365.2165099 -0.314276E-03  0.143E-02    0.06       1.0  T
  18   -365.2166263 -0.116379E-03  0.902E-03    0.06       1.0  T
  19   -365.2166662 -0.399829E-04  0.631E-03    0.06       1.2  T
  20   -365.2166149  0.513089E-04  0.957E-03    0.06       1.0  T
  21   -365.2166268 -0.118238E-04  0.884E-03    0.06       1.0  T
  22   -365.2166859 -0.591762E-04  0.412E-03    0.06       1.8  T
  23   -365.2166992 -0.132996E-04  0.188E-03    0.06       3.9  T
  24   -365.2167010 -0.181152E-05  0.132E-03    0.06       5.6  T
  25   -365.2167020 -0.950575E-06  0.888E-04    0.06       8.3  T
  26   -365.2167026 -0.601238E-06  0.418E-04    0.06      17.7  T
  27   -365.2167028 -0.160988E-06  0.954E-05    0.06      77.5  T
  28   -365.2167028 -0.781944E-08  0.318E-05    0.06     232.5  T
     SCC iter.                  ...        0 min,  3.664 sec
     gradient                   ...        0 min,  0.546 sec
 * total energy  :  -360.4193643 Eh     change       -0.6496237E-02 Eh
   gradient norm :     0.0232292 Eh/α   predicted    -0.6552450E-02 (   0.87%)
   displ. norm   :     0.6650189 α      lambda       -0.4947830E-02
   maximum displ.:     0.4084790 α      in ANC's #25, #53, #32, ...

........................................................................
.............................. CYCLE   10 ..............................
........................................................................
   1   -365.2485573 -0.365249E+03  0.528E-02    0.05       0.0  T
   2   -354.1875512  0.110610E+02  0.335E+00    0.01       1.0  T
   3   -362.3174846 -0.812993E+01  0.175E+00    0.00       1.0  T
   4   -353.9490726  0.836841E+01  0.333E+00    0.01       1.0  T
   5   -365.1980526 -0.112490E+02  0.230E-01    0.04       1.0  T
   6   -363.8497562  0.134830E+01  0.119E+00    0.03       1.0  T
   7   -365.2229746 -0.137322E+01  0.165E-01    0.05       1.0  T
   8   -365.0974653  0.125509E+00  0.389E-01    0.03       1.0  T
   9   -365.2053187 -0.107853E+00  0.216E-01    0.05       1.0  T
  10   -365.2450623 -0.397436E-01  0.776E-02    0.07       1.0  T
  11   -365.2191625  0.258998E-01  0.178E-01    0.05       1.0  T
  12   -365.2429392 -0.237767E-01  0.880E-02    0.06       1.0  T
  13   -365.2484319 -0.549273E-02  0.458E-02    0.06       1.0  T
  14   -365.2487820 -0.350021E-03  0.411E-02    0.06       1.0  T
  15   -365.2503284 -0.154645E-02  0.114E-02    0.06       1.0  T
  16   -365.2500737  0.254700E-03  0.200E-02    0.06       1.0  T
  17   -365.2503483 -0.274550E-03  0.112E-02    0.06       1.0  T
  18   -365.2504031 -0.548213E-04  0.790E-03    0.06       1.0  T
  19   -365.2504186 -0.155457E-04  0.662E-03    0.06       1.1  T
  20   -365.2504387 -0.200601E-04  0.469E-03    0.06       1.6  T
  21   -365.2504517 -0.130639E-04  0.288E-03    0.06       2.6  T
  22   -365.2504566 -0.481466E-05  0.180E-03    0.06       4.1  T
  23   -365.2504565  0.147620E-07  0.179E-03    0.06       4.1  T
  24   -365.2504582 -0.164820E-05  0.118E-03    0.06       6.3  T
  25   -365.2504591 -0.938320E-06  0.588E-04    0.06      12.6  T
  26   -365.2504592 -0.807634E-07  0.495E-04    0.06      14.9  T
  27   -365.2504592  0.893783E-08  0.499E-04    0.06      14.8  T
  28   -365.2504593 -0.919792E-07  0.384E-04    0.06      19.3  T
  29   -365.2504593 -0.283011E-07  0.339E-04    0.06      21.8  T
  30   -365.2504594 -0.783672E-07  0.163E-04    0.06      45.5  T
  31   -365.2504594 -0.221868E-07  0.408E-05    0.06     181.2  T
     SCC iter.                  ...        0 min,  4.102 sec
     gradient                   ...        0 min,  0.546 sec
 * total energy  :  -360.4233443 Eh     change       -0.3979999E-02 Eh
   gradient norm :     0.0181310 Eh/α   predicted    -0.3568013E-02 ( -10.35%)
   displ. norm   :     0.6525737 α      lambda       -0.3620439E-02
   maximum displ.:     0.4511314 α      in ANC's #25, #53, #12, ...

........................................................................
.............................. CYCLE   11 ..............................
........................................................................
   1   -365.2760759 -0.365276E+03  0.464E-02    0.05       0.0  T
   2   -364.8201480  0.455928E+00  0.712E-01    0.08       1.0  T
   3   -353.7490136  0.110711E+02  0.337E+00    0.01       1.0  T
   4   -364.8295620 -0.110805E+02  0.683E-01    0.02       1.0  T
   5   -364.6363229  0.193239E+00  0.818E-01    0.02       1.0  T
   6   -364.6668295 -0.305066E-01  0.799E-01    0.05       1.0  T
   7   -365.2189020 -0.552072E+00  0.267E-01    0.11       1.0  T
   8   -365.1543848  0.645173E-01  0.359E-01    0.02       1.0  T
   9   -365.2514696 -0.970848E-01  0.170E-01    0.04       1.0  T
  10   -365.2706131 -0.191436E-01  0.848E-02    0.05       1.0  T
  11   -365.2510195  0.195937E-01  0.163E-01    0.05       1.0  T
  12   -365.2720157 -0.209962E-01  0.753E-02    0.05       1.0  T
  13   -365.2744983 -0.248258E-02  0.561E-02    0.06       1.0  T
  14   -365.2767981 -0.229986E-02  0.288E-02    0.06       1.0  T
  15   -365.2767177  0.804383E-04  0.301E-02    0.06       1.0  T
  16   -365.2772248 -0.507140E-03  0.193E-02    0.06       1.0  T
  17   -365.2773854 -0.160589E-03  0.142E-02    0.06       1.0  T
  18   -365.2775248 -0.139357E-03  0.690E-03    0.06       1.1  T
  19   -365.2775414 -0.165778E-04  0.523E-03    0.06       1.4  T
  20   -365.2775498 -0.842760E-05  0.424E-03    0.06       1.7  T
  21   -365.2775582 -0.843479E-05  0.305E-03    0.06       2.4  T
  22   -365.2775647 -0.644118E-05  0.159E-03    0.06       4.7  T
  23   -365.2775668 -0.214729E-05  0.532E-04    0.06      13.9  T
  24   -365.2775670 -0.194039E-06  0.256E-04    0.06      28.9  T
  25   -365.2775670 -0.341680E-08  0.242E-04    0.06      30.5  T
  26   -365.2775670  0.636574E-07  0.351E-04    0.06      21.1  T
  27   -365.2775670 -0.133908E-07  0.326E-04    0.06      22.7  T
  28   -365.2775670 -0.662785E-07  0.180E-04    0.06      41.0  T
  29   -365.2775671 -0.197176E-07  0.996E-05    0.06      74.2  T
     SCC iter.                  ...        0 min,  4.025 sec
     gradient                   ...        0 min,  0.552 sec
 * total energy  :  -360.4262291 Eh     change       -0.2884828E-02 Eh
   gradient norm :     0.0112947 Eh/α   predicted    -0.2581110E-02 ( -10.53%)
   displ. norm   :     0.6195820 α      lambda       -0.2594581E-02
   maximum displ.:     0.4636899 α      in ANC's #25, #53, #12, ...

........................................................................
.............................. CYCLE   12 ..............................
........................................................................
   1   -365.2930790 -0.365293E+03  0.589E-02    0.05       0.0  T
   2   -353.6792677  0.116138E+02  0.337E+00    0.00       1.0  T
   3   -363.1777438 -0.949848E+01  0.151E+00    0.00       1.0  T
   4   -354.1868964  0.899085E+01  0.331E+00    0.01       1.0  T
   5   -365.1990120 -0.110121E+02  0.311E-01    0.04       1.0  T
   6   -363.7141047  0.148491E+01  0.127E+00    0.01       1.0  T
   7   -364.9491066 -0.123500E+01  0.599E-01    0.05       1.0  T
   8   -364.7416401  0.207466E+00  0.759E-01    0.02       1.0  T
   9   -365.2237877 -0.482148E+00  0.267E-01    0.05       1.0  T
  10   -365.2773053 -0.535176E-01  0.138E-01    0.04       1.0  T
  11   -365.2856534 -0.834809E-02  0.102E-01    0.05       1.0  T
  12   -365.2912199 -0.556648E-02  0.664E-02    0.05       1.0  T
  13   -365.2945332 -0.331326E-02  0.332E-02    0.06       1.0  T
  14   -365.2943320  0.201207E-03  0.357E-02    0.06       1.0  T
  15   -365.2940899  0.242094E-03  0.388E-02    0.06       1.0  T
  16   -365.2954728 -0.138296E-02  0.126E-02    0.06       1.0  T
  17   -365.2955513 -0.784788E-04  0.919E-03    0.06       1.0  T
  18   -365.2956067 -0.553926E-04  0.590E-03    0.06       1.3  T
  19   -365.2955832  0.234992E-04  0.805E-03    0.06       1.0  T
  20   -365.2955443  0.389419E-04  0.103E-02    0.06       1.0  T
  21   -365.2955699 -0.256424E-04  0.870E-03    0.06       1.0  T
  22   -365.2955683  0.164484E-05  0.865E-03    0.06       1.0  T
  23   -365.2955659  0.237411E-05  0.872E-03    0.06       1.0  T
  24   -365.2955816 -0.156802E-04  0.769E-03    0.06       1.0  T
  25   -365.2955934 -0.118475E-04  0.682E-03    0.06       1.1  T
  26   -365.2956060 -0.125341E-04  0.576E-03    0.06       1.3  T
  27   -365.2956202 -0.142415E-04  0.421E-03    0.06       1.8  T
  28   -365.2956340 -0.137622E-04  0.167E-03    0.06       4.4  T
  29   -365.2956363 -0.237019E-05  0.406E-04    0.06      18.2  T
  30   -365.2956365 -0.139678E-06  0.145E-04    0.06      50.9  T
  31   -365.2956365 -0.100283E-07  0.105E-04    0.06      70.2  T
     SCC iter.                  ...        0 min,  4.321 sec
     gradient                   ...        0 min,  0.551 sec
 * total energy  :  -360.4281569 Eh     change       -0.1927788E-02 Eh
   gradient norm :     0.0126716 Eh/α   predicted    -0.1795298E-02 (  -6.87%)
   displ. norm   :     0.5970383 α      lambda       -0.2346125E-02
   maximum displ.:     0.4417678 α      in ANC's #25, #12, #32, ...

........................................................................
.............................. CYCLE   13 ..............................
........................................................................
   1   -365.3028134 -0.365303E+03  0.579E-02    0.05       0.0  T
   2   -357.0107223  0.829209E+01  0.287E+00    0.00       1.0  T
   3   -353.4990471  0.351168E+01  0.340E+00    0.00       1.0  T
   4   -361.4634386 -0.796439E+01  0.201E+00    0.01       1.0  T
   5   -365.2249121 -0.376147E+01  0.289E-01    0.03       1.0  T
   6   -363.4688091  0.175610E+01  0.139E+00    0.01       1.0  T
   7   -364.9201516 -0.145134E+01  0.635E-01    0.05       1.0  T
   8   -365.0396265 -0.119475E+00  0.532E-01    0.02       1.0  T
   9   -365.2270828 -0.187456E+00  0.285E-01    0.05       1.0  T
  10   -365.2638273 -0.367445E-01  0.207E-01    0.04       1.0  T
  11   -365.2206910  0.431364E-01  0.293E-01    0.03       1.0  T
  12   -365.2983355 -0.776445E-01  0.862E-02    0.06       1.0  T
  13   -365.2994604 -0.112487E-02  0.763E-02    0.05       1.0  T
  14   -365.3031026 -0.364224E-02  0.502E-02    0.05       1.0  T
  15   -365.3036144 -0.511795E-03  0.444E-02    0.06       1.0  T
  16   -365.3040471 -0.432748E-03  0.392E-02    0.06       1.0  T
  17   -365.3039272  0.119911E-03  0.408E-02    0.06       1.0  T
  18   -365.3050500 -0.112275E-02  0.222E-02    0.06       1.0  T
  19   -365.3052993 -0.249342E-03  0.150E-02    0.06       1.0  T
  20   -365.3053857 -0.863770E-04  0.114E-02    0.06       1.0  T
  21   -365.3054384 -0.527357E-04  0.838E-03    0.06       1.0  T
  22   -365.3054564 -0.180057E-04  0.700E-03    0.06       1.1  T
  23   -365.3054931 -0.366604E-04  0.241E-03    0.06       3.1  T
  24   -365.3054960 -0.284378E-05  0.123E-03    0.06       6.0  T
  25   -365.3054961 -0.996986E-07  0.122E-03    0.06       6.1  T
  26   -365.3054974 -0.138409E-05  0.270E-04    0.06      27.4  T
  27   -365.3054974  0.508529E-07  0.341E-04    0.06      21.7  T
  28   -365.3054974  0.921824E-08  0.354E-04    0.06      20.9  T
  29   -365.3054974 -0.105538E-07  0.338E-04    0.06      21.9  T
  30   -365.3054974 -0.253150E-07  0.294E-04    0.06      25.2  T
  31   -365.3054974 -0.148085E-07  0.263E-04    0.06      28.1  T
  32   -365.3054975 -0.460116E-07  0.141E-04    0.06      52.6  T
  33   -365.3054975 -0.172101E-07  0.363E-05    0.06     203.6  T
     SCC iter.                  ...        0 min,  4.578 sec
     gradient                   ...        0 min,  0.552 sec
 * total energy  :  -360.4295389 Eh     change       -0.1382071E-02 Eh
   gradient norm :     0.0172609 Eh/α   predicted    -0.1591212E-02 (  15.13%)
   displ. norm   :     0.4849221 α      lambda       -0.1760158E-02
   maximum displ.:     0.3544871 α      in ANC's #25, #12, #32, ...

........................................................................
.............................. CYCLE   14 ..............................
........................................................................
   1   -365.3068453 -0.365307E+03  0.209E-02    0.05       0.0  T
   2   -354.3277638  0.109791E+02  0.329E+00    0.02       1.0  T
   3   -364.5621058 -0.102343E+02  0.886E-01    0.03       1.0  T
   4   -365.2125736 -0.650468E+00  0.317E-01    0.06       1.0  T
   5   -365.0385787  0.173995E+00  0.568E-01    0.03       1.0  T
   6   -364.4682327  0.570346E+00  0.921E-01    0.01       1.0  T
   7   -365.2282429 -0.760010E+00  0.293E-01    0.08       1.0  T
   8   -365.2426489 -0.144060E-01  0.257E-01    0.04       1.0  T
   9   -365.2947077 -0.520588E-01  0.114E-01    0.05       1.0  T
  10   -365.2958925 -0.118478E-02  0.109E-01    0.05       1.0  T
  11   -365.2838007  0.120918E-01  0.153E-01    0.04       1.0  T
  12   -365.3067671 -0.229664E-01  0.238E-02    0.05       1.0  T
  13   -365.3057561  0.101094E-02  0.395E-02    0.05       1.0  T
  14   -365.3060815 -0.325415E-03  0.353E-02    0.05       1.0  T
  15   -365.3066125 -0.530965E-03  0.262E-02    0.05       1.0  T
  16   -365.3070908 -0.478255E-03  0.142E-02    0.06       1.0  T
  17   -365.3071790 -0.882716E-04  0.105E-02    0.05       1.0  T
  18   -365.3072382 -0.592183E-04  0.705E-03    0.05       1.0  T
  19   -365.3072575 -0.192543E-04  0.548E-03    0.06       1.3  T
  20   -365.3072701 -0.126443E-04  0.407E-03    0.05       1.8  T
  21   -365.3072758 -0.567660E-05  0.323E-03    0.05       2.3  T
  22   -365.3072824 -0.657670E-05  0.183E-03    0.05       4.0  T
  23   -365.3072849 -0.251155E-05  0.809E-04    0.05       9.1  T
  24   -365.3072852 -0.331260E-06  0.543E-04    0.05      13.6  T
  25   -365.3072853 -0.957183E-07  0.435E-04    0.05      17.0  T
  26   -365.3072854 -0.536528E-07  0.360E-04    0.05      20.6  T
  27   -365.3072854 -0.511717E-07  0.264E-04    0.05      28.0  T
  28   -365.3072855 -0.511060E-07  0.102E-04    0.05      72.3  T
  29   -365.3072855 -0.747104E-08  0.432E-05    0.05     171.1  T
     SCC iter.                  ...        0 min,  3.999 sec
     gradient                   ...        0 min,  0.552 sec
 * total energy  :  -360.4308975 Eh     change       -0.1358504E-02 Eh
   gradient norm :     0.0138851 Eh/α   predicted    -0.1087032E-02 ( -19.98%)
   displ. norm   :     0.5501948 α      lambda       -0.1598123E-02
   maximum displ.:     0.3878100 α      in ANC's #25, #12, #32, ...

........................................................................
.............................. CYCLE   15 ..............................
........................................................................
   1   -365.3074617 -0.365307E+03  0.131E-02    0.05       0.0  T
   2   -363.6285385  0.167892E+01  0.132E+00    0.04       1.0  T
   3   -365.0708222 -0.144228E+01  0.498E-01    0.01       1.0  T
   4   -365.2885757 -0.217754E+00  0.143E-01    0.06       1.0  T
   5   -364.4363652  0.852211E+00  0.960E-01    0.03       1.0  T
   6   -365.2597589 -0.823394E+00  0.223E-01    0.06       1.0  T
   7   -365.2679803 -0.822138E-02  0.202E-01    0.04       1.0  T
   8   -365.2795946 -0.116143E-01  0.168E-01    0.04       1.0  T
   9   -365.3042808 -0.246862E-01  0.607E-02    0.05       1.0  T
  10   -365.2829018  0.213790E-01  0.158E-01    0.04       1.0  T
  11   -365.3067313 -0.238295E-01  0.292E-02    0.05       1.0  T
  12   -365.3070393 -0.308038E-03  0.233E-02    0.05       1.0  T
  13   -365.3070783 -0.389976E-04  0.226E-02    0.05       1.0  T
  14   -365.3074991 -0.420722E-03  0.906E-03    0.05       1.0  T
  15   -365.3074993 -0.285953E-06  0.922E-03    0.05       1.0  T
  16   -365.3075192 -0.198836E-04  0.801E-03    0.05       1.0  T
  17   -365.3075243 -0.510083E-05  0.746E-03    0.05       1.0  T
  18   -365.3075668 -0.424768E-04  0.302E-03    0.05       2.4  T
  19   -365.3075724 -0.559341E-05  0.184E-03    0.05       4.0  T
  20   -365.3075729 -0.473579E-06  0.170E-03    0.05       4.4  T
  21   -365.3075739 -0.102690E-05  0.133E-03    0.05       5.6  T
  22   -365.3075747 -0.823556E-06  0.919E-04    0.05       8.0  T
  23   -365.3075752 -0.515752E-06  0.501E-04    0.05      14.7  T
  24   -365.3075754 -0.147906E-06  0.271E-04    0.05      27.3  T
  25   -365.3075754 -0.524774E-07  0.133E-04    0.05      55.7  T
  26   -365.3075755 -0.165945E-07  0.256E-05    0.05     289.1  T
     SCC iter.                  ...        0 min,  3.540 sec
     gradient                   ...        0 min,  0.551 sec
 * total energy  :  -360.4321404 Eh     change       -0.1242937E-02 Eh
   gradient norm :     0.0115595 Eh/α   predicted    -0.1040950E-02 ( -16.25%)
   displ. norm   :     0.6019658 α      lambda       -0.1322306E-02
   maximum displ.:     0.4148767 α      in ANC's #25, #12, #32, ...

........................................................................
.............................. CYCLE   16 ..............................
........................................................................
   1   -365.3085554 -0.365309E+03  0.948E-03    0.05       0.0  T
   2   -363.2922704  0.201629E+01  0.146E+00    0.00       1.0  T
   3   -365.3022798 -0.201001E+01  0.834E-02    0.06       1.0  T
   4   -364.8281268  0.474153E+00  0.715E-01    0.01       1.0  T
   5   -364.5527384  0.275388E+00  0.895E-01    0.06       1.0  T
   6   -365.2753282 -0.722590E+00  0.184E-01    0.04       1.0  T
   7   -365.1978010  0.775272E-01  0.341E-01    0.05       1.0  T
   8   -365.3056930 -0.107892E+00  0.551E-02    0.06       1.0  T
   9   -365.2980849  0.760816E-02  0.103E-01    0.05       1.0  T
  10   -365.3076457 -0.956088E-02  0.323E-02    0.05       1.0  T
  11   -365.3079035 -0.257773E-03  0.278E-02    0.05       1.0  T
  12   -365.3070740  0.829517E-03  0.404E-02    0.05       1.0  T
  13   -365.3063120  0.762012E-03  0.487E-02    0.05       1.0  T
  14   -365.3081007 -0.178873E-02  0.233E-02    0.05       1.0  T
  15   -365.3085963 -0.495636E-03  0.645E-03    0.05       1.1  T
  16   -365.3085740  0.223923E-04  0.793E-03    0.05       1.0  T
  17   -365.3085740 -0.945893E-07  0.788E-03    0.05       1.0  T
  18   -365.3086044 -0.303412E-04  0.560E-03    0.05       1.3  T
  19   -365.3086303 -0.258636E-04  0.233E-03    0.05       3.2  T
  20   -365.3086334 -0.319628E-05  0.151E-03    0.05       4.9  T
  21   -365.3086337 -0.262940E-06  0.141E-03    0.05       5.2  T
  22   -365.3086345 -0.747283E-06  0.109E-03    0.05       6.8  T
  23   -365.3086348 -0.333951E-06  0.899E-04    0.05       8.2  T
  24   -365.3086352 -0.429259E-06  0.586E-04    0.05      12.6  T
  25   -365.3086355 -0.290755E-06  0.173E-04    0.05      42.8  T
  26   -365.3086355 -0.271409E-07  0.271E-05    0.05     272.9  T
     SCC iter.                  ...        0 min,  3.583 sec
     gradient                   ...        0 min,  0.550 sec
 * total energy  :  -360.4331494 Eh     change       -0.1008998E-02 Eh
   gradient norm :     0.0092562 Eh/α   predicted    -0.9007313E-03 ( -10.73%)
   displ. norm   :     0.6071114 α      lambda       -0.1053161E-02
   maximum displ.:     0.4104301 α      in ANC's #25, #12, #32, ...

........................................................................
.............................. CYCLE   17 ..............................
........................................................................
   1   -365.3085815 -0.365309E+03  0.248E-02    0.06       0.0  T
   2   -354.0418206  0.112668E+02  0.339E+00    0.02       1.0  T
   3   -364.8943967 -0.108526E+02  0.661E-01    0.02       1.0  T
   4   -364.4172089  0.477188E+00  0.953E-01    0.02       1.0  T
   5   -365.2061250 -0.788916E+00  0.347E-01    0.10       1.0  T
   6   -365.0423565  0.163768E+00  0.528E-01    0.05       1.0  T
   7   -365.2406859 -0.198329E+00  0.277E-01    0.08       1.0  T
   8   -365.1372444  0.103441E+00  0.414E-01    0.04       1.0  T
   9   -365.2850029 -0.147759E+00  0.158E-01    0.04       1.0  T
  10   -365.3028450 -0.178421E-01  0.826E-02    0.05       1.0  T
  11   -365.2733620  0.294831E-01  0.190E-01    0.04       1.0  T
  12   -365.3085006 -0.351387E-01  0.257E-02    0.06       1.0  T
  13   -365.3088030 -0.302345E-03  0.193E-02    0.06       1.0  T
  14   -365.3076578  0.114523E-02  0.396E-02    0.05       1.0  T
  15   -365.3086838 -0.102608E-02  0.218E-02    0.05       1.0  T
  16   -365.3084310  0.252870E-03  0.270E-02    0.05       1.0  T
  17   -365.3087482 -0.317212E-03  0.199E-02    0.06       1.0  T
  18   -365.3089954 -0.247263E-03  0.121E-02    0.06       1.0  T
  19   -365.3091020 -0.106579E-03  0.602E-03    0.06       1.2  T
  20   -365.3091336 -0.315949E-04  0.195E-03    0.06       3.8  T
  21   -365.3091363 -0.268052E-05  0.949E-04    0.06       7.8  T
  22   -365.3091368 -0.512113E-06  0.570E-04    0.06      13.0  T
  23   -365.3091368  0.145208E-07  0.574E-04    0.06      12.9  T
  24   -365.3091369 -0.816759E-07  0.472E-04    0.06      15.7  T
  25   -365.3091370 -0.103470E-06  0.297E-04    0.06      24.9  T
  26   -365.3091370 -0.693446E-07  0.508E-05    0.06     145.4  T
  27   -365.3091370  0.420198E-08  0.823E-05    0.06      89.9  T
     SCC iter.                  ...        0 min,  3.990 sec
     gradient                   ...        0 min,  0.553 sec
 * total energy  :  -360.4337594 Eh     change       -0.6099769E-03 Eh
   gradient norm :     0.0111328 Eh/α   predicted    -0.7206765E-03 (  18.15%)
   displ. norm   :     0.5124571 α      lambda       -0.8787743E-03
   maximum displ.:     0.3386439 α      in ANC's #25, #12, #32, ...

........................................................................
.............................. CYCLE   18 ..............................
........................................................................
   1   -365.3112807 -0.365311E+03  0.179E-02    0.06       0.0  T
   2   -360.7550267  0.455625E+01  0.219E+00    0.01       1.0  T
   3   -364.7218924 -0.396687E+01  0.774E-01    0.01       1.0  T
   4   -365.2812370 -0.559345E+00  0.181E-01    0.04       1.0  T
   5   -365.2084840  0.727529E-01  0.345E-01    0.10       1.0  T
   6   -365.2968641 -0.883800E-01  0.123E-01    0.06       1.0  T
   7   -365.2922356  0.462847E-02  0.141E-01    0.06       1.0  T
   8   -365.3089188 -0.166832E-01  0.553E-02    0.05       1.0  T
   9   -365.3015544  0.736433E-02  0.101E-01    0.05       1.0  T
  10   -365.3108086 -0.925419E-02  0.276E-02    0.06       1.0  T
  11   -365.3111320 -0.323396E-03  0.209E-02    0.06       1.0  T
  12   -365.3112635 -0.131496E-03  0.175E-02    0.06       1.0  T
  13   -365.3115343 -0.270795E-03  0.566E-03    0.06       1.3  T
  14   -365.3115267  0.761399E-05  0.627E-03    0.06       1.2  T
  15   -365.3115388 -0.121235E-04  0.515E-03    0.06       1.4  T
  16   -365.3115605 -0.216661E-04  0.209E-03    0.06       3.5  T
  17   -365.3115647 -0.419107E-05  0.423E-04    0.06      17.5  T
  18   -365.3115646  0.129182E-06  0.548E-04    0.06      13.5  T
  19   -365.3115645  0.137229E-07  0.552E-04    0.06      13.4  T
  20   -365.3115645  0.372797E-07  0.583E-04    0.06      12.7  T
  21   -365.3115645 -0.140991E-07  0.562E-04    0.06      13.1  T
  22   -365.3115645 -0.123652E-07  0.545E-04    0.06      13.6  T
  23   -365.3115647 -0.182773E-06  0.313E-04    0.06      23.6  T
  24   -365.3115648 -0.888803E-07  0.476E-05    0.06     155.2  T
  25   -365.3115648 -0.181495E-08  0.200E-05    0.06     369.1  T
     SCC iter.                  ...        0 min,  3.794 sec
     gradient                   ...        0 min,  0.541 sec
 * total energy  :  -360.4341007 Eh     change       -0.3412947E-03 Eh
   gradient norm :     0.0126513 Eh/α   predicted    -0.5547779E-03 (  62.55%)
   displ. norm   :     0.2896456 α      lambda       -0.4939556E-03
   maximum displ.:     0.1787827 α      in ANC's #25, #12, #23, ...

........................................................................
.............................. CYCLE   19 ..............................
........................................................................
   1   -365.3155318 -0.365316E+03  0.989E-03    0.06       0.0  T
   2   -365.1682207  0.147311E+00  0.399E-01    0.08       1.0  T
   3   -365.1744911 -0.627046E-02  0.389E-01    0.06       1.0  T
   4   -365.2959092 -0.121418E+00  0.140E-01    0.05       1.0  T
   5   -365.2860963  0.981294E-02  0.177E-01    0.05       1.0  T
   6   -365.2850763  0.101994E-02  0.173E-01    0.05       1.0  T
   7   -365.3038684 -0.187921E-01  0.108E-01    0.06       1.0  T
   8   -365.3150373 -0.111689E-01  0.242E-02    0.06       1.0  T
   9   -365.3150419 -0.466547E-05  0.239E-02    0.06       1.0  T
  10   -365.3151491 -0.107196E-03  0.212E-02    0.06       1.0  T
  11   -365.3155312 -0.382047E-03  0.816E-03    0.06       1.0  T
  12   -365.3155809 -0.497367E-04  0.404E-03    0.06       1.8  T
  13   -365.3155823 -0.135706E-05  0.365E-03    0.06       2.0  T
  14   -365.3155869 -0.468426E-05  0.290E-03    0.06       2.6  T
  15   -365.3155897 -0.273786E-05  0.232E-03    0.06       3.2  T
  16   -365.3155941 -0.439176E-05  0.899E-04    0.06       8.2  T
  17   -365.3155940  0.885763E-07  0.954E-04    0.06       7.8  T
  18   -365.3155942 -0.188585E-06  0.838E-04    0.06       8.8  T
  19   -365.3155948 -0.601826E-06  0.257E-04    0.06      28.7  T
  20   -365.3155948 -0.145759E-07  0.221E-04    0.06      33.5  T
  21   -365.3155948 -0.343007E-07  0.117E-04    0.06      63.4  T
  22   -365.3155948 -0.130861E-07  0.141E-05    0.06     524.9  T
     SCC iter.                  ...        0 min,  3.317 sec
     gradient                   ...        0 min,  0.565 sec
 * total energy  :  -360.4343966 Eh     change       -0.2959315E-03 Eh
   gradient norm :     0.0065828 Eh/α   predicted    -0.2676989E-03 (  -9.54%)
   displ. norm   :     0.2976956 α      lambda       -0.2880254E-03
   maximum displ.:     0.1649057 α      in ANC's #25, #12, #23, ...

........................................................................
.............................. CYCLE   20 ..............................
........................................................................
   1   -365.3204833 -0.365320E+03  0.155E-02    0.06       0.0  T
   2   -360.0836435  0.523684E+01  0.229E+00    0.00       1.0  T
   3   -365.2444342 -0.516079E+01  0.305E-01    0.10       1.0  T
   4   -364.8686818  0.375752E+00  0.695E-01    0.03       1.0  T
   5   -365.1346722 -0.265990E+00  0.446E-01    0.01       1.0  T
   6   -365.2100299 -0.753577E-01  0.338E-01    0.05       1.0  T
   7   -365.2578967 -0.478668E-01  0.260E-01    0.07       1.0  T
   8   -365.3108013 -0.529047E-01  0.100E-01    0.05       1.0  T
   9   -365.3189071 -0.810578E-02  0.438E-02    0.05       1.0  T
  10   -365.3126669  0.624019E-02  0.896E-02    0.05       1.0  T
  11   -365.3199578 -0.729084E-02  0.278E-02    0.06       1.0  T
  12   -365.3197276  0.230189E-03  0.311E-02    0.06       1.0  T
  13   -365.3205432 -0.815663E-03  0.125E-02    0.06       1.0  T
  14   -365.3206438 -0.100527E-03  0.695E-03    0.06       1.1  T
  15   -365.3206569 -0.131487E-04  0.567E-03    0.06       1.3  T
  16   -365.3206731 -0.161789E-04  0.384E-03    0.06       1.9  T
  17   -365.3206827 -0.955670E-05  0.214E-03    0.06       3.5  T
  18   -365.3206855 -0.280891E-05  0.130E-03    0.06       5.7  T
  19   -365.3206862 -0.753978E-06  0.952E-04    0.06       7.8  T
  20   -365.3206865 -0.263990E-06  0.802E-04    0.06       9.2  T
  21   -365.3206867 -0.195623E-06  0.659E-04    0.06      11.2  T
  22   -365.3206868 -0.133475E-06  0.538E-04    0.06      13.7  T
  23   -365.3206870 -0.214530E-06  0.237E-04    0.06      31.2  T
  24   -365.3206871 -0.486565E-07  0.425E-05    0.06     174.0  T
  25   -365.3206871 -0.134332E-08  0.190E-05    0.06     389.9  T
     SCC iter.                  ...        0 min,  4.303 sec
     gradient                   ...        0 min,  0.568 sec
 * total energy  :  -360.4345378 Eh     change       -0.1412544E-03 Eh
   gradient norm :     0.0075948 Eh/α   predicted    -0.1567785E-03 (  10.99%)
   displ. norm   :     0.3391957 α      lambda       -0.3439772E-03
   maximum displ.:     0.1612006 α      in ANC's #25, #12, #18, ...
 * RMSD in coord.:     0.6099528 α      energy gain  -0.6770833E+00 Eh

generating ANC from model Hessian ...
Using Lindh-Hessian (1995)
 Shifting diagonal of input Hessian by    1.0026292128436001E-002
 Lowest  eigenvalues of input Hessian
    0.010000    0.010010    0.010011    0.010021    0.010024    0.000000
    0.000000    0.000000    0.000000    0.000000    0.000000    0.010041
    0.010092    0.010134    0.010142    0.010256    0.010289    0.010311
 Highest eigenvalues
    2.684074    2.689232    2.689289    2.691220    2.692154    2.692900


........................................................................
.............................. CYCLE   21 ..............................
........................................................................
   1   -365.3260194 -0.365326E+03  0.898E-03    0.06       0.0  T
   2   -365.2140127  0.112007E+00  0.350E-01    0.08       1.0  T
   3   -365.1257963  0.882164E-01  0.453E-01    0.04       1.0  T
   4   -365.3237660 -0.197970E+00  0.481E-02    0.05       1.0  T
   5   -364.8353539  0.488412E+00  0.721E-01    0.02       1.0  T
   6   -365.3064262 -0.471072E+00  0.139E-01    0.05       1.0  T
   7   -365.2514413  0.549849E-01  0.272E-01    0.04       1.0  T
   8   -365.3228785 -0.714372E-01  0.568E-02    0.05       1.0  T
   9   -365.3257969 -0.291845E-02  0.179E-02    0.05       1.0  T
  10   -365.3257334  0.635661E-04  0.185E-02    0.06       1.0  T
  11   -365.3258786 -0.145198E-03  0.141E-02    0.06       1.0  T
  12   -365.3256369  0.241644E-03  0.211E-02    0.06       1.0  T
  13   -365.3259499 -0.312922E-03  0.111E-02    0.06       1.0  T
  14   -365.3260423 -0.924231E-04  0.501E-03    0.06       1.5  T
  15   -365.3260661 -0.238317E-04  0.645E-04    0.06      11.5  T
  16   -365.3260657  0.364818E-06  0.869E-04    0.06       8.5  T
  17   -365.3260664 -0.640735E-06  0.216E-04    0.06      34.2  T
  18   -365.3260662  0.147855E-06  0.435E-04    0.06      17.0  T
  19   -365.3260663 -0.433227E-07  0.377E-04    0.06      19.6  T
  20   -365.3260664 -0.102064E-06  0.183E-04    0.06      40.5  T
  21   -365.3260664 -0.297587E-07  0.451E-05    0.06     163.9  T
     SCC iter.                  ...        0 min,  3.741 sec
     gradient                   ...        0 min,  0.571 sec
 * total energy  :  -360.4346809 Eh     change       -0.1430506E-03 Eh
   gradient norm :     0.0077985 Eh/α   predicted     0.0000000E+00 (-100.00%)
   displ. norm   :     0.0863429 α      lambda       -0.3210640E-03
   maximum displ.:     0.0250970 α      in ANC's #11, #25, #29, ...

........................................................................
.............................. CYCLE   22 ..............................
........................................................................
   1   -365.3241959 -0.365324E+03  0.181E-02    0.06       0.0  T
   2   -360.6002173  0.472398E+01  0.220E+00    0.00       1.0  T
   3   -364.1105822 -0.351036E+01  0.112E+00    0.02       1.0  T
   4   -365.2845237 -0.117394E+01  0.203E-01    0.03       1.0  T
   5   -365.2035899  0.809338E-01  0.380E-01    0.11       1.0  T
   6   -365.2233481 -0.197581E-01  0.320E-01    0.05       1.0  T
   7   -365.2945813 -0.712333E-01  0.176E-01    0.05       1.0  T
   8   -365.3224226 -0.278413E-01  0.504E-02    0.05       1.0  T
   9   -365.3228454 -0.422824E-03  0.416E-02    0.05       1.0  T
  10   -365.3208423  0.200313E-02  0.607E-02    0.05       1.0  T
  11   -365.3243023 -0.346000E-02  0.149E-02    0.06       1.0  T
  12   -365.3240656  0.236644E-03  0.216E-02    0.06       1.0  T
  13   -365.3244141 -0.348468E-03  0.101E-02    0.06       1.0  T
  14   -365.3244975 -0.834204E-04  0.371E-03    0.06       2.0  T
  15   -365.3244977 -0.202248E-06  0.367E-03    0.06       2.0  T
  16   -365.3245069 -0.920004E-05  0.163E-03    0.06       4.5  T
  17   -365.3245076 -0.628290E-06  0.143E-03    0.06       5.2  T
  18   -365.3245081 -0.539388E-06  0.123E-03    0.06       6.0  T
  19   -365.3245093 -0.122940E-05  0.461E-04    0.06      16.0  T
  20   -365.3245094 -0.962368E-07  0.325E-04    0.06      22.7  T
  21   -365.3245095 -0.902625E-07  0.109E-04    0.06      67.5  T
  22   -365.3245095 -0.656701E-08  0.707E-05    0.06     104.6  T
     SCC iter.                  ...        0 min,  3.983 sec
     gradient                   ...        0 min,  0.559 sec
 * total energy  :  -360.4346815 Eh     change       -0.6435387E-06 Eh
   gradient norm :     0.0089846 Eh/α   predicted    -0.1618708E-03 (*******%)
   displ. norm   :     0.0605556 α      lambda       -0.2676286E-03
   maximum displ.:     0.0199154 α      in ANC's #11, #25, #21, ...

........................................................................
.............................. CYCLE   23 ..............................
........................................................................
   1   -365.3240587 -0.365324E+03  0.491E-03    0.06       0.0  T
   2   -364.8191900  0.504869E+00  0.717E-01    0.01       1.0  T
   3   -365.3195246 -0.500335E+00  0.735E-02    0.04       1.0  T
   4   -365.2886823  0.308422E-01  0.193E-01    0.05       1.0  T
   5   -365.3029191 -0.142368E-01  0.152E-01    0.06       1.0  T
   6   -365.3236441 -0.207250E-01  0.219E-02    0.06       1.0  T
   7   -365.3233387  0.305422E-03  0.270E-02    0.05       1.0  T
   8   -365.3239330 -0.594324E-03  0.126E-02    0.05       1.0  T
   9   -365.3240595 -0.126460E-03  0.467E-03    0.05       1.6  T
  10   -365.3240777 -0.182478E-04  0.175E-03    0.05       4.2  T
  11   -365.3240792 -0.151689E-05  0.132E-03    0.05       5.6  T
  12   -365.3240799 -0.638426E-06  0.966E-04    0.05       7.7  T
  13   -365.3240804 -0.553180E-06  0.613E-04    0.05      12.1  T
  14   -365.3240808 -0.338584E-06  0.168E-04    0.05      43.9  T
  15   -365.3240808 -0.150301E-07  0.111E-04    0.05      66.3  T
     SCC iter.                  ...        0 min,  2.736 sec
     gradient                   ...        0 min,  0.557 sec
 * total energy  :  -360.4348466 Eh     change       -0.1650224E-03 Eh
   gradient norm :     0.0019220 Eh/α   predicted    -0.1343523E-03 ( -18.59%)
   displ. norm   :     0.1617018 α      lambda       -0.8840438E-04
   maximum displ.:     0.0636250 α      in ANC's #11, #25, #21, ...

........................................................................
.............................. CYCLE   24 ..............................
........................................................................
   1   -365.3228301 -0.365323E+03  0.110E-02    0.05       0.0  T
   2   -363.4086587  0.191417E+01  0.143E+00    0.02       1.0  T
   3   -365.2885646 -0.187991E+01  0.193E-01    0.03       1.0  T
   4   -365.0799385  0.208626E+00  0.497E-01    0.02       1.0  T
   5   -365.2961437 -0.216205E+00  0.180E-01    0.08       1.0  T
   6   -365.3158898 -0.197461E-01  0.868E-02    0.06       1.0  T
   7   -365.3216057 -0.571593E-02  0.406E-02    0.05       1.0  T
   8   -365.3151682  0.643750E-02  0.877E-02    0.05       1.0  T
   9   -365.3226533 -0.748505E-02  0.173E-02    0.05       1.0  T
  10   -365.3224791  0.174125E-03  0.217E-02    0.05       1.0  T
  11   -365.3224248  0.543164E-04  0.229E-02    0.05       1.0  T
  12   -365.3229002 -0.475320E-03  0.617E-03    0.05       1.2  T
  13   -365.3229274 -0.272886E-04  0.334E-03    0.05       2.2  T
  14   -365.3229179  0.949769E-05  0.453E-03    0.05       1.6  T
  15   -365.3229270 -0.901982E-05  0.336E-03    0.05       2.2  T
  16   -365.3229359 -0.892346E-05  0.146E-03    0.05       5.1  T
  17   -365.3229375 -0.164159E-05  0.657E-04    0.05      11.3  T
  18   -365.3229375  0.234202E-07  0.635E-04    0.05      11.6  T
  19   -365.3229378 -0.323958E-06  0.212E-04    0.05      34.9  T
  20   -365.3229379 -0.346863E-07  0.905E-05    0.05      81.7  T
  21   -365.3229379 -0.487915E-08  0.552E-05    0.05     134.0  T
     SCC iter.                  ...        0 min,  3.881 sec
     gradient                   ...        0 min,  0.558 sec
 * total energy  :  -360.4349462 Eh     change       -0.9967632E-04 Eh
   gradient norm :     0.0030509 Eh/α   predicted    -0.4471062E-04 ( -55.14%)
   displ. norm   :     0.2611505 α      lambda       -0.1547219E-03
   maximum displ.:     0.1021584 α      in ANC's #11, #21, #20, ...

........................................................................
.............................. CYCLE   25 ..............................
........................................................................
   1   -365.3211284 -0.365321E+03  0.149E-02    0.05       0.0  T
   2   -363.0319424  0.228919E+01  0.156E+00    0.01       1.0  T
   3   -365.1818561 -0.214991E+01  0.382E-01    0.01       1.0  T
   4   -365.1372711  0.445850E-01  0.433E-01    0.01       1.0  T
   5   -365.3008808 -0.163610E+00  0.162E-01    0.08       1.0  T
   6   -365.3088211 -0.794032E-02  0.115E-01    0.05       1.0  T
   7   -365.3106376 -0.181652E-02  0.104E-01    0.05       1.0  T
   8   -365.3167900 -0.615238E-02  0.668E-02    0.05       1.0  T
   9   -365.3208792 -0.408922E-02  0.217E-02    0.05       1.0  T
  10   -365.3197526  0.112658E-02  0.403E-02    0.05       1.0  T
[...]
   131   7 N    3.365 --   127 C    1.245   130 C    1.206   125 Fe   0.648
   132   6 C    3.910 --   130 C    1.319   142 C    1.319   133 C    1.036
   133   6 C    3.985 --   141 C    1.384   134 C    1.383   132 C    1.036
   134   6 C    3.986 --   135 C    1.463   133 C    1.383   170 H    0.971
                           140 C    0.102
   135   6 C    3.987 --   134 C    1.463   136 C    1.389   171 H    0.964
                           141 C    0.102
   136   6 C    3.942 --   140 C    1.389   135 C    1.389   137 N    0.918
   137   7 N    3.867 --   138 O    1.457   139 O    1.456   136 C    0.918
   138   8 O    1.833 --   137 N    1.457   139 O    0.253
   139   8 O    1.832 --   137 N    1.456   138 O    0.253
   140   6 C    3.987 --   141 C    1.462   136 C    1.389   172 H    0.964
                           134 C    0.102
   141   6 C    3.986 --   140 C    1.462   133 C    1.384   173 H    0.971
                           135 C    0.102
   142   6 C    3.916 --   132 C    1.319   145 N    1.205   143 C    1.183
   143   6 C    3.957 --   144 C    1.632   142 C    1.183   174 H    0.973
   144   6 C    3.960 --   143 C    1.632   146 C    1.191   175 H    0.969
   145   7 N    3.367 --   146 C    1.246   142 C    1.205   125 Fe   0.651
   146   6 C    3.907 --   147 C    1.247   145 N    1.246   144 C    1.191
   147   6 C    3.905 --   146 C    1.247   148 C    1.247   123 C    1.204
   148   6 C    3.907 --   147 C    1.247   152 N    1.245   149 C    1.192
   149   6 C    3.960 --   150 C    1.631   148 C    1.192   176 H    0.969
   150   6 C    3.957 --   149 C    1.631   151 C    1.183   177 H    0.973
   151   6 C    3.916 --   153 C    1.317   152 N    1.206   150 C    1.183
   152   7 N    3.365 --   148 C    1.245   151 C    1.206   125 Fe   0.649
   153   6 C    3.911 --   163 C    1.320   151 C    1.317   154 C    1.036
   154   6 C    3.985 --   162 C    1.384   155 C    1.382   153 C    1.036
   155   6 C    3.985 --   156 C    1.463   154 C    1.382   178 H    0.971
                           161 C    0.102
   156   6 C    3.987 --   155 C    1.463   157 C    1.389   179 H    0.964
                           162 C    0.102
   157   6 C    3.942 --   161 C    1.389   156 C    1.389   158 N    0.918
   158   7 N    3.867 --   160 O    1.457   159 O    1.456   157 C    0.918
   159   8 O    1.832 --   158 N    1.456   160 O    0.253
   160   8 O    1.833 --   158 N    1.457   159 O    0.253
   161   6 C    3.987 --   162 C    1.462   157 C    1.389   180 H    0.964
                           155 C    0.102
   162   6 C    3.986 --   161 C    1.462   154 C    1.384   181 H    0.971
                           156 C    0.102
   163   6 C    3.916 --   153 C    1.320   167 N    1.205   164 C    1.182
   164   6 C    3.958 --   165 C    1.634   163 C    1.182   182 H    0.973
   165   6 C    3.960 --   164 C    1.634   166 C    1.190   183 H    0.971
   166   6 C    3.908 --   126 C    1.250   167 N    1.246   165 C    1.190
   167   7 N    3.366 --   166 C    1.246   163 C    1.205   125 Fe   0.650
   168   1 H    1.003 --   128 C    0.971
   169   1 H    1.003 --   129 C    0.973
   170   1 H    1.003 --   134 C    0.971
   171   1 H    1.006 --   135 C    0.964
   172   1 H    1.006 --   140 C    0.964
   173   1 H    1.003 --   141 C    0.971
   174   1 H    1.002 --   143 C    0.973
   175   1 H    1.005 --   144 C    0.969
   176   1 H    1.005 --   149 C    0.969
   177   1 H    1.002 --   150 C    0.973
   178   1 H    1.003 --   155 C    0.971
   179   1 H    1.006 --   156 C    0.964
   180   1 H    1.006 --   161 C    0.964
   181   1 H    1.003 --   162 C    0.971
   182   1 H    1.003 --   164 C    0.973
   183   1 H    1.003 --   165 C    0.971
 ---------------------------------------------------------------------------

Topologies differ in total number of bonds
Writing topology from bond orders to xtbtopo.mol

 dipole moment from electron density (au)
     X       Y       Z   
   0.1059   0.0281  -0.0631  total (Debye):    0.321

           -------------------------------------------------
          |                Geometry Summary                 |
           -------------------------------------------------

      molecular mass/u    :     1863.1195776
   center of mass at/Å    :       45.7582860       0.0157620      -0.0188294
  moments of inertia/u·Å² :        0.4939296E+05   0.1509071E+06   0.1983247E+06
rotational constants/cm⁻¹ :        0.3412963E-03   0.1117087E-03   0.8500015E-04

 * 184 selected distances

     #   Z          #   Z                                           value/Å
     2   6 C        3   6 C                                       1.3794951
     3   6 C        4   6 C                                       1.4319123
     4   6 C        5   6 C                                       1.3534112
     5   6 C        6   6 C                                       1.4349307
     3   6 C        7   7 N                                       1.3702897
     6   6 C        7   7 N                                       1.3680173
     6   6 C        8   6 C                                       1.3910255
     9   6 C       10   6 C                                       1.3977844
    10   6 C       11   6 C                                       1.3832178
    11   6 C       12   6 C                                       1.3917804
    13   7 N       14   8 O                                       1.2039173
    13   7 N       15   8 O                                       1.2038077
    12   6 C       16   6 C                                       1.3917699
     9   6 C       17   6 C                                       1.3980221
    16   6 C       17   6 C                                       1.3829788
     8   6 C       18   6 C                                       1.3878850
    18   6 C       19   6 C                                       1.4330157
    19   6 C       20   6 C                                       1.3544396
    18   6 C       21   7 N                                       1.3740200
    20   6 C       22   6 C                                       1.4297104
    21   7 N       22   6 C                                       1.3634089
    22   6 C       23   6 C                                       1.3994252
    23   6 C       24   6 C                                       1.3995707
    24   6 C       25   6 C                                       1.4296391
    25   6 C       26   6 C                                       1.3544818
    26   6 C       27   6 C                                       1.4331555
    24   6 C       28   7 N                                       1.3633353
    27   6 C       28   7 N                                       1.3742659
    27   6 C       29   6 C                                       1.3878739
    30   6 C       31   6 C                                       1.3980803
    31   6 C       32   6 C                                       1.3830062
    32   6 C       33   6 C                                       1.3917903
    34   7 N       35   8 O                                       1.2039541
    34   7 N       36   8 O                                       1.2038233
    33   6 C       37   6 C                                       1.3917581
    30   6 C       38   6 C                                       1.3978694
    37   6 C       38   6 C                                       1.3831791
    29   6 C       39   6 C                                       1.3914058
    39   6 C       40   6 C                                       1.4350004
    40   6 C       41   6 C                                       1.3533810
     2   6 C       42   6 C                                       1.3791908
    41   6 C       42   6 C                                       1.4319850
    39   6 C       43   7 N                                       1.3675940
    42   6 C       43   7 N                                       1.3706491
     2   6 C       44   1 H                                       1.0840393
     4   6 C       45   1 H                                       1.0782103
     5   6 C       46   1 H                                       1.0778139
    10   6 C       47   1 H                                       1.0837361
    11   6 C       48   1 H                                       1.0833777
    16   6 C       49   1 H                                       1.0833638
    17   6 C       50   1 H                                       1.0837110
    19   6 C       51   1 H                                       1.0777364
    20   6 C       52   1 H                                       1.0778980
    25   6 C       53   1 H                                       1.0779673
    26   6 C       54   1 H                                       1.0777094
    31   6 C       55   1 H                                       1.0837295
    32   6 C       56   1 H                                       1.0833595
    37   6 C       57   1 H                                       1.0833666
    38   6 C       58   1 H                                       1.0837219
    40   6 C       59   1 H                                       1.0778188
    41   6 C       60   1 H                                       1.0782162
    62   6 C       63   6 C                                       1.3802984
    63   6 C       64   6 C                                       1.4320233
    64   6 C       65   6 C                                       1.3540293
    65   6 C       66   6 C                                       1.4349712
    63   6 C       67   7 N                                       1.3702782
    66   6 C       67   7 N                                       1.3678370
    66   6 C       68   6 C                                       1.3918652
    69   6 C       70   6 C                                       1.3982730
    70   6 C       71   6 C                                       1.3829219
    71   6 C       72   6 C                                       1.3918188
    73   7 N       74   8 O                                       1.2037876
    73   7 N       75   8 O                                       1.2040069
    72   6 C       76   6 C                                       1.3918136
    69   6 C       77   6 C                                       1.3981795
    76   6 C       77   6 C                                       1.3830277
    68   6 C       78   6 C                                       1.3890780
    78   6 C       79   6 C                                       1.4326192
    79   6 C       80   6 C                                       1.3552738
    78   6 C       81   7 N                                       1.3735348
    80   6 C       82   6 C                                       1.4290494
    81   7 N       82   6 C                                       1.3636038
    82   6 C       83   6 C                                       1.4015732
    83   6 C       84   6 C                                       1.4016018
    84   6 C       85   6 C                                       1.4290855
    85   6 C       86   6 C                                       1.3553127
    86   6 C       87   6 C                                       1.4328674
    84   6 C       88   7 N                                       1.3633869
    87   6 C       88   7 N                                       1.3738101
    87   6 C       89   6 C                                       1.3889491
    90   6 C       91   6 C                                       1.3983091
    91   6 C       92   6 C                                       1.3829578
    92   6 C       93   6 C                                       1.3918259
    94   7 N       95   8 O                                       1.2037881
    94   7 N       96   8 O                                       1.2039382
    93   6 C       97   6 C                                       1.3917925
    90   6 C       98   6 C                                       1.3982800
    97   6 C       98   6 C                                       1.3829669
    89   6 C       99   6 C                                       1.3923497
    99   6 C      100   6 C                                       1.4350013 (max)
   100   6 C      101   6 C                                       1.3540201
    62   6 C      102   6 C                                       1.3800517
   101   6 C      102   6 C                                       1.4320398
    99   6 C      103   7 N                                       1.3674170
   102   6 C      103   7 N                                       1.3706476
    62   6 C      104   1 H                                       1.0839826
    64   6 C      105   1 H                                       1.0782237
    65   6 C      106   1 H                                       1.0778660
    70   6 C      107   1 H                                       1.0837607
    71   6 C      108   1 H                                       1.0833662
    76   6 C      109   1 H                                       1.0833726
    77   6 C      110   1 H                                       1.0837152
    79   6 C      111   1 H                                       1.0777910
    80   6 C      112   1 H                                       1.0774884
    85   6 C      113   1 H                                       1.0775983
    86   6 C      114   1 H                                       1.0777817
    91   6 C      115   1 H                                       1.0837214
    92   6 C      116   1 H                                       1.0833635
    97   6 C      117   1 H                                       1.0833651
    98   6 C      118   1 H                                       1.0837501
   100   6 C      119   1 H                                       1.0778572
   101   6 C      120   1 H                                       1.0782251
   121   6 C      122   6 C                                       1.2184501
   123   6 C      124   6 C                                       1.2195182
   126   6 C      127   6 C                                       1.4008850
   127   6 C      128   6 C                                       1.4289603
   128   6 C      129   6 C                                       1.3558278
   129   6 C      130   6 C                                       1.4322125
   127   6 C      131   7 N                                       1.3630103
   130   6 C      131   7 N                                       1.3727670
   130   6 C      132   6 C                                       1.3903956
   133   6 C      134   6 C                                       1.3982985
   134   6 C      135   6 C                                       1.3829083
   135   6 C      136   6 C                                       1.3916415
   137   7 N      138   8 O                                       1.2034335
   137   7 N      139   8 O                                       1.2035519
   136   6 C      140   6 C                                       1.3916439
   133   6 C      141   6 C                                       1.3980051
   140   6 C      141   6 C                                       1.3832127
   132   6 C      142   6 C                                       1.3905516
   142   6 C      143   6 C                                       1.4319307
   143   6 C      144   6 C                                       1.3558649
   142   6 C      145   7 N                                       1.3727748
   144   6 C      146   6 C                                       1.4285328
   145   7 N      146   6 C                                       1.3631783
   146   6 C      147   6 C                                       1.4022006
   147   6 C      148   6 C                                       1.4022207
   148   6 C      149   6 C                                       1.4284057
   149   6 C      150   6 C                                       1.3559631
   150   6 C      151   6 C                                       1.4317766
   148   6 C      152   7 N                                       1.3634561
   151   6 C      152   7 N                                       1.3725398
   151   6 C      153   6 C                                       1.3908598
   154   6 C      155   6 C                                       1.3984207
   155   6 C      156   6 C                                       1.3828651
   156   6 C      157   6 C                                       1.3916500
   158   7 N      159   8 O                                       1.2035598
   158   7 N      160   8 O                                       1.2034665
   157   6 C      161   6 C                                       1.3916427
   154   6 C      162   6 C                                       1.3980108
   161   6 C      162   6 C                                       1.3832475
   153   6 C      163   6 C                                       1.3902732
   163   6 C      164   6 C                                       1.4323747
   164   6 C      165   6 C                                       1.3557750
   126   6 C      166   6 C                                       1.4008764
   165   6 C      166   6 C                                       1.4290305
   163   6 C      167   7 N                                       1.3730751
   166   6 C      167   7 N                                       1.3628135
   128   6 C      168   1 H                                       1.0778888
   129   6 C      169   1 H                                       1.0777312
   134   6 C      170   1 H                                       1.0837376
   135   6 C      171   1 H                                       1.0833668
   140   6 C      172   1 H                                       1.0833857
   141   6 C      173   1 H                                       1.0837199
   143   6 C      174   1 H                                       1.0777369
   144   6 C      175   1 H                                       1.0774976
   149   6 C      176   1 H                                       1.0774594 (min)
   150   6 C      177   1 H                                       1.0777491
   155   6 C      178   1 H                                       1.0837483
   156   6 C      179   1 H                                       1.0833725
   161   6 C      180   1 H                                       1.0833857
   162   6 C      181   1 H                                       1.0837035
   164   6 C      182   1 H                                       1.0776977
   165   6 C      183   1 H                                       1.0779336

 * 4 distinct bonds (by element types)

   Z      Z             #   av. dist./Å        max./Å        min./Å
   1 H    6 C          50     1.0808224     1.0840393     1.0774594
   6 C    6 C          98     1.3932738     1.4350013     1.2184501
   6 C    7 N          24     1.3685713     1.3742659     1.3628135
   7 N    8 O          12     1.2037529     1.2040069     1.2034335


optimized geometry written to: xtbopt.xyz


           -------------------------------------------------
          | TOTAL ENERGY             -360.436279298016 Eh   |
          | GRADIENT NORM               0.000845584083 Eh/α |
          | HOMO-LUMO GAP               0.053872824778 eV   |
           -------------------------------------------------

------------------------------------------------------------------------
 * finished run on 2022/07/29 at 20:16:04.875     
------------------------------------------------------------------------
 total:
 * wall-time:     0 d,  0 h,  4 min, 37.578 sec
 *  cpu-time:     0 d,  0 h,  4 min, 35.819 sec
 * ratio c/w:     0.994 speedup
 SCF:
 * wall-time:     0 d,  0 h,  0 min, 20.277 sec
 *  cpu-time:     0 d,  0 h,  0 min, 20.139 sec
 * ratio c/w:     0.993 speedup
 ANC optimizer:
 * wall-time:     0 d,  0 h,  4 min, 17.021 sec
 *  cpu-time:     0 d,  0 h,  4 min, 15.412 sec
 * ratio c/w:     0.994 speedup

