187
 energy: -362.148092553612 gnorm: 0.000218111161 xtb: 6.5.1 (b24c23e)
Zn          32.27649095324355       -0.00604067702523       -0.05209427223182
C           28.86886568970981       -0.03491185221013       -0.13723149086082
C           29.50216692809942       -1.25749419398064       -0.32327833418798
C           28.83129198349789       -2.51291373755764       -0.51572575426799
C           29.79248050421277       -3.45894732300803       -0.65663247525325
C           31.06380204866937       -2.78980097801490       -0.56360359159298
N           30.85245619934470       -1.45964987642575       -0.35196407276057
C           32.31809998523421       -3.40831356690505       -0.64400594340205
C           32.33599387854774       -4.86798178474024       -0.90015682962608
C           32.90245621472011       -5.74324980787020        0.03190424846380
C           32.91994776154443       -7.10598183189826       -0.20232751885044
C           32.37087796719998       -7.59922065602169       -1.38275790311382
N           32.38959462347064       -9.02839988259973       -1.63571709604912
O           31.89895889030435       -9.41952160192307       -2.66403522341377
O           32.89433671483172       -9.73616182898413       -0.80191308265064
C           31.80422144157162       -6.74522452177239       -2.32492188998452
C           31.78685389450867       -5.38479224169001       -2.07792376751139
C           33.55628869627696       -2.76931384458932       -0.50853806134226
C           34.83851849039262       -3.40237659648208       -0.65251172575541
C           35.78062307937507       -2.44196789045572       -0.47345127040115
N           33.74378371100649       -1.43685915838915       -0.25829398072669
C           35.08494187156906       -1.21293299141066       -0.22724825335884
C           35.71119803948189        0.02769279317663        0.00667217631064
C           35.05361762619431        1.25384079949301        0.22964934051735
C           35.71622630938699        2.49299181548090        0.51303196397023
C           34.74974843249792        3.43263256612316        0.67185543976604
C           33.48590374908416        2.77747546391638        0.47363459369033
N           33.70798553943028        1.45153003621911        0.21703527782137
C           32.23123684293071        3.39244067194895        0.56128295260352
C           32.20782426751115        4.84860606522720        0.83562891155867
C           31.58606988502019        5.33777305702146        1.98904956100607
C           31.55972840826387        6.69471658203089        2.25338291600037
C           32.15619230710416        7.57342216665358        1.35323937155030
N           32.12813324897900        8.99919086146075        1.62369151065701
O           31.57555197006570        9.36557322648867        2.62947979767045
O           32.65882034437167        9.72915572923430        0.82589456790717
C           32.77822994739876        7.10796732479379        0.19800277620095
C           32.80337105628807        5.74845245535386       -0.05388871233694
C           30.99332520902107        2.75304912678165        0.41401057757894
C           29.70789966210244        3.40083040630481        0.44382045946061
C           28.77121321980696        2.44049460022849        0.24618701224558
C           29.47178042774585        1.19718483180467        0.08357770733241
N           30.81527747102195        1.42114849051967        0.18386868663735
H           27.78375926716718       -0.04355289156746       -0.16594886877089
H           27.76067636840704       -2.64293941707192       -0.53035067232055
H           29.65709811097928       -4.51915447231344       -0.79847593996448
H           33.31571161963527       -5.34816163432245        0.95264687258209
H           33.35074139508654       -7.79199101260095        0.51705529020925
H           31.38768070705214       -7.15357973981448       -3.23784955221928
H           31.36027401736261       -4.70855292008168       -2.80960620858990
H           34.99703101989417       -4.44488354955792       -0.87660561411231
H           36.85306578286215       -2.54789971601458       -0.51052310898874
H           36.78451869826936        2.61842224706111        0.58932448451580
H           34.88009675731602        4.47476107451457        0.91506712599126
H           31.13617092250688        4.64266743627351        2.68838400502165
H           31.08579040804142        7.08157201348710        3.14748524245095
H           33.23098863018705        7.81278525069073       -0.48898168157073
H           33.27262822010794        5.37529987625728       -0.95675416423283
H           29.54751336620530        4.45780276913549        0.58367929700549
H           27.69936811064686        2.55330028283066        0.20429733004397
Zn          59.23564757122595        0.05325050857918       -0.01724943152456
C           62.64203865269212        0.11103947124109       -0.12273817164332
C           62.01198736744717        1.31500445529263        0.16695434257516
C           62.68617194538377        2.55116420007363        0.45075541218788
C           61.72757137046077        3.48260116093465        0.67929885540818
C           60.45438689089513        2.82840322219727        0.52526060610453
N           60.66228623432181        1.51458030043262        0.22602977952499
C           59.20161307533652        3.43440518184769        0.68566103578407
C           59.18659988713526        4.88429466334007        0.99193956654402
C           58.62121637184019        5.34853599399036        2.18390607201085
C           58.60696985786159        6.69981676861263        2.47692187425050
C           59.15850609350069        7.59777144575510        1.56715053009446
N           59.14402507742476        9.01758850672774        1.86831457656478
O           59.64033999680256        9.76388053371885        1.06348113071758
O           58.63737851456942        9.36294101286984        2.90520190791597
C           59.72377404103125        7.15719969712429        0.37363570364314
C           59.73754161535563        5.80320174152463        0.09312041312638
C           57.96205447343484        2.79209185112176        0.58052063434227
C           56.68109534817503        3.43579557573660        0.68267719616318
C           55.73689558012801        2.47719354079448        0.50464438394748
N           57.77171497242598        1.46047266179318        0.32844671890737
C           56.42998474011723        1.24188692756151        0.28421947610314
C           55.80147219510037       -0.00052278674338        0.06649585241241
C           56.45695288407173       -1.22472801380321       -0.17308749088706
C           55.79297459673817       -2.48254459715501       -0.35157572028067
C           56.75708256150322       -3.41303169818600       -0.56828434349494
C           58.02057054150650       -2.72873628244820       -0.53539812095530
N           57.80114835220768       -1.40201761246291       -0.28092772472482
C           59.27288616608477       -3.33057526768022       -0.70739946097821
C           59.29067852587616       -4.78242092377089       -1.00413836543229
C           59.92706394058628       -5.67367857841391       -0.13429820784328
C           59.94722120560627       -7.02934709527444       -0.40607440189023
C           59.32993374987907       -7.49944245220002       -1.56197127834320
N           59.35187666905175       -8.92090655606266       -1.85472853521473
O           59.91782298795953       -9.64282107758495       -1.07394731292882
O           58.80321205990516       -9.29198173233473       -2.86089145989842
C           58.69276725234747       -6.62933161696368       -2.44237379783461
C           58.67379462542251       -5.27622271827395       -2.15803715614950
C           60.51178746233604       -2.68157844620931       -0.62604217086693
C           61.79435358086972       -3.29281549252737       -0.85879798174188
C           62.73298521136135       -2.32799782428104       -0.69506851136724
C           62.03624842267730       -1.11432427662214       -0.37153581110180
N           60.69312003900307       -1.36001435061003       -0.34429343800408
H           63.72684539411232        0.12957182784067       -0.15753468334052
H           63.75713584558803        2.67627631696460        0.47767090713886
H           61.86616484705144        4.51918735775519        0.94151252466313
H           58.20638306684891        4.63848476588748        2.88987681735354
H           58.17713182785986        7.06758918443954        3.40086966529900
H           60.14209063692539        7.87663713111641       -0.31999494706992
H           60.16273846551848        5.44923375086291       -0.83883040064407
H           56.52475909125694        4.48865673940375        0.85360382412985
H           54.66460441565982        2.59055711447622        0.51412169199841
H           54.72557324149360       -2.62899873310233       -0.30686892263741
H           56.62578591887019       -4.47175873171829       -0.72335490091373
H           60.39325991582958       -5.29710201918146        0.76874127076363
H           60.43229557823042       -7.72752953275676        0.26544863108403
H           58.22367458320531       -7.01965996276501       -3.33752398685447
H           58.19247123596223       -4.58736720533688       -2.84246934059028
H           61.95152448949797       -4.32532032037658       -1.12658119403242
H           63.80368610997514       -2.41656520587556       -0.79043224809755
C           38.33940822668429        0.04380749157896        0.01474574448289
C           37.11726728446473        0.04094396914935        0.01641325899754
C           39.68904409332365        0.04357914110322        0.01070197509516
C           40.91124549570380        0.03747422801341        0.00360215719740
C           51.82390326443549       -0.02558628203991        0.08913274346450
C           50.60166574895774       -0.02231631772406        0.08107030792944
C           53.17348693671135       -0.02358010169251        0.09033230343034
C           54.39563137564090       -0.01760460114271        0.08507551199036
Zn          45.75663241833141        0.00630521661485        0.02003489631941
C           42.31684702150629        0.02851894571403        0.00172721305176
C           42.95229803994818       -1.22805841734212        0.06071433862180
C           42.26599395023894       -2.48313112274466        0.14624189057730
C           43.21516643208074       -3.45328579653818        0.17399054268880
C           44.49120921300935       -2.79802303374492        0.09728372257976
N           44.29485699274768       -1.44484763172231        0.03961773041849
C           45.73440422651404       -3.44136655207833        0.11299473780818
C           45.72381630093353       -4.92345406414988        0.14582530633561
C           46.29428152169266       -5.61166430683199        1.22113411739360
C           46.28468021735713       -6.99406774158112        1.25642685254595
C           45.70400437426581       -7.69619447572689        0.20394832427331
N           45.69363025447726       -9.14771866225245        0.23449854970861
O           45.17220124591874       -9.72125364800186       -0.68728906854222
O           46.20692508393663       -9.68923270210420        1.18005934219436
C           45.13280493634650       -7.03069026877499       -0.87712704511391
C           45.14292507441645       -5.64806013556637       -0.89966234266583
C           46.98605844368522       -2.81474773310443        0.10045280525952
C           48.25399122544113       -3.48914691224957        0.06636298475329
C           49.21550355034158       -2.53091079098183        0.05323793327782
N           47.19961855195612       -1.46293179492464        0.08980180628891
C           48.54493518307802       -1.26457354345201        0.06778691437978
C           49.19621884930003       -0.01476782731562        0.06531349015489
C           48.56021202727774        1.24274931720581        0.04057787408537
C           49.24531955102373        2.50121340715708        0.06069516624848
C           48.29642037358817        3.47047447313151        0.00512671801094
C           47.02193737843335        2.81070791844314       -0.05733760727075
N           47.21851780517583        1.45683768227703       -0.02211134538839
C           45.77932195371633        3.45296080715160       -0.11410926287515
C           45.79057032195146        4.93342500733752       -0.18841373865938
C           46.39905649860074        5.57965010463796       -1.26909921535357
C           46.40753614226926        6.96006060357612       -1.34971269517067
C           45.80671207054828        7.70291289219454       -0.33725383737654
N           45.81303175556744        9.15256959036444       -0.41662416938578
O           46.35473953911588        9.65666030845719       -1.36698687994238
O           45.27568363357215        9.76215705038442        0.47231155932422
C           45.19939341846221        7.07977134545256        0.74935892447840
C           45.19199913419963        5.69855147920866        0.81739110557927
C           44.52765767963086        2.82610680109485       -0.10980457520943
C           43.26092552325439        3.49551826545638       -0.21460054945128
C           42.29924181732044        2.53812285047833       -0.17709621170365
C           42.96875571417775        1.27631677859219       -0.06284889957926
N           44.31357781689105        1.47662101145716       -0.03102601250884
H           41.19477651632862       -2.59958416757409        0.18654806964366
H           43.06515303658993       -4.51783170464186        0.25377974740821
H           46.73216604073922       -5.05351022019539        2.04048188029187
H           46.71843624957183       -7.53560964983092        2.08846194724370
H           44.69102450962360       -7.60036378330209       -1.68583154616441
H           44.71235474176879       -5.11838399694886       -1.74149656115373
H           48.39095170797086       -4.55814266976638        0.04203203813465
H           50.28541007312752       -2.66271820295916        0.02797585347424
H           50.31546900440329        2.62091023953671        0.11678623254331
H           48.44539006896964        4.53805232403464        0.01974815543690
H           46.85214710989449        4.98983090486717       -2.05743756458164
H           46.87015736238378        7.46891260408549       -2.18682472769271
H           44.74320649206785        7.68071749898720        1.52681645962138
H           44.73331128475864        5.20203753225083        1.66454632333238
H           43.12478235912054        4.55992446144426       -0.31747549187808
H           41.23007449012670        2.66700528497156       -0.23153952820162
