      -----------------------------------------------------------      
     |                   =====================                   |     
     |                           x T B                           |     
     |                   =====================                   |     
     |                         S. Grimme                         |     
     |          Mulliken Center for Theoretical Chemistry        |     
     |                    University of Bonn                     |     
      -----------------------------------------------------------      

   * xtb version 6.5.1 (b24c23e) compiled by 'conda@728c89f4b128' on 2022-07-12

   xtb is free software: you can redistribute it and/or modify it under
   the terms of the GNU Lesser General Public License as published by
   the Free Software Foundation, either version 3 of the License, or
   (at your option) any later version.
   
   xtb is distributed in the hope that it will be useful,
   but WITHOUT ANY WARRANTY; without even the implied warranty of
   MERCHANTABILITY or FITNESS FOR A PARTICULAR PURPOSE.  See the
   GNU Lesser General Public License for more details.
   
   Cite this work as:
   * C. Bannwarth, E. Caldeweyher, S. Ehlert, A. Hansen, P. Pracht,
     J. Seibert, S. Spicher, S. Grimme, WIREs Comput. Mol. Sci., 2020, 11,
     e01493. DOI: 10.1002/wcms.1493
   
   for GFN2-xTB:
   * C. Bannwarth, S. Ehlert and S. Grimme., J. Chem. Theory Comput., 2019,
     15, 1652-1671. DOI: 10.1021/acs.jctc.8b01176
   for GFN1-xTB:
   * S. Grimme, C. Bannwarth, P. Shushkov, J. Chem. Theory Comput., 2017,
     13, 1989-2009. DOI: 10.1021/acs.jctc.7b00118
   for GFN0-xTB:
   * P. Pracht, E. Caldeweyher, S. Ehlert, S. Grimme, ChemRxiv, 2019, preprint.
     DOI: 10.26434/chemrxiv.8326202.v1
   for GFN-FF:
   * S. Spicher and S. Grimme, Angew. Chem. Int. Ed., 2020, 59, 15665-15673.
     DOI: 10.1002/anie.202004239
   
   for ALPB and GBSA implicit solvation:
   * S. Ehlert, M. Stahn, S. Spicher, S. Grimme, J. Chem. Theory Comput.,
     2021, 17, 4250-4261. DOI: 10.1021/acs.jctc.1c00471
   
   for DFT-D4:
   * E. Caldeweyher, C. Bannwarth and S. Grimme, J. Chem. Phys., 2017,
     147, 034112. DOI: 10.1063/1.4993215
   * E. Caldeweyher, S. Ehlert, A. Hansen, H. Neugebauer, S. Spicher,
     C. Bannwarth and S. Grimme, J. Chem. Phys., 2019, 150, 154122.
     DOI: 10.1063/1.5090222
   * E. Caldeweyher, J.-M. Mewes, S. Ehlert and S. Grimme, Phys. Chem. Chem. Phys.
     2020, 22, 8499-8512. DOI: 10.1039/D0CP00502A
   
   for sTDA-xTB:
   * S. Grimme and C. Bannwarth, J. Chem. Phys., 2016, 145, 054103.
     DOI: 10.1063/1.4959605
   
   in the mass-spec context:
   * V. Asgeirsson, C. Bauer and S. Grimme, Chem. Sci., 2017, 8, 4879.
     DOI: 10.1039/c7sc00601b
   * J. Koopman and S. Grimme, ACS Omega 2019, 4, 12, 15120-15133.
     DOI: 10.1021/acsomega.9b02011
   
   for metadynamics refer to:
   * S. Grimme, J. Chem. Theory Comput., 2019, 155, 2847-2862
     DOI: 10.1021/acs.jctc.9b00143
   
   for SPH calculations refer to:
   * S. Spicher and S. Grimme, J. Chem. Theory Comput., 2021, 17, 1701-1714
     DOI: 10.1021/acs.jctc.0c01306
   
   with help from (in alphabetical order)
   P. Atkinson, C. Bannwarth, F. Bohle, G. Brandenburg, E. Caldeweyher
   M. Checinski, S. Dohm, S. Ehlert, S. Ehrlich, I. Gerasimov, C. Hölzer
   A. Katbashev, J. Koopman, C. Lavigne, S. Lehtola, F. März, M. Müller,
   F. Musil, H. Neugebauer, J. Pisarek, C. Plett, P. Pracht, F. Pultar,
   J. Seibert, P. Shushkov, S. Spicher, M. Stahn, M. Steiner, T. Strunk,
   J. Stückrath, T. Rose, and J. Unsleber
   
 * started run on 2022/07/30 at 03:45:44.104     

           -------------------------------------------------
          |                Calculation Setup                |
           -------------------------------------------------

          program call               : xtb Ni_DHP_C8_2.xyz --gfn 1 --opt -T 48
          hostname                   : cx3-14-19.cx3.hpc.ic.ac.uk
          coordinate file            : Ni_DHP_C8_2.xyz
          omp threads                :                     1

   ID    Z sym.   atoms
    1   28 Ni     1, 59
    2    6 C      2-6, 8-11, 13-17, 19-24, 26-29, 31-36, 60-64, 66-69, 71-75,
                  77-82, 84-87, 89-94, 117-124
    3    7 N      7, 12, 18, 25, 30, 37, 65, 70, 76, 83, 88, 95
    4    1 H      38-58, 96-116
########################################################################
[WARNING] Please study the warnings concerning your input carefully
-1- prog_main_parseArguments: Unknown option '-T' provided
########################################################################

           -------------------------------------------------
          |                 G F N 1 - x T B                 |
           -------------------------------------------------

        Reference                      10.1021/acs.jctc.7b00118
      * Hamiltonian:
        H0-scaling (s, p, d)           1.850000    2.250000    2.000000
        zeta-weighting                 0.000000
      * Dispersion:
        s8                             2.400000
        a1                             0.630000
        a2                             5.000000
        s9                             0.000000
      * Repulsion:
        kExp                           1.500000
        rExp                           1.000000
      * Coulomb:
        alpha                          2.000000
        third order                    atomic
        anisotropic                    false
      * Halogen bond correction:
        rad-scale                      1.300000
        damping                        0.440000


          ...................................................
          :                      SETUP                      :
          :.................................................:
          :  # basis functions                 424          :
          :  # atomic orbitals                 422          :
          :  # shells                          250          :
          :  # electrons                       394          :
          :  # halogen bonds                     0          :
          :  max. iterations                   250          :
          :  Hamiltonian                  GFN1-xTB          :
          :  restarted?                      false          :
          :  GBSA solvation                  false          :
          :  PC potential                    false          :
          :  electronic temp.          300.0000000     K    :
          :  accuracy                    1.0000000          :
          :  -> integral cutoff          0.2500000E+02      :
          :  -> integral neglect         0.1000000E-07      :
          :  -> SCF convergence          0.1000000E-05 Eh   :
          :  -> wf. convergence          0.2000000E-04 e    :
          :  Broyden damping             0.4000000          :
          ...................................................

 iter      E             dE          RMSdq      gap      omega  full diag
   1   -215.0652945 -0.215065E+03  0.106E+01    0.05       0.0  T
   2   -162.1241284  0.529412E+02  0.121E+01    0.05       1.0  T
   3   -212.1197389 -0.499956E+02  0.645E+00    0.12       1.0  T
   4   -206.7884515  0.533129E+01  0.493E+00    0.10       1.0  T
   5   -202.7208368  0.406761E+01  0.427E+00    0.08       1.0  T
   6   -210.6607350 -0.793990E+01  0.346E+00    0.10       1.0  T
   7   -213.9282078 -0.326747E+01  0.331E+00    0.11       1.0  T
   8   -214.8885685 -0.960361E+00  0.291E+00    0.05       1.0  T
   9   -215.2089370 -0.320368E+00  0.271E+00    0.15       1.0  T
  10   -215.1570373  0.518997E-01  0.262E+00    0.10       1.0  T
  11   -214.5014245  0.655613E+00  0.256E+00    0.13       1.0  T
  12   -215.0836549 -0.582230E+00  0.212E+00    0.03       1.0  T
  13   -215.6104994 -0.526845E+00  0.157E+00    0.09       1.0  T
  14   -215.6973229 -0.868235E-01  0.135E+00    0.22       1.0  T
  15   -214.7783959  0.918927E+00  0.189E+00    0.12       1.0  T
  16   -215.8143786 -0.103598E+01  0.665E-01    0.55       1.0  T
  17   -215.8530159 -0.386372E-01  0.305E-01    0.61       1.0  T
  18   -215.8637856 -0.107698E-01  0.185E-01    0.63       1.0  T
  19   -215.8672850 -0.349940E-02  0.130E-01    0.60       1.0  T
  20   -215.8696827 -0.239772E-02  0.691E-02    0.57       1.0  T
  21   -215.8704176 -0.734888E-03  0.365E-02    0.54       1.0  T
  22   -215.8705631 -0.145466E-03  0.257E-02    0.54       1.0  T
  23   -215.8705787 -0.156005E-04  0.223E-02    0.53       1.0  T
  24   -215.8705872 -0.854926E-05  0.185E-02    0.53       1.0  T
  25   -215.8706033 -0.160890E-04  0.161E-02    0.53       1.0  T
  26   -215.8706263 -0.230028E-04  0.140E-02    0.53       1.0  T
  27   -215.8706362 -0.981501E-05  0.132E-02    0.53       1.0  T
  28   -215.8706466 -0.104202E-04  0.122E-02    0.54       1.0  T
  29   -215.8706643 -0.177666E-04  0.103E-02    0.54       1.0  T
  30   -215.8706847 -0.204021E-04  0.778E-03    0.55       1.2  T
  31   -215.8706933 -0.855599E-05  0.649E-03    0.55       1.4  T
  32   -215.8706984 -0.506135E-05  0.552E-03    0.55       1.6  T
  33   -215.8707020 -0.367947E-05  0.467E-03    0.55       1.9  T
  34   -215.8707059 -0.391026E-05  0.344E-03    0.55       2.6  T
  35   -215.8707088 -0.287113E-05  0.207E-03    0.55       4.3  T
  36   -215.8707094 -0.557654E-06  0.168E-03    0.55       5.3  T
  37   -215.8707100 -0.596986E-06  0.109E-03    0.55       8.2  T
  38   -215.8707103 -0.369205E-06  0.477E-04    0.55      18.8  T
  39   -215.8707104 -0.370044E-07  0.361E-04    0.55      24.9  T
  40   -215.8707104 -0.252595E-07  0.216E-04    0.55      41.6  T
  41   -215.8707104 -0.790209E-08  0.135E-04    0.55      66.4  T
  42   -215.8707104 -0.114946E-08  0.118E-04    0.56      76.1  T

   *** convergence criteria satisfied after 42 iterations ***

         #    Occupation            Energy/Eh            Energy/eV
      -------------------------------------------------------------
         1        2.0000           -0.7721190             -21.0104
       ...           ...                  ...                  ...
       191        2.0000           -0.3803074             -10.3487
       192        2.0000           -0.3765816             -10.2473
       193        2.0000           -0.3716465             -10.1130
       194        2.0000           -0.3695134             -10.0550
       195        2.0000           -0.3692896             -10.0489
       196        2.0000           -0.3683379             -10.0230
       197        2.0000           -0.3677415             -10.0068 (HOMO)
       198        0.0001           -0.3473408              -9.4516 (LUMO)
       199                         -0.3286940              -8.9442
       200                         -0.3285726              -8.9409
       201                         -0.3255748              -8.8593
       202                         -0.3225888              -8.7781
       ...                                ...                  ...
       422                          2.2543958              61.3452
      -------------------------------------------------------------
                  HL-Gap            0.0204007 Eh            0.5551 eV
             Fermi-level           -0.3572360 Eh           -9.7209 eV

 SCC (total)                   0 d,  0 h,  0 min,  3.226 sec
 SCC setup                      ...        0 min,  0.007 sec (  0.205%)
 Dispersion                     ...        0 min,  0.005 sec (  0.160%)
 classical contributions        ...        0 min,  0.002 sec (  0.053%)
 integral evaluation            ...        0 min,  0.190 sec (  5.899%)
 iterations                     ...        0 min,  2.555 sec ( 79.203%)
 molecular gradient             ...        0 min,  0.452 sec ( 14.006%)
 printout                       ...        0 min,  0.015 sec (  0.473%)

         :::::::::::::::::::::::::::::::::::::::::::::::::::::
         ::                     SUMMARY                     ::
         :::::::::::::::::::::::::::::::::::::::::::::::::::::
         :: total energy            -212.377445151437 Eh    ::
         :: gradient norm              0.932722478963 Eh/a0 ::
         :: HOMO-LUMO gap              0.555131947373 eV    ::
         ::.................................................::
         :: SCC energy              -215.870710412250 Eh    ::
         :: -> electrostatic           0.158140585241 Eh    ::
         :: repulsion energy           3.599393615658 Eh    ::
         :: dispersion energy         -0.106128354845 Eh    ::
         :: halogen bond corr.         0.000000000000 Eh    ::
         :: add. restraining           0.000000000000 Eh    ::
         :: total charge               0.000000000053 e     ::
         :::::::::::::::::::::::::::::::::::::::::::::::::::::

      ----------------------------------------------------------- 
     |                   =====================                   |
     |                        A N C O P T                        |
     |                   =====================                   |
     |               Approximate Normal Coordinate               |
     |                Rational Function Optimizer                |
      ----------------------------------------------------------- 

          ...................................................
          :                      SETUP                      :
          :.................................................:
          :   optimization level            normal          :
          :   max. optcycles                   372          :
          :   ANC micro-cycles                  20          :
          :   degrees of freedom               366          :
          :.................................................:
          :   RF solver                   davidson          :
          :   write xtbopt.log                true          :
          :   linear?                        false          :
          :   energy convergence         0.5000000E-05 Eh   :
          :   grad. convergence          0.1000000E-02 Eh/α :
          :   maximium RF displ.         1.0000000          :
          :   Hlow (freq-cutoff)         0.1000000E-01      :
          :   Hmax (freq-cutoff)         5.0000000          :
          :   S6 in model hess.         20.0000000          :
          ...................................................

generating ANC from model Hessian ...
Using Lindh-Hessian (1995)
 Shifting diagonal of input Hessian by    1.0015947943287664E-002
 Lowest  eigenvalues of input Hessian
    0.010000    0.010002    0.010010    0.000000    0.000000    0.000000
    0.000000    0.000000    0.000000    0.010021    0.010029    0.010152
    0.010176    0.010253    0.010423    0.010542    0.010636    0.010692
 Highest eigenvalues
    2.100728    2.101030    2.175437    2.705991    3.049942    3.320170


........................................................................
.............................. CYCLE    1 ..............................
........................................................................
   1   -215.8707104 -0.215871E+03  0.998E-05    0.56       0.0  T
   2   -215.8707104 -0.136882E-08  0.770E-05    0.56     116.6  T
   3   -215.8707104  0.736406E-10  0.712E-05    0.56     126.1  T
     SCC iter.                  ...        0 min,  0.226 sec
     gradient                   ...        0 min,  0.497 sec
 * total energy  :  -212.3774452 Eh     change       -0.2225136E-08 Eh
   gradient norm :     0.9327234 Eh/α   predicted     0.0000000E+00 (-100.00%)
   displ. norm   :     0.4070373 α      lambda       -0.3168875E+00
   maximum displ.:     0.2261385 α      in ANC's #365, #366, #241, ...

........................................................................
.............................. CYCLE    2 ..............................
........................................................................
   1   -215.8632869 -0.215863E+03  0.150E-01    0.65       0.0  T
   2   -215.8658028 -0.251589E-02  0.744E-02    0.68       1.0  T
   3   -215.8668558 -0.105301E-02  0.439E-02    0.69       1.0  T
   4   -215.8671882 -0.332408E-03  0.199E-02    0.68       1.0  T
   5   -215.8671906 -0.238155E-05  0.180E-02    0.68       1.0  T
   6   -215.8672292 -0.386022E-04  0.661E-03    0.69       1.4  T
   7   -215.8672453 -0.161003E-04  0.158E-03    0.69       5.7  T
   8   -215.8672461 -0.806036E-06  0.502E-04    0.69      17.9  T
   9   -215.8672461 -0.344562E-07  0.219E-04    0.69      40.9  T
  10   -215.8672461 -0.906209E-08  0.979E-05    0.69      91.7  T
  11   -215.8672461 -0.299082E-08  0.300E-05    0.69     299.8  T
     SCC iter.                  ...        0 min,  0.680 sec
     gradient                   ...        0 min,  0.461 sec
 * total energy  :  -212.5848702 Eh     change       -0.2074250E+00 Eh
   gradient norm :     0.3516006 Eh/α   predicted    -0.1847053E+00 ( -10.95%)
   displ. norm   :     0.4522712 α      lambda       -0.1137749E+00
   maximum displ.:     0.1131945 α      in ANC's #365, #135, #122, ...

........................................................................
.............................. CYCLE    3 ..............................
........................................................................
   1   -215.9581795 -0.215958E+03  0.161E-01    0.79       0.0  T
   2   -215.9609242 -0.274475E-02  0.782E-02    0.79       1.0  T
   3   -215.9624115 -0.148725E-02  0.355E-02    0.82       1.0  T
   4   -215.9627947 -0.383247E-03  0.179E-02    0.81       1.0  T
   5   -215.9628442 -0.494114E-04  0.841E-03    0.81       1.1  T
   6   -215.9628575 -0.133212E-04  0.243E-03    0.81       3.7  T
   7   -215.9628587 -0.119459E-05  0.934E-04    0.81       9.6  T
   8   -215.9628589 -0.202678E-06  0.460E-04    0.81      19.5  T
   9   -215.9628589 -0.554343E-07  0.159E-04    0.81      56.4  T
  10   -215.9628589 -0.676732E-08  0.455E-05    0.81     197.4  T
     SCC iter.                  ...        0 min,  0.619 sec
     gradient                   ...        0 min,  0.460 sec
 * total energy  :  -212.6514870 Eh     change       -0.6661679E-01 Eh
   gradient norm :     0.1624738 Eh/α   predicted    -0.6852411E-01 (   2.86%)
   displ. norm   :     0.4839427 α      lambda       -0.3892913E-01
   maximum displ.:     0.1421620 α      in ANC's #104, #135, #128, ...

........................................................................
.............................. CYCLE    4 ..............................
........................................................................
   1   -215.9994681 -0.215999E+03  0.950E-02    0.84       0.0  T
   2   -216.0003323 -0.864209E-03  0.494E-02    0.83       1.0  T
   3   -216.0009170 -0.584689E-03  0.235E-02    0.85       1.0  T
   4   -216.0010708 -0.153753E-03  0.125E-02    0.85       1.0  T
   5   -216.0010947 -0.238956E-04  0.532E-03    0.85       1.7  T
   6   -216.0011003 -0.562634E-05  0.145E-03    0.85       6.2  T
   7   -216.0011007 -0.406751E-06  0.501E-04    0.85      17.9  T
   8   -216.0011007 -0.439692E-07  0.281E-04    0.85      32.0  T
   9   -216.0011008 -0.287107E-07  0.968E-05    0.85      92.8  T
  10   -216.0011008 -0.318428E-08  0.234E-05    0.85     384.5  T
     SCC iter.                  ...        0 min,  0.618 sec
     gradient                   ...        0 min,  0.456 sec
 * total energy  :  -212.6755231 Eh     change       -0.2403611E-01 Eh
   gradient norm :     0.0799997 Eh/α   predicted    -0.2402331E-01 (  -0.05%)
   displ. norm   :     0.5077638 α      lambda       -0.1583290E-01
   maximum displ.:     0.1296891 α      in ANC's #35, #67, #33, ...

........................................................................
.............................. CYCLE    5 ..............................
........................................................................
   1   -216.0256606 -0.216026E+03  0.500E-02    0.89       0.0  T
   2   -216.0258004 -0.139824E-03  0.298E-02    0.89       1.0  T
   3   -216.0260436 -0.243213E-03  0.140E-02    0.89       1.0  T
   4   -216.0261054 -0.617884E-04  0.804E-03    0.89       1.1  T
   5   -216.0261132 -0.778148E-05  0.286E-03    0.89       3.1  T
   6   -216.0261155 -0.225186E-05  0.790E-04    0.89      11.4  T
   7   -216.0261156 -0.994991E-07  0.364E-04    0.89      24.7  T
   8   -216.0261156 -0.354102E-07  0.167E-04    0.89      53.8  T
   9   -216.0261156 -0.904575E-08  0.408E-05    0.89     220.2  T
     SCC iter.                  ...        0 min,  0.553 sec
     gradient                   ...        0 min,  0.460 sec
 * total energy  :  -212.6857571 Eh     change       -0.1023396E-01 Eh
   gradient norm :     0.0396263 Eh/α   predicted    -0.9957551E-02 (  -2.70%)
   displ. norm   :     0.5113060 α      lambda       -0.7448394E-02
   maximum displ.:     0.1755061 α      in ANC's #35, #34, #33, ...

........................................................................
.............................. CYCLE    6 ..............................
........................................................................
   1   -216.0387152 -0.216039E+03  0.308E-02    0.93       0.0  T
   2   -216.0387829 -0.676856E-04  0.163E-02    0.92       1.0  T
   3   -216.0388459 -0.629538E-04  0.783E-03    0.92       1.1  T
   4   -216.0388570 -0.111085E-04  0.467E-03    0.92       1.9  T
   5   -216.0388588 -0.176992E-05  0.185E-03    0.92       4.9  T
   6   -216.0388603 -0.151393E-05  0.399E-04    0.92      22.5  T
   7   -216.0388603 -0.230538E-07  0.184E-04    0.92      48.8  T
   8   -216.0388603 -0.832279E-08  0.953E-05    0.92      94.2  T
     SCC iter.                  ...        0 min,  0.496 sec
     gradient                   ...        0 min,  0.461 sec
 * total energy  :  -212.6910702 Eh     change       -0.5313155E-02 Eh
   gradient norm :     0.0251825 Eh/α   predicted    -0.4697870E-02 ( -11.58%)
   displ. norm   :     0.5646196 α      lambda       -0.4872227E-02
   maximum displ.:     0.1906265 α      in ANC's #31, #34, #33, ...

........................................................................
.............................. CYCLE    7 ..............................
........................................................................
   1   -216.0433523 -0.216043E+03  0.259E-02    0.95       0.0  T
   2   -216.0434165 -0.641467E-04  0.133E-02    0.94       1.0  T
   3   -216.0434437 -0.271892E-04  0.536E-03    0.94       1.7  T
   4   -216.0434443 -0.587858E-06  0.322E-03    0.94       2.8  T
   5   -216.0434446 -0.278758E-06  0.157E-03    0.94       5.7  T
   6   -216.0434458 -0.129349E-05  0.382E-04    0.94      23.5  T
   7   -216.0434459 -0.507924E-07  0.870E-05    0.94     103.2  T
   8   -216.0434459 -0.126988E-09  0.412E-05    0.94     218.2  T
     SCC iter.                  ...        0 min,  0.495 sec
     gradient                   ...        0 min,  0.463 sec
 * total energy  :  -212.6928600 Eh     change       -0.1789836E-02 Eh
   gradient norm :     0.0280189 Eh/α   predicted    -0.3212738E-02 (  79.50%)
   displ. norm   :     0.5058273 α      lambda       -0.5281551E-02
   maximum displ.:     0.2409151 α      in ANC's #26, #35, #33, ...

........................................................................
.............................. CYCLE    8 ..............................
........................................................................
   1   -216.0541346 -0.216054E+03  0.206E-02    0.96       0.0  T
   2   -216.0541725 -0.378943E-04  0.105E-02    0.95       1.0  T
   3   -216.0541838 -0.113018E-04  0.495E-03    0.95       1.8  T
   4   -216.0541830  0.830187E-06  0.360E-03    0.95       2.5  T
   5   -216.0541856 -0.261865E-05  0.124E-03    0.95       7.2  T
   6   -216.0541863 -0.672764E-06  0.262E-04    0.95      34.3  T
   7   -216.0541863 -0.170833E-07  0.855E-05    0.95     105.0  T
   8   -216.0541863 -0.531315E-09  0.367E-05    0.95     244.5  T
     SCC iter.                  ...        0 min,  0.499 sec
     gradient                   ...        0 min,  0.459 sec
 * total energy  :  -212.6944031 Eh     change       -0.1543092E-02 Eh
   gradient norm :     0.0270186 Eh/α   predicted    -0.3316447E-02 ( 114.92%)
   displ. norm   :     0.2644473 α      lambda       -0.2378274E-02
   maximum displ.:     0.1067822 α      in ANC's #31, #16, #24, ...

........................................................................
.............................. CYCLE    9 ..............................
........................................................................
   1   -216.0640642 -0.216064E+03  0.984E-03    0.95       0.0  T
   2   -216.0640716 -0.733196E-05  0.561E-03    0.95       1.6  T
   3   -216.0640754 -0.379852E-05  0.255E-03    0.95       3.5  T
   4   -216.0640752  0.139398E-06  0.180E-03    0.95       5.0  T
   5   -216.0640759 -0.652222E-06  0.650E-04    0.95      13.8  T
   6   -216.0640760 -0.146244E-06  0.172E-04    0.95      52.4  T
   7   -216.0640760 -0.952355E-08  0.610E-05    0.95     147.2  T
     SCC iter.                  ...        0 min,  0.436 sec
     gradient                   ...        0 min,  0.459 sec
 * total energy  :  -212.6954134 Eh     change       -0.1010216E-02 Eh
   gradient norm :     0.0174474 Eh/α   predicted    -0.1272299E-02 (  25.94%)
   displ. norm   :     0.2358664 α      lambda       -0.1595822E-02
   maximum displ.:     0.0820725 α      in ANC's #11, #14, #21, ...

........................................................................
.............................. CYCLE   10 ..............................
........................................................................
   1   -216.0749801 -0.216075E+03  0.101E-02    0.95       0.0  T
   2   -216.0749865 -0.636626E-05  0.508E-03    0.95       1.8  T
   3   -216.0749899 -0.339510E-05  0.278E-03    0.95       3.2  T
   4   -216.0749905 -0.598202E-06  0.175E-03    0.95       5.1  T
   5   -216.0749912 -0.733612E-06  0.508E-04    0.95      17.7  T
   6   -216.0749913 -0.924271E-07  0.142E-04    0.95      63.2  T
   7   -216.0749913 -0.467247E-08  0.361E-05    0.95     249.0  T
     SCC iter.                  ...        0 min,  0.430 sec
     gradient                   ...        0 min,  0.469 sec
 * total energy  :  -212.6962534 Eh     change       -0.8400817E-03 Eh
   gradient norm :     0.0129253 Eh/α   predicted    -0.8423051E-03 (   0.26%)
   displ. norm   :     0.2872367 α      lambda       -0.7900785E-03
   maximum displ.:     0.1267804 α      in ANC's #11, #33, #31, ...

........................................................................
.............................. CYCLE   11 ..............................
........................................................................
   1   -216.0752797 -0.216075E+03  0.863E-03    0.95       0.0  T
   2   -216.0752869 -0.711946E-05  0.526E-03    0.95       1.7  T
   3   -216.0752894 -0.256462E-05  0.250E-03    0.95       3.6  T
   4   -216.0752888  0.656527E-06  0.187E-03    0.95       4.8  T
   5   -216.0752897 -0.915022E-06  0.552E-04    0.95      16.3  T
   6   -216.0752898 -0.135020E-06  0.140E-04    0.95      64.0  T
   7   -216.0752898 -0.418308E-08  0.512E-05    0.95     175.4  T
     SCC iter.                  ...        0 min,  0.427 sec
     gradient                   ...        0 min,  0.465 sec
 * total energy  :  -212.6968789 Eh     change       -0.6254259E-03 Eh
   gradient norm :     0.0101855 Eh/α   predicted    -0.4276341E-03 ( -31.63%)
   displ. norm   :     0.4631666 α      lambda       -0.9668652E-03
   maximum displ.:     0.2341472 α      in ANC's #11, #33, #23, ...

........................................................................
.............................. CYCLE   12 ..............................
........................................................................
   1   -216.0774726 -0.216077E+03  0.166E-02    0.97       0.0  T
   2   -216.0775006 -0.280505E-04  0.915E-03    0.97       1.0  T
   3   -216.0775070 -0.638597E-05  0.411E-03    0.97       2.2  T
   4   -216.0775056  0.143403E-05  0.266E-03    0.97       3.4  T
   5   -216.0775071 -0.146199E-05  0.884E-04    0.96      10.2  T
   6   -216.0775074 -0.392335E-06  0.259E-04    0.96      34.7  T
   7   -216.0775075 -0.247763E-07  0.736E-05    0.96     122.0  T
   8   -216.0775075  0.322586E-10  0.416E-05    0.96     215.9  T
     SCC iter.                  ...        0 min,  0.483 sec
     gradient                   ...        0 min,  0.468 sec
 * total energy  :  -212.6975674 Eh     change       -0.6885911E-03 Eh
   gradient norm :     0.0103123 Eh/α   predicted    -0.5871434E-03 ( -14.73%)
   displ. norm   :     0.3720927 α      lambda       -0.5166866E-03
   maximum displ.:     0.2104183 α      in ANC's #11, #23, #8, ...

........................................................................
.............................. CYCLE   13 ..............................
........................................................................
   1   -216.0785271 -0.216079E+03  0.158E-02    0.98       0.0  T
   2   -216.0785539 -0.268462E-04  0.809E-03    0.98       1.1  T
   3   -216.0785597 -0.575728E-05  0.322E-03    0.98       2.8  T
   4   -216.0785588  0.826131E-06  0.224E-03    0.98       4.0  T
   5   -216.0785597 -0.823557E-06  0.824E-04    0.98      10.9  T
   6   -216.0785600 -0.334190E-06  0.237E-04    0.98      37.9  T
   7   -216.0785600 -0.215394E-07  0.566E-05    0.98     158.7  T
   8   -216.0785600  0.485727E-10  0.364E-05    0.98     246.6  T
     SCC iter.                  ...        0 min,  0.486 sec
     gradient                   ...        0 min,  0.463 sec
 * total energy  :  -212.6979422 Eh     change       -0.3747551E-03 Eh
   gradient norm :     0.0076838 Eh/α   predicted    -0.2941142E-03 ( -21.52%)
   displ. norm   :     0.3540002 α      lambda       -0.4170340E-03
   maximum displ.:     0.2014046 α      in ANC's #11, #23, #8, ...

........................................................................
.............................. CYCLE   14 ..............................
........................................................................
   1   -216.0790152 -0.216079E+03  0.156E-02    0.99       0.0  T
   2   -216.0790413 -0.261474E-04  0.773E-03    0.99       1.2  T
   3   -216.0790472 -0.587109E-05  0.291E-03    0.99       3.1  T
   4   -216.0790464  0.779018E-06  0.222E-03    0.99       4.1  T
   5   -216.0790474 -0.103696E-05  0.771E-04    0.99      11.6  T
   6   -216.0790477 -0.272650E-06  0.215E-04    0.99      41.7  T
   7   -216.0790477 -0.159025E-07  0.536E-05    0.99     167.7  T
   8   -216.0790477 -0.133213E-09  0.339E-05    0.99     264.9  T
     SCC iter.                  ...        0 min,  0.493 sec
     gradient                   ...        0 min,  0.464 sec
 * total energy  :  -212.6981831 Eh     change       -0.2408687E-03 Eh
   gradient norm :     0.0053115 Eh/α   predicted    -0.2346488E-03 (  -2.58%)
   displ. norm   :     0.2776645 α      lambda       -0.3102726E-03
   maximum displ.:     0.1531646 α      in ANC's #11, #8, #23, ...

........................................................................
.............................. CYCLE   15 ..............................
........................................................................
   1   -216.0798360 -0.216080E+03  0.109E-02    1.00       0.0  T
   2   -216.0798482 -0.121645E-04  0.536E-03    1.00       1.7  T
   3   -216.0798514 -0.323554E-05  0.195E-03    1.00       4.6  T
   4   -216.0798512  0.251524E-06  0.165E-03    1.00       5.5  T
   5   -216.0798519 -0.665603E-06  0.467E-04    1.00      19.2  T
   6   -216.0798519 -0.828578E-07  0.141E-04    1.00      63.8  T
   7   -216.0798519 -0.614517E-08  0.323E-05    1.00     277.6  T
     SCC iter.                  ...        0 min,  0.426 sec
     gradient                   ...        0 min,  0.463 sec
 * total energy  :  -212.6983406 Eh     change       -0.1575508E-03 Eh
   gradient norm :     0.0060935 Eh/α   predicted    -0.1671010E-03 (   6.06%)
   displ. norm   :     0.1215043 α      lambda       -0.1101002E-03
   maximum displ.:     0.0541967 α      in ANC's #11, #9, #23, ...

........................................................................
.............................. CYCLE   16 ..............................
........................................................................
   1   -216.0788933 -0.216079E+03  0.189E-03    1.00       0.0  T
   2   -216.0788935 -0.283048E-06  0.997E-04    1.00       9.0  T
   3   -216.0788936 -0.637681E-07  0.462E-04    1.00      19.5  T
   4   -216.0788936  0.511537E-07  0.411E-04    1.00      21.9  T
   5   -216.0788936 -0.657074E-07  0.744E-05    1.00     120.7  T
   6   -216.0788936 -0.870074E-09  0.267E-05    1.00     336.4  T
     SCC iter.                  ...        0 min,  0.366 sec
     gradient                   ...        0 min,  0.464 sec
 * total energy  :  -212.6984332 Eh     change       -0.9253721E-04 Eh
   gradient norm :     0.0045337 Eh/α   predicted    -0.5586579E-04 ( -39.63%)
   displ. norm   :     0.2868171 α      lambda       -0.2341570E-03
   maximum displ.:     0.1277274 α      in ANC's #9, #11, #23, ...

........................................................................
.............................. CYCLE   17 ..............................
........................................................................
   1   -216.0773877 -0.216077E+03  0.271E-03    0.99       0.0  T
   2   -216.0773882 -0.508402E-06  0.184E-03    1.00       4.9  T
   3   -216.0773888 -0.544395E-06  0.932E-04    1.00       9.6  T
   4   -216.0773888 -0.277532E-07  0.718E-04    1.00      12.5  T
   5   -216.0773889 -0.123562E-06  0.161E-04    1.00      55.8  T
   6   -216.0773889 -0.454929E-08  0.604E-05    1.00     148.6  T
     SCC iter.                  ...        0 min,  0.367 sec
     gradient                   ...        0 min,  0.462 sec
 * total energy  :  -212.6985891 Eh     change       -0.1559446E-03 Eh
   gradient norm :     0.0052723 Eh/α   predicted    -0.1267111E-03 ( -18.75%)
   displ. norm   :     0.2796096 α      lambda       -0.1402163E-03
   maximum displ.:     0.1244595 α      in ANC's #9, #11, #23, ...

........................................................................
.............................. CYCLE   18 ..............................
........................................................................
   1   -216.0741938 -0.216074E+03  0.401E-03    1.00       0.0  T
   2   -216.0741943 -0.491072E-06  0.233E-03    1.00       3.9  T
   3   -216.0741943  0.359156E-07  0.129E-03    1.00       7.0  T
   4   -216.0741942  0.849719E-07  0.875E-04    1.00      10.3  T
   5   -216.0741946 -0.350070E-06  0.167E-04    1.00      53.6  T
   6   -216.0741946 -0.418399E-08  0.683E-05    1.00     131.5  T
     SCC iter.                  ...        0 min,  0.369 sec
     gradient                   ...        0 min,  0.461 sec
 * total energy  :  -212.6986779 Eh     change       -0.8882999E-04 Eh
   gradient norm :     0.0057423 Eh/α   predicted    -0.7559476E-04 ( -14.90%)
   displ. norm   :     0.2907583 α      lambda       -0.1339178E-03
   maximum displ.:     0.1286850 α      in ANC's #9, #11, #23, ...

........................................................................
.............................. CYCLE   19 ..............................
........................................................................
   1   -216.0742471 -0.216074E+03  0.189E-03    1.00       0.0  T
   2   -216.0742472 -0.106822E-06  0.106E-03    1.00       8.5  T
   3   -216.0742473 -0.936582E-07  0.665E-04    1.00      13.5  T
   4   -216.0742474 -0.104480E-06  0.397E-04    1.00      22.6  T
   5   -216.0742474 -0.360333E-07  0.915E-05    1.00      98.2  T
   6   -216.0742474 -0.179131E-08  0.356E-05    1.00     252.2  T
     SCC iter.                  ...        0 min,  0.369 sec
     gradient                   ...        0 min,  0.460 sec
 * total energy  :  -212.6987774 Eh     change       -0.9941460E-04 Eh
   gradient norm :     0.0055195 Eh/α   predicted    -0.7262384E-04 ( -26.95%)
   displ. norm   :     0.3185306 α      lambda       -0.1492815E-03
   maximum displ.:     0.1450979 α      in ANC's #9, #11, #23, ...

........................................................................
.............................. CYCLE   20 ..............................
........................................................................
   1   -216.0765743 -0.216077E+03  0.200E-03    1.00       0.0  T
   2   -216.0765746 -0.276750E-06  0.103E-03    1.00       8.7  T
   3   -216.0765747 -0.823605E-07  0.554E-04    1.00      16.2  T
   4   -216.0765747  0.465715E-08  0.357E-04    1.00      25.2  T
   5   -216.0765747 -0.241812E-07  0.162E-04    1.00      55.3  T
   6   -216.0765747 -0.104635E-07  0.385E-05    1.00     233.4  T
     SCC iter.                  ...        0 min,  0.370 sec
     gradient                   ...        0 min,  0.467 sec
 * total energy  :  -212.6988855 Eh     change       -0.1081591E-03 Eh
   gradient norm :     0.0039545 Eh/α   predicted    -0.8221582E-04 ( -23.99%)
   displ. norm   :     0.2619101 α      lambda       -0.1003055E-03
   maximum displ.:     0.1234037 α      in ANC's #9, #11, #18, ...
 * RMSD in coord.:     0.4033733 α      energy gain  -0.3214404E+00 Eh

generating ANC from model Hessian ...
Using Lindh-Hessian (1995)
 Shifting diagonal of input Hessian by    1.0021579398249237E-002
 Lowest  eigenvalues of input Hessian
    0.010000    0.010005    0.010014    0.010017    0.000000    0.000000
    0.000000    0.000000    0.000000    0.000000    0.010025    0.010155
    0.010187    0.010231    0.010377    0.010469    0.010602    0.010708
 Highest eigenvalues
    2.145530    2.145570    2.150947    2.494555    2.813348    3.035467


........................................................................
.............................. CYCLE   21 ..............................
........................................................................
   1   -216.0789236 -0.216079E+03  0.176E-03    1.00       0.0  T
   2   -216.0789238 -0.238096E-06  0.950E-04    1.00       9.5  T
   3   -216.0789239 -0.925166E-07  0.531E-04    1.00      16.9  T
   4   -216.0789239 -0.756143E-08  0.405E-04    1.00      22.2  T
   5   -216.0789240 -0.479807E-07  0.883E-05    1.00     101.7  T
   6   -216.0789240 -0.109631E-08  0.342E-05    1.00     262.9  T
     SCC iter.                  ...        0 min,  0.372 sec
     gradient                   ...        0 min,  0.465 sec
 * total energy  :  -212.6989552 Eh     change       -0.6965200E-04 Eh
   gradient norm :     0.0041633 Eh/α   predicted     0.0000000E+00 (-100.00%)
   displ. norm   :     0.0453725 α      lambda       -0.4143737E-04
   maximum displ.:     0.0215874 α      in ANC's #27, #34, #17, ...

........................................................................
.............................. CYCLE   22 ..............................
........................................................................
   1   -216.0785296 -0.216079E+03  0.129E-03    1.00       0.0  T
   2   -216.0785297 -0.104395E-06  0.699E-04    1.00      12.8  T
   3   -216.0785298 -0.574512E-07  0.356E-04    1.00      25.2  T
   4   -216.0785298 -0.131390E-07  0.273E-04    1.00      32.9  T
   5   -216.0785298 -0.213169E-07  0.720E-05    1.00     124.8  T
   6   -216.0785298 -0.602256E-09  0.223E-05    1.00     402.8  T
     SCC iter.                  ...        0 min,  0.373 sec
     gradient                   ...        0 min,  0.465 sec
 * total energy  :  -212.6989837 Eh     change       -0.2857956E-04 Eh
   gradient norm :     0.0022176 Eh/α   predicted    -0.2499276E-04 ( -12.55%)
   displ. norm   :     0.1379500 α      lambda       -0.1241170E-03
   maximum displ.:     0.0672585 α      in ANC's #27, #21, #34, ...

........................................................................
.............................. CYCLE   23 ..............................
........................................................................
   1   -216.0770079 -0.216077E+03  0.386E-03    0.99       0.0  T
   2   -216.0770089 -0.101259E-05  0.212E-03    1.00       4.2  T
   3   -216.0770095 -0.603598E-06  0.102E-03    0.99       8.8  T
   4   -216.0770096 -0.131013E-06  0.801E-04    0.99      11.2  T
   5   -216.0770098 -0.174449E-06  0.217E-04    0.99      41.3  T
   6   -216.0770098 -0.440346E-08  0.728E-05    0.99     123.4  T
   7   -216.0770098 -0.130589E-08  0.288E-05    0.99     311.6  T
     SCC iter.                  ...        0 min,  0.429 sec
     gradient                   ...        0 min,  0.464 sec
 * total energy  :  -212.6989789 Eh     change        0.4801357E-05 Eh
   gradient norm :     0.0063263 Eh/α   predicted    -0.6324559E-04 (*******%)
   displ. norm   :     0.0380178 α      lambda       -0.9995083E-04
   maximum displ.:     0.0164349 α      in ANC's #21, #80, #27, ...

........................................................................
.............................. CYCLE   24 ..............................
........................................................................
   1   -216.0773825 -0.216077E+03  0.150E-03    1.00       0.0  T
   2   -216.0773826 -0.860327E-07  0.881E-04    1.00      10.2  T
   3   -216.0773827 -0.617213E-07  0.468E-04    1.00      19.2  T
   4   -216.0773827 -0.193834E-07  0.356E-04    1.00      25.3  T
   5   -216.0773828 -0.404442E-07  0.868E-05    1.00     103.4  T
   6   -216.0773828 -0.933937E-09  0.294E-05    1.00     305.7  T
     SCC iter.                  ...        0 min,  0.370 sec
     gradient                   ...        0 min,  0.462 sec
 * total energy  :  -212.6990326 Eh     change       -0.5366197E-04 Eh
   gradient norm :     0.0024183 Eh/α   predicted    -0.5004877E-04 (  -6.73%)
   displ. norm   :     0.0259723 α      lambda       -0.1637352E-04
   maximum displ.:     0.0094207 α      in ANC's #10, #19, #12, ...

........................................................................
.............................. CYCLE   25 ..............................
........................................................................
   1   -216.0773819 -0.216077E+03  0.797E-04    1.00       0.0  T
   2   -216.0773820 -0.181546E-07  0.517E-04    1.00      17.4  T
   3   -216.0773820 -0.120620E-07  0.285E-04    1.00      31.5  T
   4   -216.0773820 -0.270697E-08  0.203E-04    1.00      44.2  T
   5   -216.0773820 -0.152050E-07  0.424E-05    1.00     211.8  T
   6   -216.0773820 -0.258552E-09  0.164E-05    1.00     546.8  T
     SCC iter.                  ...        0 min,  0.370 sec
     gradient                   ...        0 min,  0.466 sec
 * total energy  :  -212.6990428 Eh     change       -0.1022882E-04 Eh
   gradient norm :     0.0008480 Eh/α   predicted    -0.8195412E-05 ( -19.88%)
   displ. norm   :     0.1034711 α      lambda       -0.2040856E-04
   maximum displ.:     0.0397907 α      in ANC's #10, #12, #19, ...

........................................................................
.............................. CYCLE   26 ..............................
........................................................................
   1   -216.0769967 -0.216077E+03  0.171E-03    1.00       0.0  T
   2   -216.0769968 -0.174326E-06  0.110E-03    1.00       8.2  T
   3   -216.0769969 -0.667419E-07  0.584E-04    1.00      15.4  T
   4   -216.0769968  0.577788E-07  0.492E-04    1.00      18.3  T
   5   -216.0769969 -0.933991E-07  0.679E-05    1.00     132.3  T
   6   -216.0769969 -0.937433E-09  0.323E-05    1.00     278.1  T
     SCC iter.                  ...        0 min,  0.370 sec
     gradient                   ...        0 min,  0.465 sec
 * total energy  :  -212.6990515 Eh     change       -0.8705470E-05 Eh
   gradient norm :     0.0025376 Eh/α   predicted    -0.1025832E-04 (  17.84%)
   displ. norm   :     0.0657896 α      lambda       -0.2227166E-04
   maximum displ.:     0.0250318 α      in ANC's #10, #12, #19, ...

........................................................................
.............................. CYCLE   27 ..............................
........................................................................
   1   -216.0768001 -0.216077E+03  0.995E-04    1.00       0.0  T
   2   -216.0768002 -0.995697E-07  0.503E-04    1.00      17.8  T
   3   -216.0768002 -0.227220E-07  0.225E-04    1.00      39.8  T
   4   -216.0768002  0.571015E-08  0.173E-04    1.00      51.8  T
   5   -216.0768002 -0.911200E-08  0.532E-05    1.00     168.9  T
     SCC iter.                  ...        0 min,  0.307 sec
     gradient                   ...        0 min,  0.463 sec
 * total energy  :  -212.6990639 Eh     change       -0.1234148E-04 Eh
   gradient norm :     0.0018844 Eh/α   predicted    -0.1118436E-04 (  -9.38%)
   displ. norm   :     0.0451497 α      lambda       -0.1045452E-04
   maximum displ.:     0.0186900 α      in ANC's #12, #10, #19, ...

........................................................................
.............................. CYCLE   28 ..............................
........................................................................
   1   -216.0773885 -0.216077E+03  0.102E-03    1.00       0.0  T
   2   -216.0773886 -0.494727E-07  0.509E-04    1.00      17.6  T
   3   -216.0773886 -0.959815E-08  0.286E-04    1.00      31.4  T
   4   -216.0773886  0.241317E-08  0.163E-04    1.00      55.0  T
   5   -216.0773886 -0.679321E-08  0.592E-05    1.00     151.6  T
     SCC iter.                  ...        0 min,  0.310 sec
     gradient                   ...        0 min,  0.462 sec
 * total energy  :  -212.6990749 Eh     change       -0.1102572E-04 Eh
   gradient norm :     0.0006175 Eh/α   predicted    -0.5233068E-05 ( -52.54%)
   displ. norm   :     0.0995392 α      lambda       -0.1205494E-04
   maximum displ.:     0.0417219 α      in ANC's #12, #19, #10, ...

........................................................................
.............................. CYCLE   29 ..............................
........................................................................
   1   -216.0778058 -0.216078E+03  0.105E-03    1.00       0.0  T
   2   -216.0778058 -0.630591E-07  0.486E-04    1.00      18.5  T
   3   -216.0778058 -0.107966E-07  0.287E-04    1.00      31.3  T
   4   -216.0778058  0.417339E-08  0.192E-04    1.00      46.7  T
   5   -216.0778058 -0.137586E-07  0.541E-05    1.00     166.1  T
     SCC iter.                  ...        0 min,  0.311 sec
     gradient                   ...        0 min,  0.471 sec
 * total energy  :  -212.6990879 Eh     change       -0.1297268E-04 Eh
   gradient norm :     0.0013179 Eh/α   predicted    -0.6055049E-05 ( -53.32%)
   displ. norm   :     0.1609290 α      lambda       -0.1305296E-04
   maximum displ.:     0.0715763 α      in ANC's #19, #12, #10, ...

........................................................................
.............................. CYCLE   30 ..............................
........................................................................
   1   -216.0774535 -0.216077E+03  0.145E-03    1.00       0.0  T
   2   -216.0774537 -0.146860E-06  0.758E-04    1.00      11.9  T
   3   -216.0774537 -0.614006E-07  0.361E-04    1.00      24.9  T
   4   -216.0774537  0.263486E-08  0.295E-04    1.00      30.5  T
   5   -216.0774537 -0.282376E-07  0.523E-05    1.00     171.8  T
   6   -216.0774537 -0.489592E-09  0.181E-05    1.00     495.0  T
     SCC iter.                  ...        0 min,  0.368 sec
     gradient                   ...        0 min,  0.465 sec
 * total energy  :  -212.6990992 Eh     change       -0.1134203E-04 Eh
   gradient norm :     0.0016200 Eh/α   predicted    -0.6606408E-05 ( -41.75%)
   displ. norm   :     0.1341580 α      lambda       -0.9912841E-05
   maximum displ.:     0.0590462 α      in ANC's #19, #12, #5, ...

........................................................................
.............................. CYCLE   31 ..............................
........................................................................
   1   -216.0769621 -0.216077E+03  0.166E-03    1.00       0.0  T
   2   -216.0769624 -0.243611E-06  0.817E-04    1.00      11.0  T
   3   -216.0769625 -0.756858E-07  0.307E-04    1.00      29.3  T
   4   -216.0769625  0.109495E-07  0.277E-04    1.00      32.4  T
   5   -216.0769625 -0.249945E-07  0.641E-05    1.00     140.1  T
   6   -216.0769625 -0.827413E-09  0.168E-05    1.00     535.3  T
     SCC iter.                  ...        0 min,  0.373 sec
     gradient                   ...        0 min,  0.464 sec
 * total energy  :  -212.6991076 Eh     change       -0.8405323E-05 Eh
   gradient norm :     0.0010998 Eh/α   predicted    -0.4998921E-05 ( -40.53%)
   displ. norm   :     0.0666196 α      lambda       -0.5616607E-05
   maximum displ.:     0.0311375 α      in ANC's #19, #5, #12, ...

........................................................................
.............................. CYCLE   32 ..............................
........................................................................
   1   -216.0768527 -0.216077E+03  0.157E-03    1.00       0.0  T
   2   -216.0768529 -0.251448E-06  0.715E-04    1.00      12.6  T
   3   -216.0768530 -0.527304E-07  0.224E-04    1.00      40.0  T
   4   -216.0768530  0.137888E-08  0.141E-04    1.00      63.8  T
   5   -216.0768530 -0.193023E-08  0.510E-05    1.00     176.2  T
     SCC iter.                  ...        0 min,  0.310 sec
     gradient                   ...        0 min,  0.467 sec
 * total energy  :  -212.6991132 Eh     change       -0.5568438E-05 Eh
   gradient norm :     0.0006259 Eh/α   predicted    -0.2817300E-05 ( -49.41%)
   displ. norm   :     0.0774630 α      lambda       -0.5898005E-05
   maximum displ.:     0.0378262 α      in ANC's #5, #19, #12, ...

........................................................................
.............................. CYCLE   33 ..............................
........................................................................
   1   -216.0764645 -0.216076E+03  0.212E-03    1.00       0.0  T
   2   -216.0764650 -0.470115E-06  0.103E-03    1.00       8.7  T
   3   -216.0764651 -0.103205E-06  0.364E-04    1.00      24.7  T
   4   -216.0764651  0.770768E-08  0.244E-04    1.00      36.8  T
   5   -216.0764651 -0.786576E-08  0.956E-05    1.00      94.0  T
   6   -216.0764651 -0.448239E-08  0.281E-05    1.00     319.2  T
     SCC iter.                  ...        0 min,  0.367 sec
     gradient                   ...        0 min,  0.467 sec
 * total energy  :  -212.6991180 Eh     change       -0.4829519E-05 Eh
   gradient norm :     0.0009634 Eh/α   predicted    -0.2961116E-05 ( -38.69%)
   displ. norm   :     0.0442416 α      lambda       -0.2535958E-05
   maximum displ.:     0.0236059 α      in ANC's #5, #19, #12, ...

   *** GEOMETRY OPTIMIZATION CONVERGED AFTER 33 ITERATIONS ***

------------------------------------------------------------------------
 total energy gain   :        -0.3216729 Eh     -201.8528 kcal/mol
 total RMSD          :         0.4435574 a0        0.2347 Å
 total power (kW/mol):       -25.5924850 (step)  -22.8945 (real)
------------------------------------------------------------------------

 ANCopt (total)                0 d,  0 h,  0 min, 36.889 sec
 optimizer setup                ...        0 min,  0.000 sec (  0.001%)
 model hessian                  ...        0 min,  0.154 sec (  0.419%)
 ANC generation                 ...        0 min,  0.071 sec (  0.192%)
 coordinate transformation      ...        0 min,  0.007 sec (  0.018%)
 single point calculation       ...        0 min, 36.599 sec ( 99.215%)
 optimization log               ...        0 min,  0.025 sec (  0.067%)
 hessian update                 ...        0 min,  0.006 sec (  0.016%)
 rational function              ...        0 min,  0.022 sec (  0.059%)

================
 final structure:
================
124
 xtb: 6.5.1 (b24c23e)
Ni          11.37150673418179       -0.01905512933757       -0.01451753085580
C            7.98228562084914       -0.05216482988503       -0.14770597349227
C            8.63866772382743       -1.26092203714715       -0.04107306753124
C            7.96782116894885       -2.52119050942409        0.05049592465848
C            8.92933712223351       -3.47436549098426        0.03847416126931
C           10.18674488603971       -2.79543874834866       -0.07386262676570
N            9.99962557340901       -1.43534871930356       -0.08047583999559
C           11.40803250523308       -3.44188295361183       -0.21561502626088
C           11.42996005303781       -4.92116026288120       -0.31246737202864
C           10.82230304006825       -5.56907625102202       -1.31737874658550
C           10.82115940862702       -7.07156581318217       -1.42789214663292
N           11.84422453519839       -7.66734113957574       -0.56470227152831
C           12.29302442841366       -7.00474729635453        0.54781941417731
C           12.15006622912077       -5.67658314651988        0.70258026793437
C           12.61348251929989       -2.75523501998187       -0.27464779347411
C           13.88045427802398       -3.39075656288695       -0.47111841171863
C           14.82305530314564       -2.42147686644774       -0.38496208551080
N           12.77733842153168       -1.39789912863732       -0.10917717816592
C           14.12972322225938       -1.19666315970977       -0.14336677267971
C           14.78117245373606        0.01557143864662        0.10398303301307
C           14.08991897100930        1.21299232643643        0.31077081308039
C           14.73941120579113        2.44987863506774        0.60690020216584
C           13.77305640006978        3.39926453029757        0.63367433656204
C           12.53627892066821        2.73972322277680        0.34421224632513
N           12.73907410726778        1.38690087158899        0.18443526994657
C           11.32523274121869        3.40312335030372        0.19617684061478
C           11.30897874988599        4.88222464529838        0.29635298827092
C           10.60811522110886        5.51470931918910        1.24908194367231
C           10.56359267737444        7.01667819969991        1.35831720479838
N           11.64077526270245        7.63659897133692        0.58221191383344
C           12.19239065637926        6.98634263530128       -0.49066357255674
C           12.09154097409972        5.65568669777360       -0.65702767218708
C           10.13166562313230        2.73341326826921       -0.04235591240168
C            8.87392550283515        3.38821785112617       -0.25304064127272
C            7.93536666626044        2.41670877018272       -0.34372109906129
C            8.62124896720196        1.16930386587423       -0.20126546801394
N            9.97111748076028        1.37006488904161       -0.05342665109645
H            6.89935230948342       -0.06273604879948       -0.19118902148582
H            6.89795203303792       -2.64084986382105        0.11581105257702
H            8.81149085527773       -4.54386998955470        0.10203445702982
H           10.28605801637431       -5.03978732485061       -2.09637021611364
H           11.03139736021809       -7.37486495615689       -2.46241613537498
H            9.82388920517644       -7.47255893751879       -1.16676135834797
H           11.78312514586163       -8.67224115918136       -0.49206235156911
H           12.84478013522541       -7.62005908901451        1.25129107455471
H           12.55531494610740       -5.16189222117007        1.56203900217549
H           14.01969080332799       -4.44423240285988       -0.65082305231909
H           15.89373714596386       -2.51262602525696       -0.47226394284679
H           15.79958843241836        2.56088371263242        0.76875468108560
H           13.87741238898276        4.45403297915067        0.82942745783143
H           10.02249472427842        4.97234752467933        1.98216523595559
H           10.68046233256280        7.32357796211941        2.40651755688312
H            9.58230829289114        7.39510726049430        1.01516300249991
H           11.56388586592736        8.64026269237803        0.50542485463688
H           12.78550768864363        7.61503883846621       -1.14710178285610
H           12.57576253637507        5.15219067854501       -1.48161690327404
H            8.73989408069696        4.45535751264161       -0.32405460273259
H            6.87189980718990        2.51574397367659       -0.49360712416134
Ni          29.93203853080604        0.01836472110383       -0.01048746026273
C           33.32117642538162        0.08071446226582       -0.13401133102658
C           32.66434969922977        1.23807687525718        0.22987060315991
C           33.33472560325786        2.44947815303056        0.59013485755569
C           32.37282796467847        3.38255085967237        0.78334621490115
C           31.11567509089016        2.74311350728699        0.52772157556474
N           31.30331862120139        1.41630524565463        0.22902970988557
C           29.89416714051055        3.40455293065743        0.52793949035036
C           29.87189741764390        4.87016855745100        0.75067283447925
C           30.47940329503047        5.71856870979020       -0.09197199950980
C           30.48067875087967        7.20976803435622        0.12243467998261
N           29.45769608034627        7.60653734420174        1.09339918883485
C           29.00881213625840        6.72070763183809        2.03783650571939
C           29.15176178081766        5.39025119397777        1.90410907617902
C           28.68897171701605        2.74619553529751        0.32279433732472
C           27.42173073203094        3.40854251095173        0.26726410471797
C           26.47953516539222        2.44292040480280        0.14354667923850
N           28.52567338668668        1.38487590074501        0.19323077289812
C           27.17343115535983        1.19507510122013        0.11678183705467
C           26.52237776367495       -0.04223438913328        0.09828731506491
C           27.21408430934245       -1.25585770686182        0.04307426303678
C           26.56507205733989       -2.52766983644527        0.06665798241517
C           27.53180055402823       -3.46026014300401       -0.11121544137239
C           28.76832025042511       -2.75347206181033       -0.25239055062244
N           28.56500590855606       -1.39797211276354       -0.11778546053797
C           29.97958033907391       -3.36922671019253       -0.53946041700665
C           29.99610154027415       -4.83533136448751       -0.75927016552860
C           30.69718681493957       -5.65764156891993        0.03522655154259
C           30.74132730476115       -7.14809541289545       -0.18034241585190
N           29.66397130197783       -7.58686507109860       -1.07126803990912
C           29.11223677644013       -6.72141990217658       -1.97942441369400
C           29.21325374701862       -5.38608303967198       -1.85628376196658
C           31.17295016531142       -2.66355369811244       -0.62860051574216
C           32.43093940003047       -3.25736575749919       -0.97487790010338
C           33.36906930767351       -2.28858060868017       -0.85513403033797
C           32.68268338466032       -1.10107031985368       -0.44839271067655
N           31.33292510108834       -1.32949550284098       -0.34693906521948
H           34.40409111423602        0.10088922066186       -0.17443237376897
H           34.40454877620245        2.55275675224726        0.67962053098128
H           32.49017698838715        4.41343261014882        1.07536591604130
H           31.01558082599908        5.36864817695254       -0.96637667101990
H           30.27049177338416        7.72802649456677       -0.82289513699333
H           31.47799221422326        7.54525992446318        0.46351873433118
H           29.51890295128090        8.57243426323677        1.37998350329785
H           28.45703706483287        7.17084540418281        2.85688636119749
H           28.74643322438492        4.70319575808542        2.63312507049344
H           27.28202039864344        4.47598701478580        0.31771593611043
H           25.40881919928993        2.55025685391363        0.07787380749831
H           25.50497317278576       -2.67123059860739        0.20104271791909
H           27.42784813660692       -4.53249257255086       -0.14655945034897
H           31.28308828253878       -5.28540257074997        0.86750556929068
H           30.62436926324731       -7.67263719612195        0.77765177656042
H           31.72249695199543       -7.44440005892280       -0.59672748950352
H           29.74059334028957       -8.55065876052432       -1.36161209977224
H           28.51887342700298       -7.19446052359775       -2.75537879809973
H           28.72892365717810       -4.71729625187394       -2.55346938054600
H           32.56544546622287       -4.28439236572438       -1.27307601526107
H           34.43257025283030       -2.35264892457705       -1.02278426928302
C           16.18495455169800        0.02677770466688        0.14393547275136
C           17.40908273706738        0.01975071413823        0.16669465077950
C           18.75227452174845        0.00849471021635        0.18310349764066
C           19.98257133926706       -0.01131067156502        0.18819956208447
C           21.32088486032772       -0.03054465194249        0.18613641301502
C           22.55120393086538       -0.04995120009827        0.17648084178826
C           23.89432179704912       -0.05722284061934        0.15855573441566
C           25.11844359940266       -0.06188442749925        0.13483310316437

 Bond Distances (Angstroems)
 ---------------------------
Ni1-N7=1.9729        Ni1-N18=1.9714       Ni1-N25=1.9714       Ni1-N37=1.9729       C2-C3=1.3796         C2-C36=1.3795        
C2-H38=1.0839        C3-C2=1.3796         C3-C4=1.4306         C3-N7=1.3727         C4-C3=1.4306         C4-C5=1.3540         
C4-H39=1.0785        C5-C4=1.3540         C5-C6=1.4334         C5-H40=1.0779        C6-C5=1.4334         C6-N7=1.3729         
C6-C8=1.3891         N7-Ni1=1.9729        N7-C3=1.3727         N7-C6=1.3729         C8-C6=1.3891         C8-C9=1.4826         
C8-C15=1.3886        C9-C8=1.4826         C9-C10=1.3412        C9-C14=1.4559        C10-C9=1.3412        C10-C11=1.5065       
C10-H41=1.0838       C11-C10=1.5065       C11-N12=1.4652       C11-H42=1.0984       C11-H43=1.1061       N12-C11=1.4652       
N12-C13=1.3705       N12-H44=1.0094       C13-N12=1.3705       C13-C14=1.3448       C13-H45=1.0853       C14-C9=1.4559        
C14-C13=1.3448       C14-H46=1.0806       C15-C8=1.3886        C15-C16=1.4310       C15-N18=1.3772       C16-C15=1.4310       
C16-C17=1.3548       C16-H47=1.0777       C17-C16=1.3548       C17-C19=1.4280       C17-H48=1.0781       N18-Ni1=1.9714       
N18-C15=1.3772       N18-C19=1.3677       C19-C17=1.4280       C19-N18=1.3677       C19-C20=1.3982       C20-C19=1.3982       
C20-C21=1.3980       C20-C117=1.4044      C21-C20=1.3980       C21-C22=1.4281       C21-N25=1.3678       C22-C21=1.4281       
C22-C23=1.3550       C22-H49=1.0782       C23-C22=1.3550       C23-C24=1.4312       C23-H50=1.0778       C24-C23=1.4312       
C24-N25=1.3772       C24-C26=1.3888       N25-Ni1=1.9714       N25-C21=1.3678       N25-C24=1.3772       C26-C24=1.3888       
C26-C27=1.4826       C26-C33=1.3892       C27-C26=1.4826       C27-C28=1.3412       C27-C32=1.4559       C28-C27=1.3412       
C28-C29=1.5066       C28-H51=1.0838       C29-C28=1.5066       C29-N30=1.4653       C29-H52=1.0984       C29-H53=1.1063       
N30-C29=1.4653       N30-C31=1.3705       N30-H54=1.0095       C31-N30=1.3705       C31-C32=1.3448       C31-H55=1.0853       
C32-C27=1.4559       C32-C31=1.3448       C32-H56=1.0807       C33-C26=1.3892       C33-C34=1.4336       C33-N37=1.3728       
C34-C33=1.4336       C34-C35=1.3539       C34-H57=1.0779       C35-C34=1.3539       C35-C36=1.4306       C35-H58=1.0785       
C36-C2=1.3795        C36-C35=1.4306       C36-N37=1.3727       N37-Ni1=1.9729       N37-C33=1.3728       N37-C36=1.3727       
H38-C2=1.0839        H39-C4=1.0785        H40-C5=1.0779        H41-C10=1.0838       H42-C11=1.0984       H43-C11=1.1061       
H44-N12=1.0094       H45-C13=1.0853       H46-C14=1.0806       H47-C16=1.0777       H48-C17=1.0781       H49-C22=1.0782       
H50-C23=1.0778       H51-C28=1.0838       H52-C29=1.0984       H53-C29=1.1063       H54-N30=1.0095       H55-C31=1.0853       
H56-C32=1.0807       H57-C34=1.0779       H58-C35=1.0785       Ni59-N65=1.9728      Ni59-N76=1.9715      Ni59-N83=1.9714      
Ni59-N95=1.9729      C60-C61=1.3796       C60-C94=1.3795       C60-H96=1.0839       C61-C60=1.3796       C61-C62=1.4306       
C61-N65=1.3727       C62-C61=1.4306       C62-C63=1.3540       C62-H97=1.0785       C63-C62=1.3540       C63-C64=1.4334       
C63-H98=1.0779       C64-C63=1.4334       C64-N65=1.3729       C64-C66=1.3891       N65-Ni59=1.9728      N65-C61=1.3727       
N65-C64=1.3729       C66-C64=1.3891       C66-C67=1.4826       C66-C73=1.3885       C67-C66=1.4826       C67-C68=1.3412       
C67-C72=1.4558       C68-C67=1.3412       C68-C69=1.5065       C68-H99=1.0838       C69-C68=1.5065       C69-N70=1.4652       
C69-H100=1.0984      C69-H101=1.1061      N70-C69=1.4652       N70-C71=1.3705       N70-H102=1.0094      C71-N70=1.3705       
C71-C72=1.3448       C71-H103=1.0853      C72-C67=1.4558       C72-C71=1.3448       C72-H104=1.0806      C73-C66=1.3885       
C73-C74=1.4310       C73-N76=1.3772       C74-C73=1.4310       C74-C75=1.3548       C74-H105=1.0777      C75-C74=1.3548       
C75-C77=1.4280       C75-H106=1.0781      N76-Ni59=1.9715      N76-C73=1.3772       N76-C77=1.3676       C77-C75=1.4280       
C77-N76=1.3676       C77-C78=1.3983       C78-C77=1.3983       C78-C79=1.3980       C78-C124=1.4045      C79-C78=1.3980       
C79-C80=1.4280       C79-N83=1.3679       C80-C79=1.4280       C80-C81=1.3550       C80-H107=1.0782      C81-C80=1.3550       
C81-C82=1.4312       C81-H108=1.0778      C82-C81=1.4312       C82-N83=1.3773       C82-C84=1.3888       N83-Ni59=1.9714      
N83-C79=1.3679       N83-C82=1.3773       C84-C82=1.3888       C84-C85=1.4826       C84-C91=1.3893       C85-C84=1.4826       
C85-C86=1.3412       C85-C90=1.4559       C86-C85=1.3412       C86-C87=1.5066       C86-H109=1.0838      C87-C86=1.5066       
C87-N88=1.4653       C87-H110=1.0984      C87-H111=1.1063      N88-C87=1.4653       N88-C89=1.3705       N88-H112=1.0095      
C89-N88=1.3705       C89-C90=1.3448       C89-H113=1.0853      C90-C85=1.4559       C90-C89=1.3448       C90-H114=1.0807      
C91-C84=1.3893       C91-C92=1.4335       C91-N95=1.3728       C92-C91=1.4335       C92-C93=1.3539       C92-H115=1.0779      
C93-C92=1.3539       C93-C94=1.4306       C93-H116=1.0785      C94-C60=1.3795       C94-C93=1.4306       C94-N95=1.3727       
N95-Ni59=1.9729      N95-C91=1.3728       N95-C94=1.3727       H96-C60=1.0839       H97-C62=1.0785       H98-C63=1.0779       
H99-C68=1.0838       H100-C69=1.0984      H101-C69=1.1061      H102-N70=1.0094      H103-C71=1.0853      H104-C72=1.0806      
H105-C74=1.0777      H106-C75=1.0781      H107-C80=1.0782      H108-C81=1.0778      H109-C86=1.0838      H110-C87=1.0984      
H111-C87=1.1063      H112-N88=1.0095      H113-C89=1.0853      H114-C90=1.0807      H115-C92=1.0779      H116-C93=1.0785      
C117-C20=1.4044      C117-C118=1.2244     C118-C117=1.2244     C118-C119=1.3433     C119-C118=1.3433     C119-C120=1.2305     
C120-C119=1.2305     C120-C121=1.3385     C121-C120=1.3385     C121-C122=1.2305     C122-C121=1.2305     C122-C123=1.3433     
C123-C122=1.3433     C123-C124=1.2244     C124-C78=1.4045      C124-C123=1.2244     
 C  H  Rav=1.0851 sigma=0.0094  Rmin=1.0777  Rmax=1.1063    38
 C  C  Rav=1.3945 sigma=0.0629  Rmin=1.2244  Rmax=1.5066    69
 N  H  Rav=1.0094 sigma=0.0001  Rmin=1.0094  Rmax=1.0095     4
 N  C  Rav=1.3877 sigma=0.0348  Rmin=1.3676  Rmax=1.4653    24
 Ni N  Rav=1.9722 sigma=0.0007  Rmin=1.9714  Rmax=1.9729     8

 selected bond angles (degree)
 --------------------
N18-Ni1-N7= 89.55              N25-Ni1-N7=176.12              N25-Ni1-N18= 90.51             N37-Ni1-N7= 90.64              
N37-Ni1-N18=176.10             N37-Ni1-N25= 89.56             C36-C2-C3=123.95               H38-C2-C3=118.03               
H38-C2-C36=118.02              C4-C3-C2=123.62                N7-C3-C2=125.51                N7-C3-C4=110.78                
C5-C4-C3=106.65                H39-C4-C3=124.53               H39-C4-C5=128.82               C6-C5-C4=106.87                
H40-C5-C4=128.34               H40-C5-C6=124.79               N7-C6-C5=110.49                C8-C6-C5=123.98                
C8-C6-N7=125.48                C3-N7-Ni1=126.67               C6-N7-Ni1=128.04               C6-N7-C3=105.12                
C9-C8-C6=118.95                C15-C8-C6=122.51               C15-C8-C9=118.54               C10-C9-C8=121.62               
C14-C9-C8=118.65               C14-C9-C10=119.72              C11-C10-C9=122.49              H41-C10-C9=121.79              
H41-C10-C11=115.72             

 selected dihedral angles (degree)
 ---------------------------------
C4-C3-C2-C36=178.24           C4-C3-C2-H38=358.29           N7-C3-C2-C36=354.50           N7-C3-C2-H38=174.55           
C5-C4-C3-C2=175.48            C5-C4-C3-N7=358.74            H39-C4-C3-C2=355.42           H39-C4-C3-N7=178.68           
C6-C5-C4-C3=359.44            C6-C5-C4-H39=179.50           H40-C5-C4-C3=179.27           H40-C5-C4-H39=359.33          
N7-C6-C5-C4=  2.22            N7-C6-C5-H40=182.39           C8-C6-C5-C4=184.87            C8-C6-C5-H40=  5.04           
C3-N7-Ni1-N18=179.26          C3-N7-Ni1-N25= 88.28          C3-N7-Ni1-N37=355.37          C6-N7-Ni1-N18=  4.59          
C6-N7-Ni1-N25=273.61          C6-N7-Ni1-N37=180.70          Ni1-N7-C3-C2= 10.25           Ni1-N7-C3-C4=186.92           
C6-N7-C3-C2=185.90            C6-N7-C3-C4=  2.57            Ni1-N7-C6-C5=172.66           Ni1-N7-C6-C8=349.95           
C3-N7-C6-C5=357.08            C3-N7-C6-C8=174.38            C9-C8-C6-C5=  2.53            C9-C8-C6-N7=185.58            
C15-C8-C6-C5=182.33           C15-C8-C6-N7=  5.38           C10-C9-C8-C6= 61.92           C10-C9-C8-C15=242.12          
C14-C9-C8-C6=240.93           C14-C9-C8-C15= 61.13          C11-C10-C9-C8=180.59          C11-C10-C9-C14=  1.59         
H41-C10-C9-C8=359.66          H41-C10-C9-C14=180.65         
           -------------------------------------------------
          |                Final Singlepoint                |
           -------------------------------------------------

          ...................................................
          :                      SETUP                      :
          :.................................................:
          :  # basis functions                 424          :
          :  # atomic orbitals                 422          :
          :  # shells                          250          :
          :  # electrons                       394          :
          :  # halogen bonds                     0          :
          :  max. iterations                   250          :
          :  Hamiltonian                  GFN1-xTB          :
          :  restarted?                      false          :
          :  GBSA solvation                  false          :
          :  PC potential                    false          :
          :  electronic temp.          300.0000000     K    :
          :  accuracy                    1.0000000          :
          :  -> integral cutoff          0.2500000E+02      :
          :  -> integral neglect         0.1000000E-07      :
          :  -> SCF convergence          0.1000000E-05 Eh   :
          :  -> wf. convergence          0.2000000E-04 e    :
          :  Broyden damping             0.4000000          :
          ...................................................

 iter      E             dE          RMSdq      gap      omega  full diag
   1   -216.0764651 -0.216076E+03  0.619E-06    1.00       0.0  T
   2   -216.0764651  0.568434E-13  0.328E-06    1.00    2740.7  T
   3   -216.0764651 -0.144951E-11  0.186E-06    1.00    4826.7  T

   *** convergence criteria satisfied after 3 iterations ***

         #    Occupation            Energy/Eh            Energy/eV
      -------------------------------------------------------------
         1        2.0000           -0.7806375             -21.2422
       ...           ...                  ...                  ...
       191        2.0000           -0.3883932             -10.5687
       192        2.0000           -0.3863456             -10.5130
       193        2.0000           -0.3777944             -10.2803
       194        2.0000           -0.3706560             -10.0861
       195        2.0000           -0.3706532             -10.0860
       196        2.0000           -0.3699583             -10.0671
       197        2.0000           -0.3695543             -10.0561 (HOMO)
       198                         -0.3326818              -9.0527 (LUMO)
       199                         -0.3225524              -8.7771
       200                         -0.3211861              -8.7399
       201                         -0.3211850              -8.7399
       202                         -0.3203368              -8.7168
       ...                                ...                  ...
       422                          1.6119165              43.8625
      -------------------------------------------------------------
                  HL-Gap            0.0368725 Eh            1.0034 eV
             Fermi-level           -0.3507261 Eh           -9.5437 eV

 SCC (total)                   0 d,  0 h,  0 min,  0.873 sec
 SCC setup                      ...        0 min,  0.007 sec (  0.745%)
 Dispersion                     ...        0 min,  0.005 sec (  0.594%)
 classical contributions        ...        0 min,  0.002 sec (  0.210%)
 integral evaluation            ...        0 min,  0.193 sec ( 22.104%)
 iterations                     ...        0 min,  0.187 sec ( 21.437%)
 molecular gradient             ...        0 min,  0.465 sec ( 53.240%)
 printout                       ...        0 min,  0.015 sec (  1.665%)

         :::::::::::::::::::::::::::::::::::::::::::::::::::::
         ::                     SUMMARY                     ::
         :::::::::::::::::::::::::::::::::::::::::::::::::::::
         :: total energy            -212.699118021427 Eh    ::
         :: gradient norm              0.000963620339 Eh/a0 ::
         :: HOMO-LUMO gap              1.003352122286 eV    ::
         ::.................................................::
         :: SCC energy              -216.076465069577 Eh    ::
         :: -> electrostatic           0.145088613122 Eh    ::
         :: repulsion energy           3.484536749084 Eh    ::
         :: dispersion energy         -0.107189700934 Eh    ::
         :: halogen bond corr.         0.000000000000 Eh    ::
         :: add. restraining           0.000000000000 Eh    ::
         :: total charge               0.000000000494 e     ::
         :::::::::::::::::::::::::::::::::::::::::::::::::::::

           -------------------------------------------------
          |                Property Printout                |
           -------------------------------------------------

    * Orbital Energies and Occupations

         #    Occupation            Energy/Eh            Energy/eV
      -------------------------------------------------------------
         1        2.0000           -0.7806375             -21.2422
       ...           ...                  ...                  ...
       185        2.0000           -0.3904670             -10.6251
       186        2.0000           -0.3895070             -10.5990
       187        2.0000           -0.3895062             -10.5990
       188        2.0000           -0.3884160             -10.5693
       189        2.0000           -0.3884138             -10.5693
       190        2.0000           -0.3883943             -10.5687
       191        2.0000           -0.3883932             -10.5687
       192        2.0000           -0.3863456             -10.5130
       193        2.0000           -0.3777944             -10.2803
       194        2.0000           -0.3706560             -10.0861
       195        2.0000           -0.3706532             -10.0860
       196        2.0000           -0.3699583             -10.0671
       197        2.0000           -0.3695543             -10.0561 (HOMO)
       198                         -0.3326818              -9.0527 (LUMO)
       199                         -0.3225524              -8.7771
       200                         -0.3211861              -8.7399
       201                         -0.3211850              -8.7399
       202                         -0.3203368              -8.7168
       203                         -0.3203223              -8.7164
       204                         -0.2954526              -8.0397
       205                         -0.2937939              -7.9945
       206                         -0.2866548              -7.8003
       207                         -0.2708733              -7.3708
       208                         -0.2656692              -7.2292
       ...                                ...                  ...
       422                          1.6119165              43.8625
      -------------------------------------------------------------
                  HL-Gap            0.0368725 Eh            1.0034 eV
             Fermi-level           -0.3507261 Eh           -9.5437 eV

  Mulliken/CM5 charges         n(s)   n(p)   n(d)
     1Ni    0.21125  0.58240   0.557  0.673  8.559
     2C    -0.06288 -0.10420   1.059  3.003  0.000
     3C     0.14500  0.20556   1.043  2.812  0.000
     4C    -0.06273 -0.10922   1.061  3.002  0.000
     5C    -0.05897 -0.10505   1.062  2.997  0.000
     6C     0.13911  0.20308   1.046  2.815  0.000
     7N    -0.27446 -0.52606   1.492  3.782  0.000
     8C    -0.01762 -0.01224   1.085  2.932  0.000
     9C     0.02099  0.01396   1.078  2.901  0.000
    10C    -0.08022 -0.13233   1.060  3.021  0.000
    11C     0.10394  0.05874   1.002  2.894  0.000
    12N    -0.34766 -0.70757   1.427  3.920  0.000
    13C     0.12510  0.13690   1.021  2.854  0.000
    14C    -0.12253 -0.17102   1.040  3.082  0.000
    15C     0.13778  0.20105   1.045  2.817  0.000
    16C    -0.05767 -0.10369   1.062  2.995  0.000
    17C    -0.06123 -0.10680   1.060  3.001  0.000
    18N    -0.27280 -0.52431   1.493  3.780  0.000
    19C     0.14360  0.20874   1.046  2.811  0.000
    20C    -0.00138  0.00553   1.065  2.936  0.000
    21C     0.14344  0.20856   1.046  2.811  0.000
    22C    -0.06113 -0.10669   1.060  3.001  0.000
    23C    -0.05766 -0.10367   1.062  2.995  0.000
    24C     0.13777  0.20104   1.045  2.817  0.000
    25N    -0.27281 -0.52427   1.493  3.780  0.000
    26C    -0.01770 -0.01233   1.085  2.932  0.000
    27C     0.02098  0.01395   1.078  2.901  0.000
    28C    -0.08017 -0.13228   1.060  3.021  0.000
    29C     0.10392  0.05874   1.002  2.894  0.000
    30N    -0.34766 -0.70747   1.427  3.920  0.000
    31C     0.12507  0.13687   1.021  2.854  0.000
    32C    -0.12249 -0.17098   1.040  3.082  0.000
    33C     0.13917  0.20316   1.046  2.815  0.000
    34C    -0.05898 -0.10507   1.062  2.997  0.000
    35C    -0.06271 -0.10920   1.061  3.002  0.000
    36C     0.14499  0.20554   1.043  2.812  0.000
    37N    -0.27446 -0.52607   1.492  3.782  0.000
    38H     0.03617  0.09515   0.964  0.000  0.000
    39H     0.03374  0.09035   0.966  0.000  0.000
    40H     0.03263  0.09146   0.967  0.000  0.000
    41H     0.03092  0.08880   0.969  0.000  0.000
    42H     0.02206  0.08568   0.978  0.000  0.000
[...]

 ---------------------------------------------------------------------------
     #   Z sym  total        # sym  WBO       # sym  WBO       # sym  WBO
 ---------------------------------------------------------------------------
     1  28 Ni   3.017 --     7 N    0.664    37 N    0.664    18 N    0.663
                            25 N    0.663
     2   6 C    3.932 --    36 C    1.363     3 C    1.363    38 H    0.970
     3   6 C    3.926 --     2 C    1.363     7 N    1.213     4 C    1.177
     4   6 C    3.960 --     5 C    1.646     3 C    1.177    39 H    0.975
     5   6 C    3.963 --     4 C    1.646     6 C    1.179    40 H    0.973
     6   6 C    3.920 --     8 C    1.322     7 N    1.220     5 C    1.179
     7   7 N    3.401 --     6 C    1.220     3 C    1.213     1 Ni   0.664
     8   6 C    3.940 --    15 C    1.328     6 C    1.322     9 C    1.024
     9   6 C    3.988 --    10 C    1.768    14 C    1.098     8 C    1.024
    10   6 C    3.973 --     9 C    1.768    11 C    1.013    41 H    0.972
    11   6 C    3.961 --    10 C    1.013    42 H    0.976    43 H    0.966
                            12 N    0.949
    12   7 N    3.249 --    13 C    1.162    11 C    0.949    44 H    0.928
                            14 C    0.128
    13   6 C    3.958 --    14 C    1.690    12 N    1.162    45 H    0.971
    14   6 C    3.967 --    13 C    1.690     9 C    1.098    46 H    0.974
                            12 N    0.128
    15   6 C    3.914 --     8 C    1.328    18 N    1.204    16 C    1.186
    16   6 C    3.959 --    17 C    1.634    15 C    1.186    47 H    0.972
    17   6 C    3.961 --    16 C    1.634    19 C    1.192    48 H    0.973
    18   7 N    3.406 --    19 C    1.239    15 C    1.204     1 Ni   0.663
    19   6 C    3.903 --    20 C    1.261    18 N    1.239    17 C    1.192
    20   6 C    3.943 --    21 C    1.261    19 C    1.261   117 C    1.187
    21   6 C    3.903 --    20 C    1.261    25 N    1.239    22 C    1.192
    22   6 C    3.961 --    23 C    1.634    21 C    1.192    49 H    0.973
    23   6 C    3.959 --    22 C    1.634    24 C    1.185    50 H    0.972
    24   6 C    3.914 --    26 C    1.328    25 N    1.204    23 C    1.185
    25   7 N    3.406 --    21 C    1.239    24 C    1.204     1 Ni   0.663
    26   6 C    3.940 --    24 C    1.328    33 C    1.322    27 C    1.024
    27   6 C    3.988 --    28 C    1.768    32 C    1.098    26 C    1.024
    28   6 C    3.973 --    27 C    1.768    29 C    1.013    51 H    0.972
    29   6 C    3.961 --    28 C    1.013    52 H    0.976    53 H    0.966
                            30 N    0.949
    30   7 N    3.249 --    31 C    1.162    29 C    0.949    54 H    0.928
                            32 C    0.128
    31   6 C    3.958 --    32 C    1.691    30 N    1.162    55 H    0.971
    32   6 C    3.967 --    31 C    1.691    27 C    1.098    56 H    0.974
                            30 N    0.128
    33   6 C    3.920 --    26 C    1.322    37 N    1.221    34 C    1.178
    34   6 C    3.963 --    35 C    1.646    33 C    1.178    57 H    0.973
    35   6 C    3.960 --    34 C    1.646    36 C    1.177    58 H    0.975
    36   6 C    3.926 --     2 C    1.363    37 N    1.213    35 C    1.177
    37   7 N    3.401 --    33 C    1.221    36 C    1.213     1 Ni   0.664
    38   1 H    1.001 --     2 C    0.970
    39   1 H    0.998 --     4 C    0.975
    40   1 H    1.007 --     5 C    0.973
    41   1 H    1.003 --    10 C    0.972
    42   1 H    1.019 --    11 C    0.976
    43   1 H    1.008 --    11 C    0.966
    44   1 H    0.963 --    12 N    0.928
    45   1 H    1.001 --    13 C    0.971
    46   1 H    1.003 --    14 C    0.974
    47   1 H    1.005 --    16 C    0.972
    48   1 H    1.002 --    17 C    0.973
    49   1 H    1.002 --    22 C    0.973
    50   1 H    1.005 --    23 C    0.972
    51   1 H    1.003 --    28 C    0.972
    52   1 H    1.019 --    29 C    0.976
    53   1 H    1.008 --    29 C    0.966
    54   1 H    0.963 --    30 N    0.928
    55   1 H    1.001 --    31 C    0.971
    56   1 H    1.003 --    32 C    0.974
    57   1 H    1.007 --    34 C    0.973
    58   1 H    0.998 --    35 C    0.975
    59  28 Ni   3.017 --    65 N    0.664    95 N    0.664    83 N    0.663
                            76 N    0.663
    60   6 C    3.932 --    94 C    1.363    61 C    1.363    96 H    0.970
    61   6 C    3.926 --    60 C    1.363    65 N    1.213    62 C    1.177
    62   6 C    3.960 --    63 C    1.646    61 C    1.177    97 H    0.975
    63   6 C    3.963 --    62 C    1.646    64 C    1.179    98 H    0.973
    64   6 C    3.920 --    66 C    1.322    65 N    1.220    63 C    1.179
    65   7 N    3.401 --    64 C    1.220    61 C    1.213    59 Ni   0.664
    66   6 C    3.940 --    73 C    1.328    64 C    1.322    67 C    1.024
    67   6 C    3.988 --    68 C    1.768    72 C    1.098    66 C    1.024
    68   6 C    3.973 --    67 C    1.768    69 C    1.013    99 H    0.972
    69   6 C    3.961 --    68 C    1.013   100 H    0.976   101 H    0.966
                            70 N    0.949
    70   7 N    3.249 --    71 C    1.162    69 C    0.949   102 H    0.928
                            72 C    0.128
    71   6 C    3.958 --    72 C    1.690    70 N    1.162   103 H    0.971
    72   6 C    3.967 --    71 C    1.690    67 C    1.098   104 H    0.974
                            70 N    0.128
    73   6 C    3.914 --    66 C    1.328    76 N    1.204    74 C    1.186
    74   6 C    3.959 --    75 C    1.634    73 C    1.186   105 H    0.972
    75   6 C    3.961 --    74 C    1.634    77 C    1.192   106 H    0.973
    76   7 N    3.406 --    77 C    1.239    73 C    1.204    59 Ni   0.663
    77   6 C    3.903 --    78 C    1.261    76 N    1.239    75 C    1.192
    78   6 C    3.943 --    79 C    1.262    77 C    1.261   124 C    1.187
    79   6 C    3.903 --    78 C    1.262    83 N    1.239    80 C    1.192
    80   6 C    3.961 --    81 C    1.634    79 C    1.192   107 H    0.973
    81   6 C    3.959 --    80 C    1.634    82 C    1.185   108 H    0.972
    82   6 C    3.914 --    84 C    1.328    83 N    1.204    81 C    1.185
    83   7 N    3.406 --    79 C    1.239    82 C    1.204    59 Ni   0.663
    84   6 C    3.940 --    82 C    1.328    91 C    1.322    85 C    1.024
    85   6 C    3.988 --    86 C    1.768    90 C    1.098    84 C    1.024
    86   6 C    3.973 --    85 C    1.768    87 C    1.013   109 H    0.972
    87   6 C    3.961 --    86 C    1.013   110 H    0.976   111 H    0.966
                            88 N    0.949
    88   7 N    3.249 --    89 C    1.162    87 C    0.949   112 H    0.928
                            90 C    0.128
    89   6 C    3.958 --    90 C    1.691    88 N    1.162   113 H    0.971
    90   6 C    3.967 --    89 C    1.691    85 C    1.098   114 H    0.974
                            88 N    0.128
    91   6 C    3.920 --    84 C    1.322    95 N    1.221    92 C    1.178
    92   6 C    3.963 --    93 C    1.646    91 C    1.178   115 H    0.973
    93   6 C    3.960 --    92 C    1.646    94 C    1.177   116 H    0.975
    94   6 C    3.926 --    60 C    1.363    95 N    1.213    93 C    1.177
    95   7 N    3.401 --    91 C    1.221    94 C    1.213    59 Ni   0.664
    96   1 H    1.001 --    60 C    0.970
    97   1 H    0.998 --    62 C    0.975
    98   1 H    1.007 --    63 C    0.973
    99   1 H    1.003 --    68 C    0.972
   100   1 H    1.019 --    69 C    0.976
   101   1 H    1.008 --    69 C    0.966
   102   1 H    0.963 --    70 N    0.928
   103   1 H    1.001 --    71 C    0.971
   104   1 H    1.003 --    72 C    0.974
   105   1 H    1.005 --    74 C    0.972
   106   1 H    1.002 --    75 C    0.973
   107   1 H    1.002 --    80 C    0.973
   108   1 H    1.005 --    81 C    0.972
   109   1 H    1.003 --    86 C    0.972
   110   1 H    1.019 --    87 C    0.976
   111   1 H    1.008 --    87 C    0.966
   112   1 H    0.963 --    88 N    0.928
   113   1 H    1.001 --    89 C    0.971
   114   1 H    1.003 --    90 C    0.974
   115   1 H    1.007 --    92 C    0.973
   116   1 H    0.998 --    93 C    0.975
   117   6 C    3.878 --   118 C    2.444    20 C    1.187   120 C    0.187
   118   6 C    3.937 --   117 C    2.444   119 C    1.341
   119   6 C    3.894 --   120 C    2.340   118 C    1.341   122 C    0.183
   120   6 C    3.927 --   119 C    2.340   121 C    1.367   117 C    0.187
   121   6 C    3.927 --   122 C    2.340   120 C    1.367   124 C    0.187
   122   6 C    3.894 --   121 C    2.340   123 C    1.342   119 C    0.183
   123   6 C    3.937 --   124 C    2.444   122 C    1.342
   124   6 C    3.878 --   123 C    2.444    78 C    1.187   121 C    0.187
 ---------------------------------------------------------------------------

Topologies differ in total number of bonds
Writing topology from bond orders to xtbtopo.mol

 dipole moment from electron density (au)
     X       Y       Z   
  -0.0004   0.0072  -0.0669  total (Debye):    0.171

           -------------------------------------------------
          |                Geometry Summary                 |
           -------------------------------------------------

      molecular mass/u    :     1144.5306854
   center of mass at/Å    :       20.6517374      -0.0022088       0.0049887
  moments of inertia/u·Å² :        0.1728150E+05   0.9476555E+05   0.1114342E+06
rotational constants/cm⁻¹ :        0.9754725E-03   0.1778878E-03   0.1512789E-03

 * 118 selected distances

     #   Z          #   Z                                           value/Å
     2   6 C        3   6 C                                       1.3796023
     3   6 C        4   6 C                                       1.4306282
     4   6 C        5   6 C                                       1.3539573
     5   6 C        6   6 C                                       1.4334001
     3   6 C        7   7 N                                       1.3726558
     6   6 C        7   7 N                                       1.3729176
     6   6 C        8   6 C                                       1.3890744
     9   6 C       10   6 C                                       1.3412268
    11   6 C       12   7 N                                       1.4651647
    12   7 N       13   6 C                                       1.3704586
    13   6 C       14   6 C                                       1.3447707
     8   6 C       15   6 C                                       1.3885533
    15   6 C       16   6 C                                       1.4309808
    16   6 C       17   6 C                                       1.3547779
    15   6 C       18   7 N                                       1.3771675
    17   6 C       19   6 C                                       1.4280219
    18   7 N       19   6 C                                       1.3677024
    19   6 C       20   6 C                                       1.3982422
    20   6 C       21   6 C                                       1.3980020
    21   6 C       22   6 C                                       1.4280829
    22   6 C       23   6 C                                       1.3549511
    23   6 C       24   6 C                                       1.4312239
    21   6 C       25   7 N                                       1.3678403
    24   6 C       25   7 N                                       1.3772375
    24   6 C       26   6 C                                       1.3887575
    27   6 C       28   6 C                                       1.3412454
    29   6 C       30   7 N                                       1.4652522 (max)
    30   7 N       31   6 C                                       1.3704653
    31   6 C       32   6 C                                       1.3448023
    26   6 C       33   6 C                                       1.3892488
    33   6 C       34   6 C                                       1.4335507
    34   6 C       35   6 C                                       1.3538633
     2   6 C       36   6 C                                       1.3795394
    35   6 C       36   6 C                                       1.4306458
    33   6 C       37   7 N                                       1.3728137
    36   6 C       37   7 N                                       1.3727005
     2   6 C       38   1 H                                       1.0838576
     4   6 C       39   1 H                                       1.0785196
     5   6 C       40   1 H                                       1.0778533
    10   6 C       41   1 H                                       1.0837589
    11   6 C       42   1 H                                       1.0983763
    11   6 C       43   1 H                                       1.1061342
    12   7 N       44   1 H                                       1.0093730
    13   6 C       45   1 H                                       1.0853182
    14   6 C       46   1 H                                       1.0806493
    16   6 C       47   1 H                                       1.0777254
    17   6 C       48   1 H                                       1.0780954
    22   6 C       49   1 H                                       1.0781906
    23   6 C       50   1 H                                       1.0778433
    28   6 C       51   1 H                                       1.0837523
    29   6 C       52   1 H                                       1.0984399
    29   6 C       53   1 H                                       1.1062923
    30   7 N       54   1 H                                       1.0095292
    31   6 C       55   1 H                                       1.0853378
    32   6 C       56   1 H                                       1.0807064
    34   6 C       57   1 H                                       1.0778658
    35   6 C       58   1 H                                       1.0785341
    60   6 C       61   6 C                                       1.3796085
    61   6 C       62   6 C                                       1.4306249
    62   6 C       63   6 C                                       1.3539582
    63   6 C       64   6 C                                       1.4334078
    61   6 C       65   7 N                                       1.3726515
    64   6 C       65   7 N                                       1.3728975
    64   6 C       66   6 C                                       1.3890947
    67   6 C       68   6 C                                       1.3412296
    69   6 C       70   7 N                                       1.4651593
    70   7 N       71   6 C                                       1.3704573
    71   6 C       72   6 C                                       1.3447796
    66   6 C       73   6 C                                       1.3885299
    73   6 C       74   6 C                                       1.4309742
    74   6 C       75   6 C                                       1.3547933
    73   6 C       76   7 N                                       1.3771872
    75   6 C       77   6 C                                       1.4280498
    76   7 N       77   6 C                                       1.3676360
    77   6 C       78   6 C                                       1.3982660
    78   6 C       79   6 C                                       1.3979944
    79   6 C       80   6 C                                       1.4280335
    80   6 C       81   6 C                                       1.3549642
    81   6 C       82   6 C                                       1.4312446
    79   6 C       83   7 N                                       1.3678676
    82   6 C       83   7 N                                       1.3772566
    82   6 C       84   6 C                                       1.3887816
    85   6 C       86   6 C                                       1.3412457
    87   6 C       88   7 N                                       1.4652521
    88   7 N       89   6 C                                       1.3704578
    89   6 C       90   6 C                                       1.3448022
    84   6 C       91   6 C                                       1.3892632
    91   6 C       92   6 C                                       1.4335474
    92   6 C       93   6 C                                       1.3538727
    60   6 C       94   6 C                                       1.3795378
    93   6 C       94   6 C                                       1.4306450
    91   6 C       95   7 N                                       1.3728207
    94   6 C       95   7 N                                       1.3727049
    60   6 C       96   1 H                                       1.0838567
    62   6 C       97   1 H                                       1.0785156
    63   6 C       98   1 H                                       1.0778514
    68   6 C       99   1 H                                       1.0837502
    69   6 C      100   1 H                                       1.0983711
    69   6 C      101   1 H                                       1.1061318
    70   7 N      102   1 H                                       1.0093730 (min)
    71   6 C      103   1 H                                       1.0853214
    72   6 C      104   1 H                                       1.0806484
    74   6 C      105   1 H                                       1.0777302
    75   6 C      106   1 H                                       1.0780848
    80   6 C      107   1 H                                       1.0781831
    81   6 C      108   1 H                                       1.0778395
    86   6 C      109   1 H                                       1.0837578
    87   6 C      110   1 H                                       1.0984427
    87   6 C      111   1 H                                       1.1062853
    88   7 N      112   1 H                                       1.0094895
    89   6 C      113   1 H                                       1.0853354
    90   6 C      114   1 H                                       1.0807032
    92   6 C      115   1 H                                       1.0778673
    93   6 C      116   1 H                                       1.0785387
   117   6 C      118   6 C                                       1.2243600
   119   6 C      120   6 C                                       1.2304669
   121   6 C      122   6 C                                       1.2305101
   123   6 C      124   6 C                                       1.2243606

 * 4 distinct bonds (by element types)

   Z      Z             #   av. dist./Å        max./Å        min./Å
   1 H    6 C          38     1.0851175     1.1062923     1.0777254
   6 C    6 C          52     1.3770018     1.4335507     1.2243600
   1 H    7 N           4     1.0094412     1.0095292     1.0093730
   6 C    7 N          24     1.3876969     1.4652522     1.3676360


optimized geometry written to: xtbopt.xyz


           -------------------------------------------------
          | TOTAL ENERGY             -212.699118021427 Eh   |
          | GRADIENT NORM               0.000963620339 Eh/α |
          | HOMO-LUMO GAP               1.003352122286 eV   |
           -------------------------------------------------

------------------------------------------------------------------------
 * finished run on 2022/07/30 at 03:46:25.309     
------------------------------------------------------------------------
 total:
 * wall-time:     0 d,  0 h,  0 min, 41.205 sec
 *  cpu-time:     0 d,  0 h,  0 min, 40.851 sec
 * ratio c/w:     0.991 speedup
 SCF:
 * wall-time:     0 d,  0 h,  0 min,  3.227 sec
 *  cpu-time:     0 d,  0 h,  0 min,  3.202 sec
 * ratio c/w:     0.992 speedup
 ANC optimizer:
 * wall-time:     0 d,  0 h,  0 min, 37.772 sec
 *  cpu-time:     0 d,  0 h,  0 min, 37.449 sec
 * ratio c/w:     0.991 speedup

