      -----------------------------------------------------------      
     |                   =====================                   |     
     |                           x T B                           |     
     |                   =====================                   |     
     |                         S. Grimme                         |     
     |          Mulliken Center for Theoretical Chemistry        |     
     |                    University of Bonn                     |     
      -----------------------------------------------------------      

   * xtb version 6.5.1 (b24c23e) compiled by 'conda@728c89f4b128' on 2022-07-12

   xtb is free software: you can redistribute it and/or modify it under
   the terms of the GNU Lesser General Public License as published by
   the Free Software Foundation, either version 3 of the License, or
   (at your option) any later version.
   
   xtb is distributed in the hope that it will be useful,
   but WITHOUT ANY WARRANTY; without even the implied warranty of
   MERCHANTABILITY or FITNESS FOR A PARTICULAR PURPOSE.  See the
   GNU Lesser General Public License for more details.
   
   Cite this work as:
   * C. Bannwarth, E. Caldeweyher, S. Ehlert, A. Hansen, P. Pracht,
     J. Seibert, S. Spicher, S. Grimme, WIREs Comput. Mol. Sci., 2020, 11,
     e01493. DOI: 10.1002/wcms.1493
   
   for GFN2-xTB:
   * C. Bannwarth, S. Ehlert and S. Grimme., J. Chem. Theory Comput., 2019,
     15, 1652-1671. DOI: 10.1021/acs.jctc.8b01176
   for GFN1-xTB:
   * S. Grimme, C. Bannwarth, P. Shushkov, J. Chem. Theory Comput., 2017,
     13, 1989-2009. DOI: 10.1021/acs.jctc.7b00118
   for GFN0-xTB:
   * P. Pracht, E. Caldeweyher, S. Ehlert, S. Grimme, ChemRxiv, 2019, preprint.
     DOI: 10.26434/chemrxiv.8326202.v1
   for GFN-FF:
   * S. Spicher and S. Grimme, Angew. Chem. Int. Ed., 2020, 59, 15665-15673.
     DOI: 10.1002/anie.202004239
   
   for ALPB and GBSA implicit solvation:
   * S. Ehlert, M. Stahn, S. Spicher, S. Grimme, J. Chem. Theory Comput.,
     2021, 17, 4250-4261. DOI: 10.1021/acs.jctc.1c00471
   
   for DFT-D4:
   * E. Caldeweyher, C. Bannwarth and S. Grimme, J. Chem. Phys., 2017,
     147, 034112. DOI: 10.1063/1.4993215
   * E. Caldeweyher, S. Ehlert, A. Hansen, H. Neugebauer, S. Spicher,
     C. Bannwarth and S. Grimme, J. Chem. Phys., 2019, 150, 154122.
     DOI: 10.1063/1.5090222
   * E. Caldeweyher, J.-M. Mewes, S. Ehlert and S. Grimme, Phys. Chem. Chem. Phys.
     2020, 22, 8499-8512. DOI: 10.1039/D0CP00502A
   
   for sTDA-xTB:
   * S. Grimme and C. Bannwarth, J. Chem. Phys., 2016, 145, 054103.
     DOI: 10.1063/1.4959605
   
   in the mass-spec context:
   * V. Asgeirsson, C. Bauer and S. Grimme, Chem. Sci., 2017, 8, 4879.
     DOI: 10.1039/c7sc00601b
   * J. Koopman and S. Grimme, ACS Omega 2019, 4, 12, 15120-15133.
     DOI: 10.1021/acsomega.9b02011
   
   for metadynamics refer to:
   * S. Grimme, J. Chem. Theory Comput., 2019, 155, 2847-2862
     DOI: 10.1021/acs.jctc.9b00143
   
   for SPH calculations refer to:
   * S. Spicher and S. Grimme, J. Chem. Theory Comput., 2021, 17, 1701-1714
     DOI: 10.1021/acs.jctc.0c01306
   
   with help from (in alphabetical order)
   P. Atkinson, C. Bannwarth, F. Bohle, G. Brandenburg, E. Caldeweyher
   M. Checinski, S. Dohm, S. Ehlert, S. Ehrlich, I. Gerasimov, C. Hölzer
   A. Katbashev, J. Koopman, C. Lavigne, S. Lehtola, F. März, M. Müller,
   F. Musil, H. Neugebauer, J. Pisarek, C. Plett, P. Pracht, F. Pultar,
   J. Seibert, P. Shushkov, S. Spicher, M. Stahn, M. Steiner, T. Strunk,
   J. Stückrath, T. Rose, and J. Unsleber
   
 * started run on 2022/07/30 at 03:46:25.325     

           -------------------------------------------------
          |                Calculation Setup                |
           -------------------------------------------------

          program call               : xtb xtbopt.xyz --gfn 1 --vipea
          hostname                   : cx3-14-19.cx3.hpc.ic.ac.uk
          coordinate file            : xtbopt.xyz
          omp threads                :                     1

   ID    Z sym.   atoms
    1   28 Ni     1, 59
    2    6 C      2-6, 8-11, 13-17, 19-24, 26-29, 31-36, 60-64, 66-69, 71-75,
                  77-82, 84-87, 89-94, 117-124
    3    7 N      7, 12, 18, 25, 30, 37, 65, 70, 76, 83, 88, 95
    4    1 H      38-58, 96-116

           -------------------------------------------------
          |                 I P E A - x T B                 |
           -------------------------------------------------

        Reference                      10.1039/c7sc00601b
      * Hamiltonian:
        H0-scaling (s, p, d)           2.150000    2.300000    2.000000
        zeta-weighting                 0.000000
      * Dispersion:
        s8                             2.400000
        a1                             0.630000
        a2                             5.000000
        s9                             0.000000
      * Repulsion:
        kExp                           1.500000
        rExp                           1.000000
      * Coulomb:
        alpha                          1.000000
        third order                    atomic
        anisotropic                    false
      * Halogen bond correction:
        rad-scale                      1.300000
        damping                        0.440000


          ...................................................
          :                      SETUP                      :
          :.................................................:
          :  # basis functions                 504          :
          :  # atomic orbitals                 502          :
          :  # shells                          330          :
          :  # electrons                       394          :
          :  # halogen bonds                     0          :
          :  max. iterations                   250          :
          :  Hamiltonian                  GFN1-xTB          :
          :  restarted?                      false          :
          :  GBSA solvation                  false          :
          :  PC potential                    false          :
          :  electronic temp.          300.0000000     K    :
          :  accuracy                    1.0000000          :
          :  -> integral cutoff          0.2500000E+02      :
          :  -> integral neglect         0.1000000E-07      :
          :  -> SCF convergence          0.1000000E-05 Eh   :
          :  -> wf. convergence          0.2000000E-04 e    :
          :  Broyden damping             0.4000000          :
          ...................................................

 iter      E             dE          RMSdq      gap      omega  full diag
   1   -244.4270546 -0.244427E+03  0.102E+01    0.88       0.0  T
   2   -244.7307841 -0.303729E+00  0.632E+00    1.11       1.0  T
   3   -241.0431378  0.368765E+01  0.458E+00    1.07       1.0  T
   4   -245.1518834 -0.410875E+01  0.100E+00    1.19       1.0  T
   5   -245.4162907 -0.264407E+00  0.298E-01    1.12       1.0  T
   6   -245.4365023 -0.202117E-01  0.116E-01    1.19       1.0  T
   7   -245.4396175 -0.311511E-02  0.430E-02    1.20       1.0  T
   8   -245.4400118 -0.394334E-03  0.234E-02    1.20       1.0  T
   9   -245.4400843 -0.724755E-04  0.139E-02    1.21       1.0  T
  10   -245.4401142 -0.299250E-04  0.464E-03    1.21       1.9  T
  11   -245.4401159 -0.169480E-05  0.209E-03    1.21       4.3  T
  12   -245.4401171 -0.126874E-05  0.670E-04    1.21      13.4  T
  13   -245.4401172 -0.835120E-07  0.288E-04    1.21      31.2  T
  14   -245.4401173 -0.187517E-07  0.112E-04    1.21      80.2  T
  15   -245.4401173 -0.251376E-08  0.500E-05    1.21     179.5  T

   *** convergence criteria satisfied after 15 iterations ***

         #    Occupation            Energy/Eh            Energy/eV
      -------------------------------------------------------------
         1        2.0000           -1.0337615             -28.1301
       ...           ...                  ...                  ...
       191        2.0000           -0.3713893             -10.1060
       192        2.0000           -0.3713878             -10.1060
       193        2.0000           -0.3669911              -9.9863
       194        2.0000           -0.3536205              -9.6225
       195        2.0000           -0.3536162              -9.6224
       196        2.0000           -0.3528677              -9.6020
       197        2.0000           -0.3525916              -9.5945 (HOMO)
       198                         -0.3082579              -8.3881 (LUMO)
       199                         -0.2952780              -8.0349
       200                         -0.2939303              -7.9983
       201                         -0.2939287              -7.9982
       202                         -0.2610290              -7.1030
       ...                                ...                  ...
       502                        498.4704045           13564.0701
      -------------------------------------------------------------
                  HL-Gap            0.0443337 Eh            1.2064 eV
             Fermi-level           -0.3300292 Eh           -8.9806 eV

 SCC (total)                   0 d,  0 h,  0 min,  2.839 sec
 SCC setup                      ...        0 min,  0.004 sec (  0.129%)
 Dispersion                     ...        0 min,  0.005 sec (  0.186%)
 classical contributions        ...        0 min,  0.002 sec (  0.063%)
 integral evaluation            ...        0 min,  0.446 sec ( 15.703%)
 iterations                     ...        0 min,  1.361 sec ( 47.936%)
 molecular gradient             ...        0 min,  0.997 sec ( 35.113%)
 printout                       ...        0 min,  0.025 sec (  0.868%)

         :::::::::::::::::::::::::::::::::::::::::::::::::::::
         ::                     SUMMARY                     ::
         :::::::::::::::::::::::::::::::::::::::::::::::::::::
         :: total energy            -240.683563088847 Eh    ::
         :: gradient norm              0.055377771500 Eh/a0 ::
         :: HOMO-LUMO gap              1.206382217192 eV    ::
         ::.................................................::
         :: SCC energy              -245.440117253619 Eh    ::
         :: -> electrostatic           0.166798942018 Eh    ::
         :: repulsion energy           4.863743865706 Eh    ::
         :: dispersion energy         -0.107189700934 Eh    ::
         :: halogen bond corr.         0.000000000000 Eh    ::
         :: add. restraining           0.000000000000 Eh    ::
         :: total charge               0.000000000210 e     ::
         :::::::::::::::::::::::::::::::::::::::::::::::::::::

           ------------------------------------------------- 
          |        vertical delta SCC IP calculation        |
           ------------------------------------------------- 
   1   -245.0476595 -0.245048E+03  0.189E-01    1.21       0.0  T
   2   -245.0510562 -0.339677E-02  0.138E-01    1.50       1.0  T
   3   -245.0468886  0.416760E-02  0.152E-01    1.37       1.0  T
   4   -245.0308637  0.160249E-01  0.212E-01    1.35       1.0  T
   5   -245.0492194 -0.183557E-01  0.114E-01    1.42       1.0  T
   6   -245.0456548  0.356461E-02  0.134E-01    1.42       1.0  T
   7   -245.0554057 -0.975091E-02  0.531E-02    1.47       1.0  T
   8   -245.0530342  0.237155E-02  0.736E-02    1.44       1.0  T
   9   -245.0563457 -0.331152E-02  0.351E-02    1.44       1.0  T
  10   -245.0572392 -0.893475E-03  0.640E-03    1.44       1.4  T
  11   -245.0572421 -0.292189E-05  0.586E-03    1.44       1.5  T
  12   -245.0572560 -0.139025E-04  0.310E-03    1.44       2.9  T
  13   -245.0572629 -0.689353E-05  0.786E-04    1.44      11.4  T
  14   -245.0572631 -0.214084E-06  0.420E-04    1.44      21.4  T
  15   -245.0572631 -0.283738E-07  0.323E-04    1.44      27.8  T
  16   -245.0572632 -0.583236E-07  0.123E-04    1.44      73.3  T
  17   -245.0572632 -0.433434E-08  0.585E-05    1.44     153.6  T
     SCC iter.                  ...        0 min,  1.617 sec
     gradient                   ...        0 min,  0.981 sec
------------------------------------------------------------------------
empirical IP shift (eV):    4.8455
delta SCC IP (eV):    5.5725
------------------------------------------------------------------------
           ------------------------------------------------- 
          |        vertical delta SCC EA calculation        |
           ------------------------------------------------- 
   1   -245.6986350 -0.245699E+03  0.234E-01    0.35       0.0  T
   2   -245.7097480 -0.111130E-01  0.163E-01    0.25       1.0  T
   3   -245.7124881 -0.274007E-02  0.121E-01    0.29       1.0  T
   4   -245.7137728 -0.128470E-02  0.685E-02    0.27       1.0  T
   5   -245.7136222  0.150557E-03  0.462E-02    0.26       1.0  T
   6   -245.7140240 -0.401780E-03  0.180E-02    0.27       1.0  T
   7   -245.7141065 -0.825414E-04  0.677E-03    0.26       1.3  T
   8   -245.7141136 -0.707069E-05  0.359E-03    0.27       2.5  T
   9   -245.7141150 -0.143457E-05  0.193E-03    0.26       4.7  T
  10   -245.7141144  0.596488E-06  0.170E-03    0.26       5.3  T
  11   -245.7141160 -0.152267E-05  0.770E-04    0.27      11.7  T
  12   -245.7141163 -0.324511E-06  0.189E-04    0.27      47.5  T
  13   -245.7141163 -0.860001E-08  0.802E-05    0.27     112.0  T
     SCC iter.                  ...        0 min,  1.160 sec
     gradient                   ...        0 min,  0.974 sec
------------------------------------------------------------------------
empirical EA shift (eV):    4.8455
delta SCC EA (eV):    2.6104
------------------------------------------------------------------------
           -------------------------------------------------
          |                Property Printout                |
           -------------------------------------------------

    * Orbital Energies and Occupations

         #    Occupation            Energy/Eh            Energy/eV
      -------------------------------------------------------------
         1        2.0000           -0.9685716             -26.3562
       ...           ...                  ...                  ...
       186        2.0000           -0.3081368              -8.3848
       187        2.0000           -0.3060195              -8.3272
       188        2.0000           -0.3060058              -8.3268
       189        2.0000           -0.3057332              -8.3194
       190        2.0000           -0.3056473              -8.3171
       191        2.0000           -0.3056264              -8.3165
       192        2.0000           -0.3056260              -8.3165
       193        2.0000           -0.3044067              -8.2833
       194        2.0000           -0.3029806              -8.2445
       195        2.0000           -0.3029768              -8.2444
       196        2.0000           -0.3013283              -8.1996
       197        2.0000           -0.2963796              -8.0649
       198        0.9916           -0.2398048              -6.5254 (HOMO)
       199        0.0041           -0.2300509              -6.2600 (LUMO)
       200        0.0041           -0.2300507              -6.2600
       201        0.0003           -0.2276321              -6.1942
       202                         -0.1946995              -5.2980
       203                         -0.1879439              -5.1142
       204                         -0.1875750              -5.1042
       205                         -0.1874328              -5.1003
       206                         -0.1848095              -5.0289
       207                         -0.1803192              -4.9067
       208                         -0.1802366              -4.9045
       209                         -0.1800582              -4.8996
       ...                                ...                  ...
       502                        498.5401723           13565.9686
      -------------------------------------------------------------
                  HL-Gap            0.0097538 Eh            0.2654 eV
             Fermi-level           -0.2516848 Eh           -6.8487 eV

  Mulliken/CM5 charges         n(s)   n(p)   n(d)
     1Ni    0.25276  0.62392   0.575  0.794  8.378
     2C    -0.03468 -0.07601   1.074  2.961  0.000
     3C     0.05533  0.11588   1.110  2.834  0.000
     4C    -0.04565 -0.09214   1.082  2.964  0.000
     5C    -0.03961 -0.08569   1.078  2.961  0.000
     6C     0.05444  0.11841   1.101  2.845  0.000
     7N    -0.21537 -0.46696   1.314  3.901  0.000
     8C     0.00751  0.01289   1.087  2.905  0.000
     9C     0.00447 -0.00256   1.080  2.916  0.000
    10C    -0.03857 -0.09068   1.070  2.969  0.000
    11C     0.03050 -0.01469   1.102  2.867  0.000
    12N    -0.24108 -0.60099   1.303  3.938  0.000
    13C     0.03494  0.04674   1.095  2.870  0.000
    14C    -0.05760 -0.10610   1.044  3.014  0.000
    15C     0.05351  0.11679   1.099  2.847  0.000
    16C    -0.03961 -0.08563   1.077  2.962  0.000
    17C    -0.04177 -0.08734   1.081  2.961  0.000
    18N    -0.21063 -0.46215   1.316  3.894  0.000
    19C     0.06037  0.12552   1.114  2.825  0.000
    20C     0.00781  0.01472   1.072  2.920  0.000
    21C     0.06019  0.12531   1.114  2.825  0.000
    22C    -0.04189 -0.08745   1.081  2.960  0.000
    23C    -0.03967 -0.08568   1.077  2.962  0.000
    24C     0.05347  0.11673   1.099  2.847  0.000
    25N    -0.21067 -0.46214   1.317  3.894  0.000
    26C     0.00742  0.01280   1.087  2.905  0.000
    27C     0.00445 -0.00259   1.080  2.916  0.000
    28C    -0.03861 -0.09072   1.070  2.968  0.000
    29C     0.03048 -0.01470   1.102  2.867  0.000
    30N    -0.24115 -0.60096   1.303  3.938  0.000
    31C     0.03491  0.04671   1.095  2.870  0.000
    32C    -0.05754 -0.10603   1.044  3.014  0.000
    33C     0.05448  0.11847   1.101  2.845  0.000
    34C    -0.03957 -0.08566   1.078  2.961  0.000
    35C    -0.04562 -0.09211   1.082  2.964  0.000
    36C     0.05532  0.11586   1.110  2.834  0.000
    37N    -0.21538 -0.46699   1.314  3.901  0.000
    38H     0.01183  0.07081   0.988  0.000  0.000
    39H     0.01841  0.07502   0.982  0.000  0.000
    40H     0.01190  0.07073   0.988  0.000  0.000
    41H     0.01434  0.07222   0.986  0.000  0.000
    42H     0.01482  0.07845   0.985  0.000  0.000
    43H     0.02257  0.08462   0.977  0.000  0.000
    44H     0.16413  0.35715   0.836  0.000  0.000
    45H     0.03685  0.10236   0.963  0.000  0.000
    46H     0.00833  0.06666   0.992  0.000  0.000
    47H     0.01242  0.07171   0.988  0.000  0.000
    48H     0.01670  0.07489   0.983  0.000  0.000
    49H     0.01645  0.07456   0.984  0.000  0.000
    50H     0.01231  0.07157   0.988  0.000  0.000
    51H     0.01423  0.07211   0.986  0.000  0.000
    52H     0.01470  0.07830   0.985  0.000  0.000
    53H     0.02259  0.08463   0.977  0.000  0.000
    54H     0.16407  0.35701   0.836  0.000  0.000
    55H     0.03687  0.10237   0.963  0.000  0.000
    56H     0.00843  0.06676   0.992  0.000  0.000
    57H     0.01193  0.07077   0.988  0.000  0.000
    58H     0.01842  0.07503   0.982  0.000  0.000
    59Ni    0.25277  0.62393   0.575  0.794  8.378
    60C    -0.03469 -0.07601   1.074  2.961  0.000
    61C     0.05533  0.11588   1.110  2.834  0.000
    62C    -0.04565 -0.09214   1.082  2.964  0.000
    63C    -0.03961 -0.08569   1.078  2.961  0.000
    64C     0.05444  0.11841   1.101  2.845  0.000
    65N    -0.21536 -0.46697   1.314  3.901  0.000
    66C     0.00752  0.01289   1.087  2.905  0.000
    67C     0.00447 -0.00256   1.080  2.916  0.000
    68C    -0.03857 -0.09068   1.070  2.969  0.000
    69C     0.03050 -0.01469   1.102  2.867  0.000
    70N    -0.24108 -0.60099   1.303  3.938  0.000
    71C     0.03495  0.04674   1.095  2.870  0.000
    72C    -0.05760 -0.10610   1.044  3.014  0.000
    73C     0.05351  0.11678   1.099  2.847  0.000
    74C    -0.03961 -0.08562   1.077  2.962  0.000
    75C    -0.04178 -0.08735   1.081  2.961  0.000
    76N    -0.21063 -0.46214   1.316  3.894  0.000
    77C     0.06039  0.12555   1.114  2.825  0.000
    78C     0.00780  0.01471   1.072  2.920  0.000
    79C     0.06018  0.12530   1.114  2.825  0.000
    80C    -0.04190 -0.08746   1.081  2.960  0.000
    81C    -0.03967 -0.08568   1.077  2.962  0.000
    82C     0.05346  0.11672   1.099  2.847  0.000
    83N    -0.21068 -0.46215   1.317  3.894  0.000
    84C     0.00742  0.01280   1.087  2.905  0.000
    85C     0.00445 -0.00258   1.080  2.916  0.000
    86C    -0.03862 -0.09073   1.070  2.968  0.000
    87C     0.03048 -0.01471   1.102  2.867  0.000
    88N    -0.24116 -0.60098   1.303  3.938  0.000
    89C     0.03491  0.04671   1.095  2.870  0.000
    90C    -0.05754 -0.10604   1.044  3.014  0.000
    91C     0.05448  0.11847   1.101  2.845  0.000
    92C    -0.03957 -0.08566   1.078  2.961  0.000
    93C    -0.04562 -0.09211   1.082  2.964  0.000
    94C     0.05531  0.11586   1.110  2.834  0.000
    95N    -0.21539 -0.46699   1.314  3.901  0.000
    96H     0.01183  0.07081   0.988  0.000  0.000
    97H     0.01841  0.07502   0.982  0.000  0.000
    98H     0.01190  0.07073   0.988  0.000  0.000
    99H     0.01434  0.07222   0.986  0.000  0.000
   100H     0.01482  0.07845   0.985  0.000  0.000
   101H     0.02257  0.08462   0.977  0.000  0.000
   102H     0.16413  0.35716   0.836  0.000  0.000
   103H     0.03686  0.10236   0.963  0.000  0.000
   104H     0.00833  0.06666   0.992  0.000  0.000
   105H     0.01242  0.07171   0.988  0.000  0.000
   106H     0.01670  0.07490   0.983  0.000  0.000
   107H     0.01646  0.07456   0.984  0.000  0.000
   108H     0.01231  0.07157   0.988  0.000  0.000
   109H     0.01423  0.07211   0.986  0.000  0.000
   110H     0.01470  0.07831   0.985  0.000  0.000
   111H     0.02259  0.08463   0.977  0.000  0.000
   112H     0.16407  0.35704   0.836  0.000  0.000
   113H     0.03687  0.10237   0.963  0.000  0.000
   114H     0.00843  0.06676   0.992  0.000  0.000
   115H     0.01193  0.07077   0.988  0.000  0.000
   116H     0.01842  0.07503   0.982  0.000  0.000
   117C    -0.02771 -0.02941   1.090  2.938  0.000
   118C    -0.03287 -0.03361   1.062  2.971  0.000
   119C    -0.02883 -0.02892   1.076  2.953  0.000
   120C    -0.03058 -0.03059   1.076  2.955  0.000
   121C    -0.03059 -0.03059   1.076  2.955  0.000
   122C    -0.02882 -0.02891   1.076  2.953  0.000
   123C    -0.03286 -0.03360   1.062  2.971  0.000
   124C    -0.02772 -0.02943   1.090  2.938  0.000

Wiberg/Mayer (AO) data.
largest (>0.10) Wiberg bond orders for each atom

 ---------------------------------------------------------------------------
     #   Z sym  total        # sym  WBO       # sym  WBO       # sym  WBO
 ---------------------------------------------------------------------------
     1  28 Ni   3.325 --    18 N    0.716    25 N    0.716     7 N    0.715
                            37 N    0.715
     2   6 C    3.776 --    36 C    1.384     3 C    1.384    38 H    0.997
     3   6 C    3.945 --     2 C    1.384     7 N    1.256     4 C    1.205
     4   6 C    3.834 --     5 C    1.630     3 C    1.205    39 H    0.995
     5   6 C    3.828 --     4 C    1.630     6 C    1.214    40 H    1.001
     6   6 C    3.908 --     8 C    1.372     7 N    1.238     5 C    1.214
     7   7 N    2.997 --     3 C    1.256     6 C    1.238     1 Ni   0.715
     8   6 C    3.839 --     6 C    1.372    15 C    1.362     9 C    1.045
     9   6 C    3.877 --    10 C    1.803    14 C    1.119     8 C    1.045
    10   6 C    3.834 --     9 C    1.803    11 C    1.009    41 H    0.987
    11   6 C    3.937 --    10 C    1.009    42 H    0.988    43 H    0.981
                            12 N    0.966
    12   7 N    3.081 --    13 C    1.178    11 C    0.966    44 H    0.957
    13   6 C    3.941 --    14 C    1.710    12 N    1.178    45 H    0.980
    14   6 C    3.824 --    13 C    1.710     9 C    1.119    46 H    0.988
    15   6 C    3.895 --     8 C    1.362    18 N    1.231    16 C    1.228
    16   6 C    3.818 --    17 C    1.606    15 C    1.228    47 H    1.000
    17   6 C    3.823 --    16 C    1.606    19 C    1.236    48 H    1.000
    18   7 N    3.017 --    19 C    1.282    15 C    1.231     1 Ni   0.716
    19   6 C    3.913 --    18 N    1.282    20 C    1.280    17 C    1.236
    20   6 C    3.794 --    21 C    1.281    19 C    1.280   117 C    1.238
    21   6 C    3.913 --    25 N    1.282    20 C    1.281    22 C    1.236
    22   6 C    3.824 --    23 C    1.606    21 C    1.236    49 H    1.000
    23   6 C    3.816 --    22 C    1.606    24 C    1.228    50 H    1.000
    24   6 C    3.895 --    26 C    1.362    25 N    1.231    23 C    1.228
    25   7 N    3.017 --    21 C    1.282    24 C    1.231     1 Ni   0.716
    26   6 C    3.839 --    33 C    1.372    24 C    1.362    27 C    1.045
    27   6 C    3.877 --    28 C    1.803    32 C    1.119    26 C    1.045
    28   6 C    3.834 --    27 C    1.803    29 C    1.009    51 H    0.987
    29   6 C    3.937 --    28 C    1.009    52 H    0.988    53 H    0.981
                            30 N    0.966
    30   7 N    3.081 --    31 C    1.178    29 C    0.966    54 H    0.958
    31   6 C    3.941 --    32 C    1.710    30 N    1.178    55 H    0.980
    32   6 C    3.824 --    31 C    1.710    27 C    1.119    56 H    0.988
    33   6 C    3.908 --    26 C    1.372    37 N    1.239    34 C    1.214
    34   6 C    3.828 --    35 C    1.631    33 C    1.214    57 H    1.001
    35   6 C    3.834 --    34 C    1.631    36 C    1.205    58 H    0.995
    36   6 C    3.945 --     2 C    1.384    37 N    1.256    35 C    1.205
    37   7 N    2.997 --    36 C    1.256    33 C    1.239     1 Ni   0.715
    38   1 H    1.043 --     2 C    0.997
    39   1 H    1.030 --     4 C    0.995
    40   1 H    1.050 --     5 C    1.001
    41   1 H    1.054 --    10 C    0.987
    42   1 H    1.063 --    11 C    0.988
    43   1 H    1.017 --    11 C    0.981
    44   1 H    1.041 --    12 N    0.957
    45   1 H    1.028 --    13 C    0.980
    46   1 H    1.064 --    14 C    0.988
    47   1 H    1.052 --    16 C    1.000
    48   1 H    1.045 --    17 C    1.000
    49   1 H    1.045 --    22 C    1.000
    50   1 H    1.052 --    23 C    1.000
    51   1 H    1.054 --    28 C    0.987
    52   1 H    1.061 --    29 C    0.988
    53   1 H    1.017 --    29 C    0.981
    54   1 H    1.041 --    30 N    0.958
    55   1 H    1.028 --    31 C    0.980
    56   1 H    1.064 --    32 C    0.988
    57   1 H    1.050 --    34 C    1.001
    58   1 H    1.030 --    35 C    0.995
    59  28 Ni   3.325 --    83 N    0.716    76 N    0.716    65 N    0.715
                            95 N    0.715
    60   6 C    3.776 --    94 C    1.384    61 C    1.384    96 H    0.997
    61   6 C    3.945 --    60 C    1.384    65 N    1.256    62 C    1.205
    62   6 C    3.834 --    63 C    1.630    61 C    1.205    97 H    0.995
    63   6 C    3.828 --    62 C    1.630    64 C    1.214    98 H    1.001
    64   6 C    3.908 --    66 C    1.372    65 N    1.239    63 C    1.214
    65   7 N    2.997 --    61 C    1.256    64 C    1.239    59 Ni   0.715
    66   6 C    3.839 --    64 C    1.372    73 C    1.362    67 C    1.045
    67   6 C    3.877 --    68 C    1.803    72 C    1.119    66 C    1.045
    68   6 C    3.834 --    67 C    1.803    69 C    1.009    99 H    0.987
    69   6 C    3.937 --    68 C    1.009   100 H    0.988   101 H    0.981
                            70 N    0.966
    70   7 N    3.081 --    71 C    1.178    69 C    0.966   102 H    0.957
    71   6 C    3.941 --    72 C    1.710    70 N    1.178   103 H    0.980
    72   6 C    3.824 --    71 C    1.710    67 C    1.119   104 H    0.988
    73   6 C    3.895 --    66 C    1.362    76 N    1.231    74 C    1.228
    74   6 C    3.818 --    75 C    1.606    73 C    1.228   105 H    1.000
    75   6 C    3.823 --    74 C    1.606    77 C    1.236   106 H    1.000
    76   7 N    3.017 --    77 C    1.282    73 C    1.231    59 Ni   0.716
    77   6 C    3.913 --    76 N    1.282    78 C    1.280    75 C    1.236
    78   6 C    3.794 --    79 C    1.281    77 C    1.280   124 C    1.238
    79   6 C    3.913 --    83 N    1.282    78 C    1.281    80 C    1.236
    80   6 C    3.824 --    81 C    1.606    79 C    1.236   107 H    1.000
    81   6 C    3.816 --    80 C    1.606    82 C    1.228   108 H    1.000
    82   6 C    3.895 --    84 C    1.362    83 N    1.231    81 C    1.228
    83   7 N    3.017 --    79 C    1.282    82 C    1.231    59 Ni   0.716
    84   6 C    3.839 --    91 C    1.372    82 C    1.362    85 C    1.045
    85   6 C    3.877 --    86 C    1.803    90 C    1.119    84 C    1.045
    86   6 C    3.834 --    85 C    1.803    87 C    1.009   109 H    0.987
    87   6 C    3.937 --    86 C    1.009   110 H    0.988   111 H    0.981
                            88 N    0.966
    88   7 N    3.081 --    89 C    1.178    87 C    0.966   112 H    0.958
    89   6 C    3.941 --    90 C    1.710    88 N    1.178   113 H    0.980
    90   6 C    3.824 --    89 C    1.710    85 C    1.119   114 H    0.988
    91   6 C    3.908 --    84 C    1.372    95 N    1.239    92 C    1.214
    92   6 C    3.828 --    93 C    1.631    91 C    1.214   115 H    1.001
    93   6 C    3.834 --    92 C    1.631    94 C    1.205   116 H    0.995
    94   6 C    3.945 --    60 C    1.384    95 N    1.256    93 C    1.205
    95   7 N    2.997 --    94 C    1.256    91 C    1.239    59 Ni   0.715
    96   1 H    1.043 --    60 C    0.997
    97   1 H    1.030 --    62 C    0.995
    98   1 H    1.050 --    63 C    1.001
    99   1 H    1.054 --    68 C    0.987
   100   1 H    1.063 --    69 C    0.988
   101   1 H    1.017 --    69 C    0.981
   102   1 H    1.041 --    70 N    0.957
   103   1 H    1.028 --    71 C    0.980
   104   1 H    1.064 --    72 C    0.988
   105   1 H    1.052 --    74 C    1.000
   106   1 H    1.045 --    75 C    1.000
   107   1 H    1.045 --    80 C    1.000
   108   1 H    1.052 --    81 C    1.000
   109   1 H    1.054 --    86 C    0.987
   110   1 H    1.061 --    87 C    0.988
   111   1 H    1.017 --    87 C    0.981
   112   1 H    1.041 --    88 N    0.958
   113   1 H    1.028 --    89 C    0.980
   114   1 H    1.064 --    90 C    0.988
   115   1 H    1.050 --    92 C    1.001
   116   1 H    1.030 --    93 C    0.995
   117   6 C    3.747 --   118 C    2.438    20 C    1.238   120 C    0.158
   118   6 C    3.802 --   117 C    2.438   119 C    1.379
   119   6 C    3.795 --   120 C    2.318   118 C    1.379   122 C    0.153
   120   6 C    3.827 --   119 C    2.318   121 C    1.408   117 C    0.158
   121   6 C    3.827 --   122 C    2.318   120 C    1.408   124 C    0.158
   122   6 C    3.795 --   121 C    2.318   123 C    1.379   119 C    0.153
   123   6 C    3.802 --   124 C    2.438   122 C    1.379
   124   6 C    3.746 --   123 C    2.438    78 C    1.238   121 C    0.158
 ---------------------------------------------------------------------------

Topologies differ in total number of bonds
Writing topology from bond orders to xtbtopo.mol

 dipole moment from electron density (au)
     X       Y       Z   
 -39.0267   0.0137  -0.0952  total (Debye):   99.196


           -------------------------------------------------
          | TOTAL ENERGY             -240.957562130362 Eh   |
          | GRADIENT NORM               0.085392006661 Eh/α |
          | HOMO-LUMO GAP               0.265414642001 eV   |
           -------------------------------------------------
########################################################################
[WARNING] Runtime exception occurred
-1- restart_readRestart: Dimension missmatch in restart file.
########################################################################

------------------------------------------------------------------------
 * finished run on 2022/07/30 at 03:46:34.298     
------------------------------------------------------------------------
 total:
 * wall-time:     0 d,  0 h,  0 min,  8.973 sec
 *  cpu-time:     0 d,  0 h,  0 min,  8.897 sec
 * ratio c/w:     0.992 speedup
 SCF:
 * wall-time:     0 d,  0 h,  0 min,  8.526 sec
 *  cpu-time:     0 d,  0 h,  0 min,  8.456 sec
 * ratio c/w:     0.992 speedup

