320
 energy: -586.866976734798 gnorm: 3.733139687051 xtb: 6.5.1 (b24c23e)
C           66.16608500000000       -0.16671100000000       -0.32798800000000
C           66.87787700000000        1.18462100000000       -0.63590500000000
C           66.24250400000000        2.37642400000000       -0.90069900000000
C           67.25336200000000        3.34836200000000       -1.10911200000000
C           68.47501800000001        2.71607700000000       -0.96634700000000
N           68.23319700000000        1.39780800000000       -0.66888800000000
C           69.90315800000000        3.39448000000000       -1.09144300000000
C           69.94024400000001        4.81317700000000       -1.52270200000000
C           70.09761500000000        5.84728800000000       -0.59149000000000
C           70.08862000000001        7.17803200000000       -1.02129100000000
C           70.27726100000000        8.25170000000000       -0.01852300000000
O           69.86697100000001        9.45666900000000       -0.46837300000000
O           70.73951400000000        8.14372600000000        1.10101500000000
C           69.92209799999999        7.47586100000000       -2.38275400000000
C           69.77116900000000        6.44590100000000       -3.31204900000000
C           69.78056200000000        5.11955100000000       -2.88185500000000
C           71.03708899999998        2.69177800000000       -0.82794200000000
C           72.34581400000000        3.31158800000000       -0.88073800000000
C           73.25176300000000        2.40554100000000       -0.53255200000000
N           71.23699300000000        1.38172400000000       -0.47622400000000
C           72.57494499999999        1.14783100000000       -0.28119200000000
C           73.25699599999999        0.02255900000000        0.06330400000000
C           72.50850300000000       -1.36968700000000        0.23696600000000
C           73.11497199999998       -2.61150100000000        0.25871200000000
C           72.09982500000000       -3.58275800000000        0.42926400000000
C           70.89631699999998       -2.91256100000000        0.49380300000000
N           71.15192900000000       -1.56540700000000        0.36036900000000
C           69.47072500000000       -3.58659700000000        0.66592200000000
C           69.42198200000000       -5.01079300000000        1.06636800000000
C           69.43795600000000       -6.01761300000000        0.09164500000000
C           69.40324500000000       -7.36198000000000        0.46187300000000
C           69.34657100000000       -7.70616800000000        1.81315400000000
C           69.32828699999999       -6.70493700000000        2.79662600000000
C           69.25845400000000       -7.12063600000000        4.21674200000000
O           69.43887300000000       -6.10048000000000        5.07399500000000
O           69.07780800000000       -8.25786000000000        4.61895500000000
C           69.36903800000000       -5.35821700000000        2.42203900000000
C           68.34056499999998       -2.86691500000000        0.44700700000000
C           67.01242200000000       -3.44495600000000        0.56401400000000
C           66.12107800000000       -2.50139100000000        0.28097900000000
C           66.84255700000000       -1.28797300000000       -0.01708400000000
N           68.17156500000000       -1.55707600000000        0.09506700000000
H           65.08246500000000       -0.18678600000000       -0.36076600000000
H           65.17423800000000        2.53036700000000       -0.93512300000000
H           67.10577900000000        4.39344000000000       -1.33548000000000
H           68.94623400000000        0.69144100000000       -0.50444600000000
H           70.22302299999998        5.59741300000000        0.46039300000000
H           70.04213400000000       10.03279500000000        0.30337100000000
H           69.91871899999998        8.50618000000000       -2.72652300000000
H           69.64772200000000        6.66745200000000       -4.36778900000000
H           69.66184600000000        4.30570700000000       -3.59685500000000
H           72.56370600000000        4.33231700000000       -1.13767100000000
H           74.30902500000001        2.59113400000000       -0.47980900000000
H           74.17280599999999       -2.80614200000000        0.16124700000000
H           72.23501800000000       -4.65284700000000        0.48741100000000
H           70.43871100000000       -0.84126900000000        0.30679300000000
H           69.47704200000000       -5.73381900000000       -0.95836700000000
H           69.41992099999999       -8.13303900000000       -0.30358100000000
H           69.31674700000001       -8.75471200000000        2.09959900000000
H           69.36711300000000       -6.49919000000000        5.96207100000000
H           69.35228400000000       -4.56150200000000        3.16427700000000
H           66.78256100000000       -4.46165100000000        0.82921100000000
H           65.05244500000001       -2.61456200000000        0.27752400000000
C          116.48506100000000        0.03506300000000       -0.37118000000000
C          115.77326899999998       -1.32390400000000       -0.09893200000000
C          116.40864199999999       -2.51966800000000        0.14735600000000
C          115.39778500000000       -3.49175300000000        0.35508000000000
C          114.17612800000001       -2.85643200000000        0.22650100000000
N          114.41794899999999       -1.53191200000000       -0.04175400000000
C          112.74798799999999       -3.52659700000000        0.39007900000000
C          112.71090300000000       -4.99751800000000        0.57737100000000
C          112.55353099999999       -5.55981000000000        1.85030700000000
C          112.56252600000001       -6.94988800000000        2.00292400000000
C          112.37388500000000       -7.51897900000000        3.35734100000000
O          112.78417500000000       -8.80251000000000        3.44017700000000
O          111.91163200000000       -6.96217100000000        4.33457500000000
C          112.72904799999999       -7.77894900000000        0.88268200000000
C          112.87997799999999       -7.21966000000000       -0.38680500000000
C          112.87058399999999       -5.83343000000000       -0.53726500000000
C          111.61405699999999       -2.77760500000000        0.34283100000000
C          110.30533200000001       -3.36471500000000        0.54838800000000
C          109.39938299999999       -2.39552800000000        0.49516200000000
N          111.41415400000000       -1.43836700000000        0.12744300000000
C          110.07620199999998       -1.14513200000000        0.20963900000000
C          109.39414999999998        0.02255900000000        0.06330400000000
C          110.14264299999999        1.36389600000000       -0.34818300000000
C          109.53617399999999        2.50579500000000       -0.83669400000000
C          110.55132100000000        3.46176000000000       -1.07868200000000
C          111.75482899999999        2.87671000000000       -0.74544500000000
N          111.49921700000000        1.59298200000000       -0.31571400000000
C          113.18042199999998        3.56214200000000       -0.86433300000000
C          113.22916400000000        5.02546500000000       -1.08198800000000
C          113.21319000000000        5.54504600000000       -2.38345200000000
C          113.24790100000000        6.92316600000000       -2.59599800000000
C          113.30457500000000        7.79035600000000       -1.50402500000000
C          113.32285899999998        7.27945600000000       -0.19686600000000
C          113.39269200000000        8.24007000000000        0.92863700000000
O          113.21227399999999        7.66023400000000        2.12838400000000
O          113.57333800000001        9.44229200000000        0.83007000000000
C          113.28210799999999        5.89740500000000        0.01266700000000
C          114.31058199999998        2.81590800000000       -0.76945500000000
C          115.63872400000000        3.39119500000000       -0.89932900000000
C          116.53006800000000        2.41444800000000       -0.77130300000000
C          115.80858900000000        1.18534400000000       -0.54652100000000
N          114.47958100000000        1.47677600000000       -0.55435800000000
H          117.56868100000000        0.03996100000000       -0.40930400000000
H          117.47690799999999       -2.67421300000000        0.17896700000000
H          115.54536799999998       -4.53792000000000        0.57636300000000
H          113.70491199999999       -0.82012500000000       -0.18088100000000
H          112.42812399999998       -4.90123100000000        2.70772700000000
H          112.60901199999999       -9.01223000000000        4.38013900000000
H          112.73242799999998       -8.85970900000000        0.99081100000000
H          113.00342400000000       -7.85397600000000       -1.25934000000000
H          112.98930100000000       -5.38359500000000       -1.52276800000000
H          110.08744000000000       -4.40117800000000        0.73181700000000
H          108.34212100000001       -2.54326700000000        0.61925800000000
H          108.47834100000000        2.64348200000000       -1.00529600000000
H          110.41612800000000        4.46188300000000       -1.46368400000000
H          112.21243499999999        0.91036600000000       -0.06816100000000
H          113.17410400000000        4.85628600000000       -3.22528000000000
H          113.23122499999998        7.31331200000000       -3.61001800000000
H          113.33439900000000        8.86427800000000       -1.67191300000000
H          113.28403299999999        8.38754900000000        2.77542300000000
H          113.29886200000000        5.47434800000000        1.01600800000000
H          115.86858499999998        4.42736000000000       -1.07356600000000
H          117.59870100000001        2.51628900000000       -0.82078300000000
C           75.05377300000001        0.02255900000000        0.06330400000000
C           76.27569099999999        0.02255900000000        0.06330400000000
C           85.49433399999999        0.02255900000000        0.06330400000000
C           86.71625100000000        0.02255900000000        0.06330400000000
C           95.93489500000000        0.02255900000000        0.06330400000000
C           97.15681200000000        0.02255900000000        0.06330400000000
C          106.37545599999999        0.02255900000000        0.06330400000000
C          107.59737300000000        0.02255900000000        0.06330400000000
C           77.22125599999998       -0.01625200000000       -0.04560600000000
C           78.01700400000000        1.35027800000000       -0.14305200000000
C           77.51652400000000        2.56978500000000       -0.55177200000000
C           78.55534600000000        3.52469400000000       -0.40453500000000
C           79.65859199999998        2.85676000000000        0.08368600000000
N           79.34401699999999        1.52351000000000        0.16456600000000
C           81.04464200000000        3.50199800000000        0.49118400000000
C           81.02628600000000        4.89321400000000        0.99560400000000
C           81.40530000000000        5.96107100000000        0.17207300000000
C           81.37265900000000        7.27007900000000        0.66446300000000
C           81.77802400000000        8.37677000000000       -0.23523800000000
O           81.74982900000001        9.58167300000000        0.37082100000000
O           82.11177300000000        8.29330200000000       -1.40245100000000
C           80.95792099999998        7.51008200000000        1.98340200000000
C           80.57726700000001        6.44748300000000        2.80393000000000
C           80.61069000000001        5.14440100000000        2.30959000000000
C           82.18203200000001        2.76052300000000        0.44601800000000
C           83.46729600000000        3.28543600000000        0.85887300000000
C           84.37666499999999        2.32766000000000        0.71332600000000
N           82.39287100000000        1.46530400000000        0.06303900000000
C           83.71627700000001        1.14330300000000        0.20245300000000
C           84.37970999999999       -0.01625200000000       -0.04560600000000
C           83.58447400000000       -1.27427200000000       -0.58907500000000
C           84.08750300000000       -2.29223000000000       -1.37342700000000
C           83.04962900000000       -3.24300300000000       -1.54968500000000
C           81.94369300000000       -2.77240500000000       -0.87310500000000
N           82.25714499999999       -1.53976300000000       -0.35747500000000
C           80.55519000000000       -3.51477400000000       -0.70942500000000
C           80.56329299999999       -4.99459100000000       -0.75511300000000
C           80.12718199999999       -5.66691700000000       -1.90522300000000
C           80.14689500000000       -7.06011400000000       -1.96048700000000
C           80.60766200000000       -7.78964900000000       -0.86382900000000
C           81.04949999999999       -7.12675900000000        0.29092600000000
C           81.53093199999999       -7.94871100000000        1.42651800000000
O           81.92175500000000       -7.21574300000000        2.48260800000000
O           81.58729500000000       -9.16665700000000        1.45256600000000
C           81.02788399999999       -5.72891000000000        0.34287800000000
C           79.41948200000000       -2.79975900000000       -0.49691300000000
C           78.13237400000000       -3.43114800000000       -0.28918400000000
C           77.22356100000000       -2.47916400000000       -0.10686200000000
C           77.88556999999999       -1.19289600000000       -0.18905800000000
N           79.21087900000001       -1.45118900000000       -0.41610400000000
H           76.51127099999999        2.75824400000000       -0.89694500000000
H           78.49829900000000        4.58255100000000       -0.61195800000000
H           80.00156399999999        0.77818400000000        0.37466600000000
H           81.72634600000001        5.75282300000000       -0.84716400000000
H           82.04219999999999       10.17810000000000       -0.34858800000000
H           80.92686100000000        8.52055700000000        2.37995900000000
H           80.25474199999999        6.62659600000000        3.82492800000000
H           80.31648800000001        4.30718800000000        2.94031800000000
H           83.66282200000001        4.27662300000000        1.22657500000000
H           85.42121499999999        2.43209400000000        0.94369500000000
H           85.09403399999999       -2.35674100000000       -1.75810500000000
H           83.10891599999999       -4.17446000000000       -2.09218800000000
H           81.59859299999999       -0.90547200000000        0.08530500000000
H           79.76892200000000       -5.08478600000000       -2.75266300000000
H           79.80317700000001       -7.56855000000000       -2.85587200000000
H           80.62184100000000       -8.87550400000000       -0.91035700000000
H           82.21331200000000       -7.86923300000000        3.14662600000000
H           81.36637999999999       -5.19010000000000        1.22541400000000
H           77.93598500000000       -4.48816200000000       -0.27408500000000
H           76.17846500000000       -2.65370500000000        0.07294100000000
C           87.66181700000000       -0.01625200000000       -0.04560600000000
C           88.45756499999999        1.35027800000000       -0.14305200000000
C           87.95708500000001        2.56978500000000       -0.55177200000000
C           88.99590700000000        3.52469400000000       -0.40453500000000
C           90.09915300000000        2.85676000000000        0.08368600000000
N           89.78457800000000        1.52351000000000        0.16456600000000
C           91.48520300000000        3.50199800000000        0.49118400000000
C           91.46684700000000        4.89321400000000        0.99560400000000
C           91.84586100000000        5.96107100000000        0.17207300000000
C           91.81321900000000        7.27007900000000        0.66446300000000
C           92.21858500000000        8.37677000000000       -0.23523800000000
O           92.19038999999998        9.58167300000000        0.37082100000000
O           92.55233399999999        8.29330200000000       -1.40245100000000
C           91.39848200000000        7.51008200000000        1.98340200000000
C           91.01782799999999        6.44748300000000        2.80393000000000
C           91.05125099999998        5.14440100000000        2.30959000000000
C           92.62259299999999        2.76052300000000        0.44601800000000
C           93.90785700000001        3.28543600000000        0.85887300000000
C           94.81722600000001        2.32766000000000        0.71332600000000
N           92.83343200000000        1.46530400000000        0.06303900000000
C           94.15683799999998        1.14330300000000        0.20245300000000
C           94.82027100000001       -0.01625200000000       -0.04560600000000
C           94.02503500000000       -1.27427200000000       -0.58907500000000
C           94.52806400000000       -2.29223000000000       -1.37342700000000
C           93.49018999999998       -3.24300300000000       -1.54968500000000
C           92.38425400000000       -2.77240500000000       -0.87310500000000
N           92.69770600000000       -1.53976300000000       -0.35747500000000
C           90.99575100000000       -3.51477400000000       -0.70942500000000
C           91.00385400000000       -4.99459100000000       -0.75511300000000
C           90.56774299999999       -5.66691700000000       -1.90522300000000
C           90.58745599999999       -7.06011400000000       -1.96048700000000
C           91.04822199999998       -7.78964900000000       -0.86382900000000
C           91.49006099999998       -7.12675900000000        0.29092600000000
C           91.97149300000000       -7.94871100000000        1.42651800000000
O           92.36231599999999       -7.21574300000000        2.48260800000000
O           92.02785600000000       -9.16665700000000        1.45256600000000
C           91.46844500000000       -5.72891000000000        0.34287800000000
C           89.86004299999999       -2.79975900000000       -0.49691300000000
C           88.57293499999999       -3.43114800000000       -0.28918400000000
C           87.66412200000001       -2.47916400000000       -0.10686200000000
C           88.32613100000000       -1.19289600000000       -0.18905800000000
N           89.65143900000000       -1.45118900000000       -0.41610400000000
H           86.95183200000000        2.75824400000000       -0.89694500000000
H           88.93885999999999        4.58255100000000       -0.61195800000000
H           90.44212500000000        0.77818400000000        0.37466600000000
H           92.16690699999998        5.75282300000000       -0.84716400000000
H           92.48276100000000       10.17810000000000       -0.34858800000000
H           91.36742199999999        8.52055700000000        2.37995900000000
H           90.69530299999998        6.62659600000000        3.82492800000000
H           90.75704899999999        4.30718800000000        2.94031800000000
H           94.10338299999999        4.27662300000000        1.22657500000000
H           95.86177600000001        2.43209400000000        0.94369500000000
H           95.53459500000000       -2.35674100000000       -1.75810500000000
H           93.54947699999998       -4.17446000000000       -2.09218800000000
H           92.03915400000000       -0.90547200000000        0.08530500000000
H           90.20948300000001       -5.08478600000000       -2.75266300000000
H           90.24373799999998       -7.56855000000000       -2.85587200000000
H           91.06240199999999       -8.87550400000000       -0.91035700000000
H           92.65387300000000       -7.86923300000000        3.14662600000000
H           91.80694099999999       -5.19010000000000        1.22541400000000
H           88.37654600000000       -4.48816200000000       -0.27408500000000
H           86.61902600000001       -2.65370500000000        0.07294100000000
C           98.10237799999999       -0.01625200000000       -0.04560600000000
C           98.89812600000000        1.35027800000000       -0.14305200000000
C           98.39764599999999        2.56978500000000       -0.55177200000000
C           99.43646800000000        3.52469400000000       -0.40453500000000
C          100.53971399999999        2.85676000000000        0.08368600000000
N          100.22513900000000        1.52351000000000        0.16456600000000
C          101.92576400000000        3.50199800000000        0.49118400000000
C          101.90740800000000        4.89321400000000        0.99560400000000
C          102.28642200000000        5.96107100000000        0.17207300000000
C          102.25378000000001        7.27007900000000        0.66446300000000
C          102.65914600000001        8.37677000000000       -0.23523800000000
O          102.63095100000000        9.58167300000000        0.37082100000000
O          102.99289500000000        8.29330200000000       -1.40245100000000
C          101.83904300000000        7.51008200000000        1.98340200000000
C          101.45838900000000        6.44748300000000        2.80393000000000
C          101.49181200000000        5.14440100000000        2.30959000000000
C          103.06315400000000        2.76052300000000        0.44601800000000
C          104.34841800000000        3.28543600000000        0.85887300000000
C          105.25778699999998        2.32766000000000        0.71332600000000
N          103.27399300000000        1.46530400000000        0.06303900000000
C          104.59739900000000        1.14330300000000        0.20245300000000
C          105.26083199999998       -0.01625200000000       -0.04560600000000
C          104.46559600000001       -1.27427200000000       -0.58907500000000
C          104.96862500000000       -2.29223000000000       -1.37342700000000
C          103.93075100000000       -3.24300300000000       -1.54968500000000
C          102.82481500000000       -2.77240500000000       -0.87310500000000
N          103.13826700000000       -1.53976300000000       -0.35747500000000
C          101.43631100000000       -3.51477400000000       -0.70942500000000
C          101.44441499999999       -4.99459100000000       -0.75511300000000
C          101.00830399999998       -5.66691700000000       -1.90522300000000
C          101.02801700000001       -7.06011400000000       -1.96048700000000
C          101.48878300000000       -7.78964900000000       -0.86382900000000
C          101.93062200000000       -7.12675900000000        0.29092600000000
C          102.41205399999998       -7.94871100000000        1.42651800000000
O          102.80287700000000       -7.21574300000000        2.48260800000000
O          102.46841700000000       -9.16665700000000        1.45256600000000
C          101.90900599999999       -5.72891000000000        0.34287800000000
C          100.30060400000001       -2.79975900000000       -0.49691300000000
C           99.01349600000000       -3.43114800000000       -0.28918400000000
C           98.10468299999999       -2.47916400000000       -0.10686200000000
C           98.76669199999999       -1.19289600000000       -0.18905800000000
N          100.09200000000000       -1.45118900000000       -0.41610400000000
H           97.39239300000000        2.75824400000000       -0.89694500000000
H           99.37942099999999        4.58255100000000       -0.61195800000000
H          100.88268600000001        0.77818400000000        0.37466600000000
H          102.60746800000000        5.75282300000000       -0.84716400000000
H          102.92332200000000       10.17810000000000       -0.34858800000000
H          101.80798299999999        8.52055700000000        2.37995900000000
H          101.13586400000000        6.62659600000000        3.82492800000000
H          101.19761000000000        4.30718800000000        2.94031800000000
H          104.54394400000000        4.27662300000000        1.22657500000000
H          106.30233699999998        2.43209400000000        0.94369500000000
H          105.97515600000000       -2.35674100000000       -1.75810500000000
H          103.99003800000000       -4.17446000000000       -2.09218800000000
H          102.47971499999998       -0.90547200000000        0.08530500000000
H          100.65004399999999       -5.08478600000000       -2.75266300000000
H          100.68429900000000       -7.56855000000000       -2.85587200000000
H          101.50296299999999       -8.87550400000000       -0.91035700000000
H          103.09443399999999       -7.86923300000000        3.14662600000000
H          102.24750199999998       -5.19010000000000        1.22541400000000
H           98.81710600000000       -4.48816200000000       -0.27408500000000
H           97.05958699999998       -2.65370500000000        0.07294100000000
320
 energy: -588.080354937974 gnorm: 0.916940344392 xtb: 6.5.1 (b24c23e)
C           66.17287353930037       -0.15412397846884       -0.33090218325409
C           66.87462227191598        1.17546247053935       -0.63365866507912
C           66.24383054765700        2.37946401023788       -0.90142193200859
C           67.25122717400819        3.34747484104596       -1.10907290670524
C           68.48394541531569        2.71908878829599       -0.96692401634375
N           68.23321335172957        1.39797003814486       -0.66897901983774
C           69.89127809268854        3.38761989247458       -1.09021939487113
C           69.93865722746503        4.81223591935224       -1.52243572883343
C           70.09779785098745        5.84624441503710       -0.59256798644477
C           70.08905358194517        7.17710860495224       -1.02165167106781
C           70.27750284670283        8.25241486955000       -0.01771198376829
O           69.86794241722035        9.45622353312283       -0.46618263321825
O           70.73830464529864        8.14246481763176        1.09813865218850
C           69.92196694357401        7.47495979521849       -2.38281368114456
C           69.77146675993636        6.44557471940239       -3.31059010522044
C           69.78036938621078        5.11980385638759       -2.88121869256879
C           71.03954177578147        2.68998701344656       -0.82740234196519
C           72.34633202698808        3.31444152319981       -0.88130008522358
C           73.25455495306379        2.40613021422163       -0.53271471224146
N           71.23580319943378        1.37827362185926       -0.47474221847327
C           72.57475085097636        1.15075333364003       -0.28145797028325
C           73.26529808484351        0.00952479643111        0.06340605823353
C           72.51374468494373       -1.36113218458095        0.23558317929398
C           73.11399408837144       -2.61344723748664        0.25948385906511
C           72.10193555886963       -3.58183334027089        0.42924373829235
C           70.88745203291973       -2.91524247236509        0.49467598287579
N           71.15259524943221       -1.56528056988518        0.36019270370711
C           69.48285281927684       -3.57989237596772        0.66454434901566
C           69.42339076516194       -5.01034185703743        1.06609059321755
C           69.43803735382997       -6.01761650199295        0.09227881345348
C           69.40318064097832       -7.36109219147713        0.46286422206548
C           69.34651177590150       -7.70558497809172        1.81211080308654
C           69.32805638135144       -6.70555213822352        2.79554000385192
C           69.25864498774071       -7.12203884288932        4.21759026267044
O           69.43832599776702       -6.10207264329286        5.07439933929734
O           69.07823238570155       -8.25482451443942        4.61716218173186
C           69.36912713264007       -5.35813287343548        2.42104689094298
C           68.33801759634123       -2.86492360689562        0.44680555271978
C           67.01186173512063       -3.44800876338319        0.56479816795734
C           66.11857701077383       -2.50271668875777        0.28124530079161
C           66.84443683413907       -1.29045657141877       -0.01645686880370
N           68.17468213113409       -1.55481148086509        0.09461154274180
H           65.08429899556747       -0.18510073012342       -0.36106628183389
H           65.17477405490345        2.53078223363289       -0.93524439454349
H           67.10553352657125        4.39311129256964       -1.33543852159642
H           68.94588767169544        0.69186570827389       -0.50451550887987
H           70.22295790940835        5.59809379572215        0.45981408054447
H           70.04154052998484       10.03399223971222        0.30210317178362
H           69.91873300243260        8.50580909697042       -2.72599889924834
H           69.64781292113966        6.66753407891373       -4.36718848105399
H           69.66189382601831        4.30641556592698       -3.59639639088346
H           72.56301298432410        4.33364200124358       -1.13804390436354
H           74.31039026943144        2.59026643394342       -0.47939695620098
H           74.17225025171510       -2.80624432421156        0.16142733329963
H           72.23524606070967       -4.65238746428234        0.48740200982656
H           70.43932377588786       -0.84172496236825        0.30683564215551
H           69.47706201257859       -5.73414979798802       -0.95776490057253
H           69.41988183730858       -8.13268147157556       -0.30303588651156
H           69.31674125785052       -8.75403859601697        2.09987598953209
H           69.36731310234504       -6.49825755304035        5.96217577031996
H           69.35233963032591       -4.56244025852188        3.16405817577487
H           66.78318169186008       -4.46296445145638        0.82957829028710