124
 energy: -210.412933265763 gnorm: 0.000574356386 xtb: 6.5.1 (b24c23e)
Fe          11.37672267404549       -0.01971713691128       -0.01489709706479
C            7.99149473677537       -0.05204466971240       -0.14624277968472
C            8.64463412132718       -1.26199480207857       -0.03156720862433
C            7.97133156462444       -2.52185785609426        0.06591969115337
C            8.93130480763589       -3.47664733072522        0.05296769578318
C           10.19020506044438       -2.79848816674573       -0.06590275041388
N           10.00242334487315       -1.44219727819024       -0.07246183522477
C           11.41311026945305       -3.44406787059778       -0.21019035218602
C           11.43342526431546       -4.92246991409198       -0.30659698382545
C           10.80627042234939       -5.56931314994032       -1.30279378703400
C           10.80507897421397       -7.06882497983203       -1.42791350911696
N           11.78787889535995       -7.68067845878499       -0.53289695419775
C           12.28359319716179       -7.01424063535568        0.55056927609387
C           12.16779022273170       -5.67972965625389        0.69288781876717
C           12.62028098709447       -2.76056518603098       -0.27391994802497
C           13.88859056335913       -3.39522743254092       -0.47639743137375
C           14.82982315210009       -2.42428167060705       -0.39331908423091
N           12.78596727377384       -1.40618162340862       -0.11208829802060
C           14.13414415146358       -1.19991882817815       -0.14772875931008
C           14.78311242160012        0.01420673981375        0.10323901774425
C           14.09453661041060        1.21385484891803        0.31341902061868
C           14.74685137996696        2.45010488958718        0.61237635282860
C           13.78242177750505        3.40143805165615        0.63706780089064
C           12.54417056412150        2.74334004560817        0.34302818919882
N           12.74792350664683        1.39345588512920        0.18688395776898
C           11.33202938620706        3.40398906420606        0.19090250784180
C           11.31474489220336        4.88218013101741        0.29097659172244
C           10.59676968507563        5.51334782825958        1.23455878939401
C           10.55212348815832        7.01235004199110        1.35869713877888
N           11.59078741537103        7.64698335998119        0.54651538398423
C           12.18498998244880        6.99385332337614       -0.49473532594614
C           12.10927555599583        5.65751235144657       -0.64673033411545
C           10.13660062101707        2.73575911164214       -0.04991281640407
C            8.87816817568380        3.39028636957640       -0.26696686996499
C            7.94071230413577        2.41751320321302       -0.35775639613186
C            8.62817186942539        1.17035071410565       -0.20900908064827
N            9.97483994299859        1.37631554829902       -0.06078713739416
H            6.90805757733679       -0.06256850415147       -0.18905390044869
H            6.90147353264469       -2.64057107247383        0.13514518153114
H            8.81062702299320       -4.54569688622939        0.12176218729521
H           10.25881146042549       -5.03621341152770       -2.07125797649999
H           11.04899881326643       -7.36364861100074       -2.45845123417067
H            9.79823868757697       -7.46840950567142       -1.20701272087372
H           11.73807425760016       -8.68651147897398       -0.47475445350813
H           12.83604263286892       -7.63196153365308        1.25127579207598
H           12.60353802244630       -5.16562052398242        1.53760863355540
H           14.03026420999619       -4.44806467688682       -0.65931943759613
H           15.90027598513499       -2.51444596206180       -0.48530136118132
H           15.80667241180799        2.55969639521177        0.77778966639515
H           13.88949590037040        4.45544579094561        0.83619998039016
H           10.00149806393721        4.96727996787799        1.95696980579660
H           10.70447764280306        7.31124134746692        2.40554713707406
H            9.55784717886895        7.38960173861541        1.05616153998316
H           11.52515124452265        8.65175818674426        0.48583838980754
H           12.77805920675479        7.62471951047069       -1.14899590599614
H           12.62126840407149        5.15515177298900       -1.45497486117462
H            8.74226559205208        4.45696442286976       -0.34369700976808
H            6.87757663055266        2.51595166172844       -0.51130265083589
Fe          29.92675688768923        0.01908714224994       -0.01074826257710
C           33.31194197235010        0.08013236534226       -0.13218107166391
C           32.65838183603336        1.23695358830200        0.23978600920883
C           33.33121607094201        2.44668088048676        0.60573210312053
C           32.37087456069703        3.38157852339879        0.79824039243249
C           31.11223329472252        2.74433623317654        0.53634588523189
N           31.30052018871996        1.42119657095561        0.23852927797480
C           29.88914008994125        3.40549878468748        0.53383086665885
C           29.86845418848277        4.87017932283478        0.75671463826205
C           30.49550680335641        5.71561541468926       -0.07766399310321
C           30.49663800595660        7.20707045061431        0.12162897548500
N           29.51376305882205        7.61273562905052        1.12696643980947
C           29.01799406650581        6.72945921214800        2.04229029216102
C           29.13391160909812        5.39547043768753        1.89522359284441
C           28.68222180279545        2.75124649512843        0.32467066958456
C           27.41367434503183        3.41409023962499        0.26299107486260
C           26.47283259929887        2.44758052678502        0.13568523108187
N           28.51706663477583        1.39361025006275        0.19201765952079
C           27.16900800411448        1.19927885599643        0.11289163345745
C           26.52040395617930       -0.04061820890256        0.09741333893858
C           27.20940007688370       -1.25717093298497        0.04513818490196
C           26.55755966223808       -2.52899656969500        0.07164794744959
C           27.52234291805373       -3.46308323922913       -0.10852393523831
C           28.76033838399851       -2.75676880505854       -0.25437125625305
N           28.55609628029591       -1.40488449517567       -0.11705333067675
C           29.97269859955376       -3.36896599799016       -0.54473031277568
C           29.99032855357991       -4.83414947361490       -0.76449010749965
C           30.70847477664451       -5.65321999254922        0.02138032195058
C           30.75301460492539       -7.14392906194844       -0.17921371095391
N           29.71427330542493       -7.58934386243385       -1.10864032064394
C           29.11996847736614       -6.72786779154838       -1.98527297255045
C           29.19573018166888       -5.39006377430387       -1.84676781289197
C           31.16789529987522       -2.66421530903477       -0.63637950558338
C           32.42657718604070       -3.25643042988979       -0.98875273144043
C           33.36362338974539       -2.28643204150437       -0.86876092067078
C           32.67567774200349       -1.10050419843321       -0.45590274687641
N           31.32908943804311       -1.33401775843127       -0.35534813672997
H           34.39536520284013        0.10003475532915       -0.17185385557245
H           34.40102760069043        2.54816901389554        0.69891426035832
H           32.49108435391331        4.41090777385696        1.09520920676965
H           31.04302530228498        5.35964316927223       -0.94250455452070
H           30.25278186743983        7.71601605548487       -0.82173021455039
H           31.50345445680425        7.54999983352469        0.42315497356372
H           29.56357351321892        8.58269133220635        1.39948864991718
H           28.46542257323224        7.18259216602896        2.85905607844777
H           28.69810913067162        4.71218462249597        2.61001883782259
H           27.27154623914276        4.48159143416727        0.31029094408431
H           25.40235790942008        2.55504073154807        0.06508059174863
H           25.49777770247879       -2.67188434929102        0.20965753188103
H           27.41563967018302       -4.53530229542082       -0.14031626490109
H           31.30383954561017       -5.27508156790724        0.84416538409135
H           30.60065621159503       -7.66054879049968        0.77908831398185
H           31.74724283601906       -7.44754515828639       -0.55571461433866
H           29.77962453132788       -8.55772085715483       -1.38345039692418
H           28.52680517105160       -7.20351280490168       -2.75967690722845
H           28.68369097489729       -4.72587558770385       -2.52826047369927
H           32.56292758000513       -4.28178380780741       -1.29242574153057
H           34.42679561228657       -2.34918547134348       -1.03979382969896
C           16.18537816986779        0.02515497934314        0.14321071407257
C           17.41045285871871        0.01819944185757        0.16727832446574
C           18.75195671505611        0.00764419838253        0.18448863063815
C           19.98338528140829       -0.01158223985819        0.19002986037609
C           21.32015883993046       -0.03038902764077        0.18838274126336
C           22.55155109880414       -0.04840334824400        0.17831577003341
C           23.89303884745253       -0.05637328429956        0.15826429948592
C           25.11813761165772       -0.06016338762730        0.13374203766638
