124
 energy: -210.100373541713 gnorm: 0.919451085164 xtb: 6.5.1 (b24c23e)
Fe          11.28909400000000        0.03002600000000       -0.00221600000000
C            7.95455000000000       -0.09613900000000       -0.04387500000000
C            8.61544200000000       -1.25753800000000       -0.04310700000000
C            7.96355700000000       -2.56022000000000        0.00728900000000
C            8.90225100000000       -3.48710900000000       -0.04756600000000
C           10.20713600000000       -2.81910200000000       -0.14681900000000
N           10.03153800000000       -1.40171500000000       -0.13244100000000
C           11.39757400000000       -3.44530700000000       -0.26168200000000
C           11.44881700000000       -4.92595600000000       -0.31096100000000
C           10.97811500000000       -5.58661000000000       -1.37977500000000
C           10.96725500000000       -7.09225000000000       -1.45396700000000
N           11.77091600000000       -7.70971300000000       -0.39584100000000
C           12.21766900000000       -6.98143000000000        0.75248700000000
C           12.06848600000000       -5.66008000000000        0.80911800000000
C           12.68796500000000       -2.71076300000000       -0.33886900000000
C           13.96824500000000       -3.34029600000000       -0.68634400000000
C           14.90275000000000       -2.41282800000000       -0.62606600000000
N           12.83373500000000       -1.44765700000000       -0.07962000000000
C           14.22675100000000       -1.18062600000000       -0.24025500000000
C           14.82276200000000       -0.00094800000000       -0.00066300000000
C           14.05873900000000        1.20833300000000        0.37467600000000
C           14.58287200000000        2.26993900000000        0.97460600000000
C           13.54076300000000        3.27579000000000        1.05793300000000
C           12.45083200000000        2.76205200000000        0.49818000000000
N           12.68897800000000        1.43020800000000        0.04061700000000
C           11.17970700000000        3.50281000000000        0.29756600000000
C           11.21892700000000        4.98670500000000        0.30289700000000
C           10.54226000000000        5.68514300000000        1.22991100000000
C           10.51783100000000        7.19220000000000        1.24118900000000
N           11.52462000000000        7.77532400000000        0.35059900000000
C           12.20090300000000        7.00693300000000       -0.65045800000000
C           12.06234300000000        5.68360500000000       -0.68835000000000
C           10.01836300000000        2.85441500000000        0.08401400000000
C            8.71692400000000        3.46740700000000       -0.17745000000000
C            7.85361700000000        2.47315500000000       -0.26184200000000
C            8.59551700000000        1.22822100000000       -0.06974300000000
N            9.85752900000000        1.43829700000000        0.13252800000000
H            6.87132400000000       -0.12113000000000       -0.02906100000000
H            6.90066100000000       -2.75124900000000        0.08041500000000
H            8.71292000000000       -4.55185200000000       -0.02476300000000
H           10.53108700000000       -5.03653500000000       -2.20001500000000
H           11.36455700000000       -7.40833900000000       -2.44222300000000
H            9.91873700000000       -7.44628600000000       -1.36536800000000
H           11.92173100000000       -8.74260600000000       -0.42259700000000
H           12.69941200000000       -7.50623900000000        1.56801400000000
H           12.42768300000000       -5.11805800000000        1.67616300000000
H           14.13564700000000       -4.37691600000000       -0.94848800000000
H           15.95389800000000       -2.56788800000000       -0.82739800000000
H           15.60430200000000        2.38346000000000        1.31291000000000
H           13.64475200000000        4.27101700000000        1.47107700000000
H            9.94265000000000        5.16305600000000        1.96655700000000
H           10.70278100000000        7.54558600000000        2.27728200000000
H            9.51017100000000        7.53574900000000        0.92568100000000
H           11.66729800000000        8.80912800000000        0.36675900000000
H           12.84172100000000        7.50407100000000       -1.36798100000000
H           12.59077300000000        5.11295900000000       -1.44262700000000
H            8.47877500000000        4.51726800000000       -0.28511800000000
H            6.79119300000000        2.57555700000000       -0.44336700000000
Fe          30.00928800000000       -0.03086700000000       -0.00882900000000
C           33.34383100000000        0.10130000000000       -0.02243600000000
C           32.68294000000000        1.23546600000000        0.22759600000000
C           33.33482400000000        2.49696900000000        0.55642600000000
C           32.39613000000000        3.41403000000000        0.70179700000000
C           31.09124500000000        2.78289500000000        0.46147600000000
N           31.26684400000000        1.39545700000000        0.17129100000000
C           29.90080800000000        3.41916000000000        0.48369900000000
C           29.84956499999999        4.87587700000000        0.75337500000000
C           30.32026700000000        5.75054400000000       -0.14872600000000
C           30.33112700000000        7.23701600000000        0.10198200000000
N           29.52746600000000        7.61297200000000        1.26797900000000
C           29.08071199999999        6.65518600000000        2.23322500000000
C           29.22989500000000        5.35247700000000        2.00492100000000
C           28.61041700000000        2.71830300000000        0.25064800000000
C           27.33013600000000        3.40774600000000        0.04639500000000
C           26.39563200000000        2.48895600000000       -0.09380400000000
N           28.46464700000000        1.42899100000000        0.23274200000000
C           27.07163100000000        1.20266200000000        0.01853500000000
C           26.47562000000000       -0.00094800000000       -0.00066300000000
C           27.23964300000000       -1.26260700000000        0.10636800000000
C           26.71551000000000       -2.42823900000000        0.46445200000000
C           27.75761900000000       -3.42853200000000        0.32994200000000
C           28.84755000000000       -2.80662200000000       -0.10649700000000
N           28.60940300000000       -1.40760800000000       -0.26752800000000
C           30.11867500000000       -3.48705600000000       -0.46143200000000
C           30.07945400000000       -4.93751100000000       -0.77472800000000
C           30.75612100000000       -5.81864500000000       -0.01923200000000
C           30.78055000000000       -7.29299700000000       -0.33169200000000
N           29.77376200000000       -7.67137500000000       -1.32668700000000
C           29.09747900000000       -6.70602600000000       -2.13948500000000
C           29.23603900000000       -5.40540700000000       -1.89245500000000
C           31.28001900000000       -2.80793600000000       -0.53083500000000
C           32.58145700000000       -3.35052100000000       -0.91777800000000
C           33.44476400000000       -2.36132800000000       -0.78679600000000
C           32.70286500000000       -1.18664100000000       -0.33196200000000
N           31.44085200000000       -1.43523700000000       -0.17949600000000
H           34.42705800000000        0.12252900000000       -0.00260300000000
H           34.39772100000000        2.66785000000000        0.66885000000000
H           32.58546200000000        4.44906300000000        0.95260500000000
H           30.76729500000000        5.38934500000000       -1.06791600000000
H           29.93382500000000        7.75785700000000       -0.79539600000000
H           31.37964500000000        7.56378400000000        0.26450700000000
H           29.37665100000000        8.62753500000000        1.46354700000000
H           28.59896900000000        6.99271900000000        3.14238900000000
H           28.87069899999999        4.63698500000000        2.73541800000000
H           27.16273500000000        4.47647200000000        0.01286000000000
H           25.34448400000000        2.68361600000000       -0.25716200000000
H           25.69408000000000       -2.61172800000000        0.77050600000000
H           27.65363000000000       -4.48924100000000        0.51984000000000
H           31.35573200000000       -5.46683900000000        0.81230600000000
H           30.59560000000000       -7.86053500000000        0.60440200000000
H           31.78821000000000       -7.56081900000000       -0.71358600000000
H           29.63108400000000       -8.68455300000000       -1.53279900000000
H           28.45666100000000       -7.03756800000000       -2.94699100000000
H           28.70760900000000       -4.68616200000000       -2.50666900000000
H           32.81960700000000       -4.35280300000000       -1.24827900000000
H           34.50718900000000       -2.42238100000000       -0.98607000000000
C           16.15275000000000        0.01374200000000        0.00961300000000
C           17.61097600000000       -0.00809400000000       -0.00826000000000
C           18.74490399999999       -0.02884800000000       -0.00975100000000
C           20.10628600000000       -0.04143800000000       -0.01194200000000
C           21.38050500000000       -0.03113100000000       -0.01670700000000
C           22.56896700000000       -0.01233300000000       -0.02286400000000
C           23.92132800000000        0.01245100000000       -0.00699600000000
C           25.02159500000000        0.01374200000000        0.00961300000000
124
 energy: -210.300188384885 gnorm: 0.340421131356 xtb: 6.5.1 (b24c23e)
Fe          11.29957170304124        0.02034955021453       -0.00279037352055
C            7.95554896927554       -0.07921254660228       -0.04516770027564
C            8.62224078341715       -1.25616064025241       -0.04352156558416
C            7.96483830631619       -2.55159638487620        0.00748041340711
C            8.91467789714296       -3.48693462933080       -0.04843591844555
C           10.20833421211488       -2.80932568401288       -0.14604331905367
N           10.02070642874778       -1.40883620317230       -0.12627719519736
C           11.41411022878481       -3.44068451962292       -0.26086700635387
C           11.45529546419853       -4.92363172028127       -0.30987780415585
C           10.97795369634362       -5.58748952322575       -1.37245202374499
C           10.97008731106764       -7.09429394785745       -1.44928459641024
N           11.77914731649555       -7.70700838882576       -0.38613518926616
C           12.21139488039218       -6.98626466987572        0.73871971652729
C           12.06729620484613       -5.65479991066040        0.80361979057359
C           12.67902231318088       -2.72899172194616       -0.33903720821693
C           13.95046360301667       -3.35449922915869       -0.68400812412276
C           14.89614936370505       -2.40678374176645       -0.62405491693069
N           12.83873895785760       -1.44052081040352       -0.09167853781914
C           14.21617731981287       -1.19121636176181       -0.24410107691798
C           14.83001297495657        0.01239919586706        0.00715844807399
C           14.04644709343829        1.20603147493515        0.36398871345875
C           14.58337269151737        2.29043180892457        0.97933100489014
C           13.55856647482835        3.27911211113689        1.05906796530910
C           12.44165213185050        2.75244443942805        0.48488428414879
N           12.68258375959800        1.42413204775527        0.05869787613920
C           11.19447540989641        3.49335975778361        0.29401095363467
C           11.22812658164080        4.98016790123112        0.30354658613704
C           10.54422220939907        5.68353345771751        1.22144750159229
C           10.52214202715332        7.19292538825761        1.23710928111825
N           11.53460581632141        7.77187268876684        0.34283877854073
C           12.19115156444355        7.01154057972337       -0.63856925124248
C           12.05979952263024        5.67770445693712       -0.68313959893800
C           10.01950270299118        2.85031983057963        0.08333364434384
C            8.72544954259193        3.46443589855212       -0.17544262476345
C            7.84423682630489        2.46036148551565       -0.26030883587358
C            8.57864413562084        1.21917524470638       -0.06949187746896
N            9.86261224508658        1.44122778236106        0.12211742733764
H            6.87196982051689       -0.11425171230105       -0.03004514531987
H            6.90190844604474       -2.74110086832278        0.08031993488963
H            8.72604667072791       -4.55169855713868       -0.02545126025397
H           10.53295879948817       -5.04240632170332       -2.19985337314512
H           11.36210399169989       -7.41025920435805       -2.43543996738436
H            9.92230841908544       -7.44815706390630       -1.36859049394953
H           11.91846246871052       -8.72280502304030       -0.41871219207827
H           12.69479037176978       -7.51606469658284        1.55526307159198
H           12.42553457216828       -5.11569079785537        1.67274899290825
H           14.12483518043590       -4.38403982800185       -0.94778749580135
H           15.94990561801088       -2.55592874979456       -0.82435005290822
H           15.60383321965971        2.38879413296721        1.31605705110980
H           13.65024135142504        4.27077349205693        1.47382658302069
H            9.94447427351093        5.16859252213858        1.96627065123142
H           10.70175397883170        7.54728605490362        2.27029261435806
H            9.51356272932107        7.53716889766970        0.92932609627147
H           11.66482627494407        8.78908699934035        0.36328512262654
H           12.83443446270633        7.51391108421023       -1.35651019967189
H           12.58832760110456        5.11050481573177       -1.43972772455826
H            8.49056811649536        4.51516606997110       -0.28334208262863
H            6.78693574430762        2.56673112008666       -0.44349695487743
Fe          29.99958380921601       -0.02158867576500       -0.00715975769153
C           33.34288368663398        0.08486054064562       -0.02733252552755
C           32.67607157342578        1.23404666479126        0.22689776741599
C           33.33341994439412        2.48851514730750        0.55474695743441
C           32.38382531929516        3.41414144455889        0.70094915126697
C           31.08989867677658        2.77354906997027        0.46025569009500
N           31.27800249501041        1.40141764075043        0.17808052634781
C           29.88525336992527        3.41498028276435        0.48385361508602
C           29.84310556430911        4.87367958760359        0.75399328609307
C           30.32037457318844        5.74996792561843       -0.14141399676901
C           30.32832652687251        7.23806485875463        0.10699908676094
N           29.51922269071825        7.60826479925028        1.27687220093119
C           29.08694171511208        6.66292750264582        2.22085095809976
C           29.23102767512103        5.34858686373659        1.99841634294783
C           28.62062089397448        2.73542368989788        0.25452158747362
C           27.34587365847602        3.42001199413594        0.05129067779230
C           26.40203486510816        2.48267250087562       -0.09246304057163
N           28.46657042027370        1.42734579828281        0.21891245430513
C           27.08840665934618        1.20957805210962        0.01746466395364
C           26.50835679183103       -0.01227431630524        0.00379331936378
C           27.25601428900230       -1.25529552318190        0.09626557673157
C           26.71483984232931       -2.44902351055050        0.46343646142476
C           27.73888102679080       -3.43165995558668        0.33067787613238
C           28.85702268135948       -2.79459615628721       -0.11735651172997
N           28.61856619882774       -1.40631770728122       -0.24823169904196
C           30.10380930853388       -3.47717066074352       -0.46299533045555
C           30.07019859535357       -4.93139949216184       -0.77262533870657
C           30.75411659896374       -5.81530813547881       -0.02711468273107
C           30.77626801093135       -7.29285041032416       -0.33584207416950
N           29.76378195618824       -7.66634899774277       -1.33352093686133
C           29.10722451671619       -6.71309470111255       -2.12888374986461
C           29.23859299759756       -5.40079281808207       -1.88609242100890
C           31.27873100363926       -2.80370831504829       -0.53076488489825
C           32.57298373406434       -3.34801349579605       -0.91514634842640
C           33.45414315813905       -2.34916576341151       -0.78254774661526
C           32.71988410949202       -1.17764094668383       -0.32963790150376
N           31.43578723206947       -1.43613779194525       -0.18994514513556
H           34.42644135913472        0.11599256954112       -0.00513287929843
H           34.39641034362693        2.65795137732697        0.66661794395732
H           32.57242320144945        4.44912066251819        0.95193946019160
H           30.76543410983045        5.39505596108768       -1.06646600391039
H           29.93628163869718        7.75829786831414       -0.78835761340730
H           31.37608514576903        7.56634018594864        0.26177538020840
H           29.37992839991740        8.60737590748753        1.46310000788839
H           28.60358259759917        7.00509838099016        3.13208231964893
H           28.87287591164393        4.63543641645690        2.73159879357739
H           27.17285528434873        4.48277079451976        0.01495584394149
H           25.34852389639372        2.67159304877846       -0.25674108712947
H           25.69472424790737       -2.61748524900298        0.77234224454614
H           27.64776731601581       -4.48942582226996        0.52271171638845
H           31.35391166815610       -5.47219249485391        0.81082640093161
H           30.59662962513875       -7.86070489151910        0.59720553148366
H           31.78483114015675       -7.56301788622614       -0.71034334360568
H           29.63355669497098       -8.66424031465054       -1.53189321598979
H           28.46393578898785       -7.04965598222181       -2.93791021445439
H           28.71006836664059       -4.68439872688973       -2.50331384131003
H           32.80782003748295       -4.35111340290838       -1.24610254199857
H           34.51144446384261       -2.41375221215491       -0.98432106346705
C           16.18976470061515        0.02735717692057        0.00972349204055
C           17.51197122117027       -0.00544533804342       -0.00796953159980
C           18.77951659699908       -0.02919618660175       -0.00910739175700
C           20.06252190423781       -0.04192268659490       -0.01222762529861
C           21.34511303945577       -0.03078448796230       -0.01642151515095
C           22.57008200501519       -0.00974793356903       -0.02354021035673
C           23.88343195344664        0.00634977409649       -0.00934250839000
C           25.10573039135139       -0.00204033156067        0.01016152801114
124
 energy: -210.364341940278 gnorm: 0.162901574239 xtb: 6.5.1 (b24c23e)
Fe          11.31652077863962        0.00811859770650       -0.00275934777768
C            7.95925063904596       -0.06049070038659       -0.04663104931252
C            8.63153761888660       -1.25328853195794       -0.04099409826031
C            7.97223047476099       -2.53973699441982        0.00757943759091
C            8.93270808941823       -3.48151175723927       -0.04912270699170
C           10.21179339544684       -2.79623425408232       -0.14207249447100
N           10.00858355137254       -1.41756261109908       -0.11905903792813
C           11.43368485580513       -3.43045499663930       -0.25880955438883
C           11.46448165640577       -4.91701998324915       -0.30887429858193
C           10.97705663072692       -5.58670760393157       -1.36358489622895
C           10.97243570815999       -7.09328720993399       -1.44297565657596
N           11.78656943026633       -7.69686737034625       -0.37701202940546
C           12.20397642556157       -6.98662903716136        0.72065488918831
C           12.06803924638418       -5.64722088170920        0.79672828370564
C           12.67014633198306       -2.74226124581823       -0.33997313823222
C           13.93099831425941       -3.36465538407492       -0.67648512970969
C           14.88215021561654       -2.40008816768392       -0.62036907895061
N           12.84559239828927       -1.42578756285347       -0.11463089758365
C           14.20840942028243       -1.19002801930282       -0.24850360753008
C           14.84022845214731        0.02704397768114        0.01910220891524
C           14.04126163079543        1.19965239263396        0.35498917588681
C           14.58516453634302        2.31621880319650        0.97703182420839
C           13.58330130282615        3.28033485651232        1.05166109697485
C           12.43860316982956        2.73732844072196        0.47213167751493
N           12.68427982316028        1.41301008889369        0.08879469889603
C           11.21846353323995        3.47384138273240        0.28818827688791
C           11.24508634088714        4.96526271820322        0.30718121365427
C           10.54778201103105        5.67677891368695        1.21087471319199
C           10.52687834180630        7.18771725961771        1.23085692158827
N           11.54383256302697        7.75960883030583        0.33578559026089
C           12.17908908086216        7.01035271343218       -0.62263064993728
C           12.06043373292495        5.66776356329189       -0.67547947725385
C           10.02393311597426        2.83647595246962        0.07614269081533
C            8.73779379712583        3.45192861677294       -0.17215848396371
C            7.83827044217770        2.44528771446565       -0.25433730194406
C            8.56242763846932        1.20852003627571       -0.07100048522252
N            9.87079058884613        1.44094749828654        0.10133526058302
H            6.87494310482016       -0.10391325177036       -0.03461595984517
H            6.90831730624101       -2.72218966983340        0.07950929975049
H            8.75233467558781       -4.54755011031097       -0.02699742745082
H           10.53580716045990       -5.05277373566670       -2.20027787444604
H           11.36179608171513       -7.41455521238514       -2.42345220659693
H            9.92875485641244       -7.45438607732108       -1.37008060974386
H           11.91347786093103       -8.69804307511963       -0.41171698586475
H           12.68592945133598       -7.53102766236749        1.53114879991816
H           12.42307404326442       -5.11223799897652        1.66802097486851
H           14.10536822713042       -4.39286494501194       -0.94307143974989
H           15.93768495541512       -2.53807092048279       -0.81852794704309
H           15.60355729770959        2.39954953788556        1.31937288781179
H           13.65852233195580        4.26940478908488        1.47407846415822
H            9.94774889746819        5.17671159048595        1.96585509384824
H           10.70391968483026        7.54924389347704        2.25795654197718
H            9.52085114029522        7.54064588318345        0.93133556627234
H           11.66100890917500        8.76270594555500        0.35682970381281
H           12.81998093154386        7.52821100109963       -1.33501580580084
H           12.58650626277627        5.10636883191980       -1.43608681342644
H            8.51379778150763        4.50546411886378       -0.27919251351243
H            6.78254428825151        2.55222892363610       -0.44101505710660
Fe          29.98466021974960       -0.00928256626656       -0.00458019661218
C           33.33930724821899        0.06693771854824       -0.03279620903862
C           32.66718067549343        1.23094527049098        0.22871126663912
C           33.32672608202370        2.47698072571845        0.55239803499931
C           32.36686688880409        3.40926227331106        0.69928529055544
C           31.08772330778511        2.76075878810257        0.46133460855878
N           31.29083090409656        1.40909614008540        0.18724265649213
C           29.86812059192931        3.40725099228651        0.48402018012583
C           29.83520358652807        4.86846992493199        0.75412181663849
C           30.32165398466594        5.74818201366546       -0.13299642730924
C           30.32599426816114        7.23629766277414        0.11288620626578
N           29.51179600930796        7.59666204482686        1.28365529966289
C           29.09427523701903        6.66750684031686        2.20341871135864
C           29.23049487608907        5.34312629927515        1.99025541058010
C           28.63328467857364        2.75358097680414        0.25658398540994
C           27.36759048820412        3.43105030642704        0.06127835956545
C           26.42012242183164        2.47663524578086       -0.09041145885776
N           28.46790540785029        1.42349133812995        0.19243218225410
C           27.10675731738105        1.21593277238175        0.01086444325420
C           26.51634806463359       -0.03148398023185        0.01179848535003
C           27.27019721532059       -1.25141667445497        0.09022226812627
C           26.71648520326947       -2.47456638321816        0.45568078725711
C           27.71525938084344       -3.43261726979491        0.32245294235164
C           28.86277121737138       -2.78004905657847       -0.12628006751176
N           28.62368352511400       -1.40609586559566       -0.21600212052453
C           30.08137413388325       -3.45837645004217       -0.46447042781230
C           30.05393450330907       -4.91840357432650       -0.76619638145780
C           30.75081253277798       -5.80697547767433       -0.03594863952326
C           30.77157396107355       -7.28675041250179       -0.34081682921916
N           29.75457216284665       -7.65299345852728       -1.33780779805631
C           29.11924747363649       -6.71552297133879       -2.11310348036564
C           29.23809394502698       -5.39294561917527       -1.87652330751028
C           31.27497891256632       -2.78906006463869       -0.53479023385410
C           32.56108012938166       -3.33653889370978       -0.90944387821435
C           33.46036080570395       -2.33567369662749       -0.77348837074866
C           32.73627002340237       -1.16692003660350       -0.32883804594444
N           31.42778002133004       -1.43165329385918       -0.21043061796572
H           34.42357368439239        0.10685618216692       -0.01181018905500
H           34.39056833066549        2.63957900633489        0.66180842087124
H           32.54681356059355        4.44566207895669        0.94967183735515
H           30.76273561873417        5.40559699557108       -1.06463371434860
H           29.93653530621518        7.76025519897682       -0.77581628732142
H           31.36969735086474        7.57304495581991        0.26164219911835
H           29.38486526495898        8.58189750223763        1.46467433788130
H           28.61231372885918        7.02510380598261        3.11185161696842
H           28.87546017868404        4.63323987412686        2.72616243969444
H           27.19267201552236        4.49214826528972        0.02178438543867
H           25.36352720064096        2.65113361561010       -0.25450043569298
H           25.69718950382345       -2.62714947717821        0.77254120481442
H           27.63924891102729       -4.48894356880271        0.52301773657323
H           31.35074375134365       -5.48026076150077        0.80869860448889
H           30.59445746641775       -7.86016239359615        0.58477914984733
H           31.77758789785039       -7.56701982128084       -0.70913652083428
H           29.63734449538076       -8.63719805838240       -1.53256390790500
H           28.47833276642318       -7.06832871705462       -2.92002100668398
H           28.71200935220498       -4.68121162343304       -2.49878902193531
H           32.78489053924697       -4.34257625256471       -1.24006544898007
H           34.51604804011461       -2.40002639231021       -0.97875406795403
C           16.24525631651117        0.04444295895889        0.01179381363305
C           17.43712001645918        0.00266639875440       -0.00556857588619
C           18.76758956745620       -0.02532601028312       -0.00863898559971
C           20.00004362245612       -0.03977262117026       -0.01306854675562
C           21.32174724237930       -0.02863180176925       -0.01508034395837
C           22.56964081736314       -0.00626535579452       -0.02398154984272
C           23.88855354989973       -0.00909038051530       -0.01289595319858
C           25.12585596669579       -0.03563709278528        0.01335413290474
124
 energy: -210.389071837560 gnorm: 0.084103490358 xtb: 6.5.1 (b24c23e)
Fe          11.32816094306579       -0.00117930404738       -0.00476574125115
C            7.96189043877573       -0.05145491994226       -0.04923170541368
C            8.63813129834124       -1.25177131302410       -0.03530783307715
C            7.98064436346887       -2.53059396050538        0.00950383102069
C            8.94685166169278       -3.47500377182683       -0.04665169561564
C           10.21235598155631       -2.78748624455475       -0.13493858528476
N           10.00171195448097       -1.42335974737347       -0.11074294318768
C           11.43872585659206       -3.42547456269162       -0.25824050173715