      -----------------------------------------------------------      
     |                   =====================                   |     
     |                           x T B                           |     
     |                   =====================                   |     
     |                         S. Grimme                         |     
     |          Mulliken Center for Theoretical Chemistry        |     
     |                    University of Bonn                     |     
      -----------------------------------------------------------      

   * xtb version 6.5.1 (b24c23e) compiled by 'conda@728c89f4b128' on 2022-07-12

   xtb is free software: you can redistribute it and/or modify it under
   the terms of the GNU Lesser General Public License as published by
   the Free Software Foundation, either version 3 of the License, or
   (at your option) any later version.
   
   xtb is distributed in the hope that it will be useful,
   but WITHOUT ANY WARRANTY; without even the implied warranty of
   MERCHANTABILITY or FITNESS FOR A PARTICULAR PURPOSE.  See the
   GNU Lesser General Public License for more details.
   
   Cite this work as:
   * C. Bannwarth, E. Caldeweyher, S. Ehlert, A. Hansen, P. Pracht,
     J. Seibert, S. Spicher, S. Grimme, WIREs Comput. Mol. Sci., 2020, 11,
     e01493. DOI: 10.1002/wcms.1493
   
   for GFN2-xTB:
   * C. Bannwarth, S. Ehlert and S. Grimme., J. Chem. Theory Comput., 2019,
     15, 1652-1671. DOI: 10.1021/acs.jctc.8b01176
   for GFN1-xTB:
   * S. Grimme, C. Bannwarth, P. Shushkov, J. Chem. Theory Comput., 2017,
     13, 1989-2009. DOI: 10.1021/acs.jctc.7b00118
   for GFN0-xTB:
   * P. Pracht, E. Caldeweyher, S. Ehlert, S. Grimme, ChemRxiv, 2019, preprint.
     DOI: 10.26434/chemrxiv.8326202.v1
   for GFN-FF:
   * S. Spicher and S. Grimme, Angew. Chem. Int. Ed., 2020, 59, 15665-15673.
     DOI: 10.1002/anie.202004239
   
   for ALPB and GBSA implicit solvation:
   * S. Ehlert, M. Stahn, S. Spicher, S. Grimme, J. Chem. Theory Comput.,
     2021, 17, 4250-4261. DOI: 10.1021/acs.jctc.1c00471
   
   for DFT-D4:
   * E. Caldeweyher, C. Bannwarth and S. Grimme, J. Chem. Phys., 2017,
     147, 034112. DOI: 10.1063/1.4993215
   * E. Caldeweyher, S. Ehlert, A. Hansen, H. Neugebauer, S. Spicher,
     C. Bannwarth and S. Grimme, J. Chem. Phys., 2019, 150, 154122.
     DOI: 10.1063/1.5090222
   * E. Caldeweyher, J.-M. Mewes, S. Ehlert and S. Grimme, Phys. Chem. Chem. Phys.
     2020, 22, 8499-8512. DOI: 10.1039/D0CP00502A
   
   for sTDA-xTB:
   * S. Grimme and C. Bannwarth, J. Chem. Phys., 2016, 145, 054103.
     DOI: 10.1063/1.4959605
   
   in the mass-spec context:
   * V. Asgeirsson, C. Bauer and S. Grimme, Chem. Sci., 2017, 8, 4879.
     DOI: 10.1039/c7sc00601b
   * J. Koopman and S. Grimme, ACS Omega 2019, 4, 12, 15120-15133.
     DOI: 10.1021/acsomega.9b02011
   
   for metadynamics refer to:
   * S. Grimme, J. Chem. Theory Comput., 2019, 155, 2847-2862
     DOI: 10.1021/acs.jctc.9b00143
   
   for SPH calculations refer to:
   * S. Spicher and S. Grimme, J. Chem. Theory Comput., 2021, 17, 1701-1714
     DOI: 10.1021/acs.jctc.0c01306
   
   with help from (in alphabetical order)
   P. Atkinson, C. Bannwarth, F. Bohle, G. Brandenburg, E. Caldeweyher
   M. Checinski, S. Dohm, S. Ehlert, S. Ehrlich, I. Gerasimov, C. Hölzer
   A. Katbashev, J. Koopman, C. Lavigne, S. Lehtola, F. März, M. Müller,
   F. Musil, H. Neugebauer, J. Pisarek, C. Plett, P. Pracht, F. Pultar,
   J. Seibert, P. Shushkov, S. Spicher, M. Stahn, M. Steiner, T. Strunk,
   J. Stückrath, T. Rose, and J. Unsleber
   
 * started run on 2022/07/29 at 22:28:30.341     

           -------------------------------------------------
          |                Calculation Setup                |
           -------------------------------------------------

          program call               : xtb xtbopt.xyz --gfn 1 --vipea
          hostname                   : cx3-14-19.cx3.hpc.ic.ac.uk
          coordinate file            : xtbopt.xyz
          omp threads                :                     1

   ID    Z sym.   atoms
    1   27 Co     1, 55, 113
    2    6 C      2-6, 8-11, 13-17, 19-24, 26-29, 31-36, 56-60, 62-65, 67-71,
                  73-78, 80-83, 85-90, 109-112, 114-118, 120-123, 125-129,
                  131-136, 138-141, 143-148
    3    7 N      7, 12, 18, 25, 30, 37, 61, 66, 72, 79, 84, 91, 119, 124,
                  130, 137, 142, 149
    4    1 H      38-54, 92-108, 150-165

           -------------------------------------------------
          |                 I P E A - x T B                 |
           -------------------------------------------------

        Reference                      10.1039/c7sc00601b
      * Hamiltonian:
        H0-scaling (s, p, d)           2.150000    2.300000    2.000000
        zeta-weighting                 0.000000
      * Dispersion:
        s8                             2.400000
        a1                             0.630000
        a2                             5.000000
        s9                             0.000000
      * Repulsion:
        kExp                           1.500000
        rExp                           1.000000
      * Coulomb:
        alpha                          1.000000
        third order                    atomic
        anisotropic                    false
      * Halogen bond correction:
        rad-scale                      1.300000
        damping                        0.440000


          ...................................................
          :                      SETUP                      :
          :.................................................:
          :  # basis functions                 690          :
          :  # atomic orbitals                 687          :
          :  # shells                          445          :
          :  # electrons                       543          :
          :  # halogen bonds                     0          :
          :  max. iterations                   250          :
          :  Hamiltonian                  GFN1-xTB          :
          :  restarted?                      false          :
          :  GBSA solvation                  false          :
          :  PC potential                    false          :
          :  electronic temp.          300.0000000     K    :
          :  accuracy                    1.0000000          :
          :  -> integral cutoff          0.2500000E+02      :
          :  -> integral neglect         0.1000000E-07      :
          :  -> SCF convergence          0.1000000E-05 Eh   :
          :  -> wf. convergence          0.2000000E-04 e    :
          :  Broyden damping             0.4000000          :
          ...................................................

 iter      E             dE          RMSdq      gap      omega  full diag
   1   -337.5998546 -0.337600E+03  0.106E+01    0.36       0.0  T
   2   -323.8071096  0.137927E+02  0.985E+00    0.05       1.0  T
   3   -322.8002065  0.100690E+01  0.821E+00    0.02       1.0  T
   4   -318.8215888  0.397862E+01  0.627E+00    0.10       1.0  T
   5   -238.6931242  0.801285E+02  0.747E+00    0.05       1.0  T
   6   -334.9615649 -0.962684E+02  0.343E+00    0.21       1.0  T
   7   -338.5803898 -0.361882E+01  0.284E+00    0.16       1.0  T
   8   -338.6394339 -0.590442E-01  0.251E+00    0.13       1.0  T
   9   -338.7533125 -0.113879E+00  0.243E+00    0.19       1.0  T
  10   -339.3168372 -0.563525E+00  0.119E+00    0.10       1.0  T
  11   -338.6227676  0.694070E+00  0.211E+00    0.25       1.0  T
  12   -339.0911034 -0.468336E+00  0.145E+00    0.23       1.0  T
  13   -338.6072008  0.483903E+00  0.208E+00    0.24       1.0  T
  14   -339.6400723 -0.103287E+01  0.466E-01    0.02       1.0  T
  15   -339.5159843  0.124088E+00  0.850E-01    0.13       1.0  T
  16   -339.6778332 -0.161849E+00  0.275E-01    0.01       1.0  T
  17   -339.5423360  0.135497E+00  0.789E-01    0.10       1.0  T
  18   -339.5881062 -0.457702E-01  0.660E-01    0.01       1.0  T
  19   -339.6757666 -0.876605E-01  0.298E-01    0.01       1.0  T
  20   -339.6052284  0.705383E-01  0.594E-01    0.05       1.0  T
  21   -339.6938538 -0.886254E-01  0.129E-01    0.01       1.0  T
  22   -339.6848025  0.905125E-02  0.228E-01    0.01       1.0  T
  23   -339.6976229 -0.128204E-01  0.522E-02    0.01       1.0  T
  24   -339.6966260  0.996872E-03  0.822E-02    0.01       1.0  T
  25   -339.6978569 -0.123088E-02  0.446E-02    0.01       1.0  T
  26   -339.6983050 -0.448079E-03  0.167E-02    0.01       1.0  T
  27   -339.6982758  0.291661E-04  0.199E-02    0.01       1.0  T
  28   -339.6983487 -0.729079E-04  0.986E-03    0.01       1.0  T
  29   -339.6983690 -0.202892E-04  0.344E-03    0.01       2.3  T
  30   -339.6983657  0.326936E-05  0.496E-03    0.01       1.6  T
  31   -339.6983701 -0.434178E-05  0.255E-03    0.01       3.1  T
  32   -339.6983708 -0.749644E-06  0.174E-03    0.01       4.5  T
  33   -339.6983714 -0.557501E-06  0.901E-04    0.01       8.6  T
  34   -339.6983716 -0.159403E-06  0.347E-04    0.01      22.5  T
  35   -339.6983716 -0.178088E-07  0.188E-04    0.01      41.5  T
  36   -339.6983716  0.353765E-08  0.217E-04    0.01      35.9  T
  37   -339.6983716 -0.559027E-08  0.157E-04    0.01      49.6  T

   *** convergence criteria satisfied after 37 iterations ***

         #    Occupation            Energy/Eh            Energy/eV
      -------------------------------------------------------------
         1        2.0000           -1.0323962             -28.0929
       ...           ...                  ...                  ...
       266        1.9998           -0.3677292             -10.0064
       267        1.9998           -0.3676687             -10.0048
       268        1.9998           -0.3676593             -10.0045
       269        1.9998           -0.3676535             -10.0044
       270        1.9998           -0.3675021             -10.0002
       271        1.1421           -0.3590221              -9.7695
       272        0.9914           -0.3586972              -9.7606 (HOMO)
       273        0.8679           -0.3584309              -9.7534 (LUMO)
       274                         -0.3221381              -8.7658
       275                         -0.3084453              -8.3932
       276                         -0.3072302              -8.3602
       277                         -0.3060345              -8.3276
       ...                                ...                  ...
       687                        545.7586260           14850.8481
      -------------------------------------------------------------
                  HL-Gap            0.0002663 Eh            0.0072 eV
             Fermi-level           -0.3587156 Eh           -9.7611 eV

 SCC (total)                   0 d,  0 h,  0 min,  9.457 sec
 SCC setup                      ...        0 min,  0.006 sec (  0.065%)
 Dispersion                     ...        0 min,  0.009 sec (  0.096%)
 classical contributions        ...        0 min,  0.003 sec (  0.032%)
 integral evaluation            ...        0 min,  0.717 sec (  7.581%)
 iterations                     ...        0 min,  7.016 sec ( 74.186%)
 molecular gradient             ...        0 min,  1.659 sec ( 17.546%)
 printout                       ...        0 min,  0.047 sec (  0.493%)

         :::::::::::::::::::::::::::::::::::::::::::::::::::::
         ::                     SUMMARY                     ::
         :::::::::::::::::::::::::::::::::::::::::::::::::::::
         :: total energy            -333.294578553743 Eh    ::
         :: gradient norm              0.085129138902 Eh/a0 ::
         :: HOMO-LUMO gap              0.007245450097 eV    ::
         ::.................................................::
         :: SCC energy              -339.698371572625 Eh    ::
         :: -> electrostatic           0.263513475562 Eh    ::
         :: repulsion energy           6.560163475503 Eh    ::
         :: dispersion energy         -0.156370456621 Eh    ::
         :: halogen bond corr.         0.000000000000 Eh    ::
         :: add. restraining           0.000000000000 Eh    ::
         :: total charge               0.000000000024 e     ::
         :::::::::::::::::::::::::::::::::::::::::::::::::::::

           ------------------------------------------------- 
          |        vertical delta SCC IP calculation        |
           ------------------------------------------------- 
   1   -339.2785824 -0.339279E+03  0.397E-01    0.01       0.0  T
   2   -339.1345456  0.144037E+00  0.919E-01    0.00       1.0  T
   3   -337.7581693  0.137638E+01  0.239E+00    0.00       1.0  T
   4   -339.0573215 -0.129915E+01  0.975E-01    0.12       1.0  T
   5   -339.1677849 -0.110463E+00  0.705E-01    0.06       1.0  T
   6   -339.2425482 -0.747633E-01  0.479E-01    0.04       1.0  T
   7   -339.2839713 -0.414232E-01  0.272E-01    0.03       1.0  T
   8   -339.2983988 -0.144275E-01  0.123E-01    0.01       1.0  T
   9   -339.3018204 -0.342158E-02  0.387E-02    0.01       1.0  T
  10   -339.2994636  0.235678E-02  0.104E-01    0.01       1.0  T
  11   -339.3021541 -0.269043E-02  0.195E-02    0.01       1.0  T
  12   -339.3022202 -0.661689E-04  0.129E-02    0.01       1.0  T
  13   -339.3022600 -0.397430E-04  0.187E-03    0.01       4.2  T
  14   -339.3022597  0.286608E-06  0.263E-03    0.01       3.0  T
  15   -339.3022603 -0.672333E-06  0.166E-03    0.01       4.7  T
  16   -339.3022610 -0.655392E-06  0.735E-04    0.01      10.6  T
  17   -339.3022610 -0.300634E-07  0.522E-04    0.01      14.9  T
  18   -339.3022610 -0.495316E-08  0.470E-04    0.01      16.6  T
  19   -339.3022611 -0.555540E-07  0.159E-04    0.01      49.0  T
  20   -339.3022611 -0.571487E-08  0.755E-05    0.01     103.1  T
     SCC iter.                  ...        0 min,  3.952 sec
     gradient                   ...        0 min,  1.703 sec
------------------------------------------------------------------------
empirical IP shift (eV):    4.8455
delta SCC IP (eV):    5.9332
------------------------------------------------------------------------
           ------------------------------------------------- 
          |        vertical delta SCC EA calculation        |
           ------------------------------------------------- 
   1   -339.9394685 -0.339939E+03  0.755E-01    0.01       0.0  T
   2   -339.9391927  0.275844E-03  0.586E-01    0.00       1.0  T
   3   -339.6317878  0.307405E+00  0.129E+00    0.26       1.0  T
   4   -339.8885557 -0.256768E+00  0.759E-01    0.08       1.0  T
   5   -339.7068135  0.181742E+00  0.109E+00    0.13       1.0  T
   6   -339.9011498 -0.194336E+00  0.710E-01    0.03       1.0  T
   7   -339.7966956  0.104454E+00  0.942E-01    0.12       1.0  T
   8   -339.9577202 -0.161025E+00  0.512E-01    0.01       1.0  T
   9   -340.0203447 -0.626245E-01  0.174E-02    0.01       1.0  T
  10   -340.0119456  0.839909E-02  0.186E-01    0.00       1.0  T
  11   -340.0003598  0.115857E-01  0.283E-01    0.03       1.0  T
  12   -340.0013612 -0.100139E-02  0.279E-01    0.00       1.0  T
  13   -340.0187906 -0.174294E-01  0.808E-02    0.01       1.0  T
  14   -340.0202593 -0.146868E-02  0.253E-02    0.01       1.0  T
  15   -340.0204137 -0.154429E-03  0.365E-03    0.01       2.1  T
  16   -340.0204169 -0.322962E-05  0.343E-04    0.01      22.7  T
  17   -340.0204168  0.896722E-07  0.681E-04    0.01      11.4  T
  18   -340.0204170 -0.113761E-06  0.127E-04    0.01      61.3  T
  19   -340.0204170 -0.463274E-08  0.197E-05    0.01     395.1  T
     SCC iter.                  ...        0 min,  3.744 sec
     gradient                   ...        0 min,  1.705 sec
------------------------------------------------------------------------
empirical EA shift (eV):    4.8455
delta SCC EA (eV):    3.9178
------------------------------------------------------------------------
           -------------------------------------------------
          |                Property Printout                |
           -------------------------------------------------

    * Orbital Energies and Occupations

         #    Occupation            Energy/Eh            Energy/eV
      -------------------------------------------------------------
         1        2.0000           -0.9713246             -26.4311
       ...           ...                  ...                  ...
       260        2.0000           -0.3306644              -8.9978
       261        2.0000           -0.3176392              -8.6434
       262        2.0000           -0.2967467              -8.0749
       263        2.0000           -0.2963490              -8.0641
       264        2.0000           -0.2963433              -8.0639
       265        2.0000           -0.2962873              -8.0624
       266        2.0000           -0.2959586              -8.0534
       267        2.0000           -0.2957107              -8.0467
       268        1.9999           -0.2953864              -8.0379
       269        1.9999           -0.2952882              -8.0352
       270        1.9999           -0.2952404              -8.0339
       271        1.4820           -0.2863858              -7.7930
       272        1.3392           -0.2860581              -7.7840 (HOMO)
       273        1.1792           -0.2857313              -7.7751 (LUMO)
       274                         -0.2611911              -7.1074
       275                         -0.2487438              -6.7687
       276                         -0.2478697              -6.7449
       277                         -0.2477789              -6.7424
       278                         -0.2469342              -6.7194
       279                         -0.2354787              -6.4077
       280                         -0.2146472              -5.8408
       281                         -0.2079760              -5.6593
       282                         -0.2053621              -5.5882
       283                         -0.1944135              -5.2903
       ...                                ...                  ...
       687                        545.8184831           14852.4769
      -------------------------------------------------------------
                  HL-Gap            0.0003268 Eh            0.0089 eV
             Fermi-level           -0.2853871 Eh           -7.7658 eV

  Mulliken/CM5 charges         n(s)   n(p)   n(d)
     1Co    0.29244  0.70469   0.329  0.986  7.392
     2C    -0.02248 -0.06370   1.085  2.938  0.000
     3C     0.05414  0.11459   1.110  2.836  0.000
     4C    -0.04120 -0.08764   1.084  2.957  0.000
     5C    -0.03884 -0.08476   1.076  2.963  0.000
     6C     0.05717  0.12124   1.103  2.840  0.000
     7N    -0.21549 -0.47754   1.317  3.898  0.000
     8C     0.00844  0.01411   1.080  2.911  0.000
     9C     0.02549  0.01890   1.101  2.873  0.000
    10C    -0.01614 -0.06383   1.081  2.935  0.000
    11C     0.05357  0.07830   1.128  2.819  0.000
    12N    -0.25903 -0.45495   1.375  3.884  0.000
    13C     0.05332  0.07805   1.128  2.819  0.000
    14C    -0.01635 -0.06399   1.081  2.935  0.000
    15C     0.05696  0.12025   1.102  2.841  0.000
    16C    -0.03668 -0.08262   1.074  2.963  0.000
    17C    -0.03562 -0.08129   1.079  2.957  0.000
    18N    -0.21350 -0.47509   1.318  3.895  0.000
    19C     0.06003  0.12513   1.115  2.825  0.000
    20C     0.01824  0.02531   1.080  2.902  0.000
    21C     0.05999  0.12501   1.115  2.825  0.000
    22C    -0.03538 -0.08107   1.077  2.958  0.000
    23C    -0.03638 -0.08251   1.074  2.963  0.000
    24C     0.05712  0.12045   1.103  2.840  0.000
    25N    -0.21333 -0.47526   1.318  3.895  0.000
    26C     0.00719  0.01284   1.080  2.913  0.000
    27C     0.02465  0.01814   1.101  2.875  0.000
    28C    -0.01637 -0.06405   1.081  2.935  0.000
    29C     0.05286  0.07757   1.127  2.820  0.000
    30N    -0.25903 -0.45486   1.375  3.884  0.000
    31C     0.05363  0.07831   1.127  2.819  0.000
    32C    -0.01533 -0.06295   1.081  2.934  0.000
    33C     0.05737  0.12138   1.104  2.838  0.000
    34C    -0.03849 -0.08463   1.076  2.963  0.000
    35C    -0.04094 -0.08739   1.083  2.958  0.000
    36C     0.05418  0.11459   1.109  2.836  0.000
    37N    -0.21548 -0.47766   1.317  3.898  0.000
    38H     0.02267  0.08156   0.977  0.000  0.000
    39H     0.02494  0.08156   0.975  0.000  0.000
    40H     0.02015  0.07899   0.980  0.000  0.000
    41H     0.02362  0.08152   0.976  0.000  0.000
    42H     0.02751  0.09344   0.972  0.000  0.000
    43H     0.02687  0.09279   0.973  0.000  0.000
    44H     0.02308  0.08099   0.977  0.000  0.000
    45H     0.02231  0.08119   0.978  0.000  0.000
    46H     0.01994  0.07822   0.980  0.000  0.000
    47H     0.02042  0.07864   0.980  0.000  0.000
    48H     0.02140  0.08019   0.979  0.000  0.000
    49H     0.02274  0.08101   0.977  0.000  0.000
    50H     0.02631  0.09223   0.974  0.000  0.000
    51H     0.02807  0.09399   0.972  0.000  0.000
    52H     0.02407  0.08238   0.976  0.000  0.000
    53H     0.01909  0.07788   0.981  0.000  0.000
    54H     0.02516  0.08177   0.975  0.000  0.000
    55Co    0.29106  0.69702   0.328  0.985  7.396
    56C    -0.02242 -0.06367   1.085  2.938  0.000
    57C     0.05435  0.11482   1.110  2.836  0.000
    58C    -0.04113 -0.08760   1.084  2.957  0.000
    59C    -0.03880 -0.08474   1.076  2.963  0.000
    60C     0.05737  0.12149   1.103  2.839  0.000
    61N    -0.21575 -0.47620   1.317  3.898  0.000
    62C     0.00848  0.01410   1.081  2.911  0.000
    63C     0.02545  0.01882   1.102  2.873  0.000
    64C    -0.01626 -0.06394   1.081  2.935  0.000
    65C     0.05347  0.07820   1.128  2.819  0.000
    66N    -0.25895 -0.45488   1.375  3.884  0.000
    67C     0.05343  0.07816   1.128  2.819  0.000
    68C    -0.01629 -0.06396   1.081  2.935  0.000
    69C     0.05691  0.12014   1.102  2.841  0.000
    70C    -0.03640 -0.08238   1.073  2.964  0.000
    71C    -0.03542 -0.08125   1.078  2.958  0.000
    72N    -0.21377 -0.47374   1.319  3.895  0.000
    73C     0.06023  0.12540   1.115  2.825  0.000
    74C     0.01783  0.02478   1.081  2.902  0.000
    75C     0.06024  0.12533   1.114  2.825  0.000
    76C    -0.03520 -0.08106   1.077  2.959  0.000
    77C    -0.03619 -0.08236   1.073  2.963  0.000
    78C     0.05717  0.12043   1.103  2.840  0.000
    79N    -0.21364 -0.47383   1.318  3.895  0.000
    80C     0.00736  0.01296   1.080  2.913  0.000
    81C     0.02470  0.01814   1.101  2.875  0.000
    82C    -0.01637 -0.06405   1.081  2.935  0.000
    83C     0.05283  0.07754   1.127  2.820  0.000
    84N    -0.25891 -0.45475   1.375  3.884  0.000
    85C     0.05380  0.07849   1.127  2.819  0.000
    86C    -0.01524 -0.06290   1.081  2.934  0.000
    87C     0.05758  0.12164   1.104  2.838  0.000
    88C    -0.03844 -0.08459   1.076  2.963  0.000
    89C    -0.04089 -0.08738   1.083  2.958  0.000
    90C     0.05438  0.11481   1.109  2.836  0.000
    91N    -0.21563 -0.47633   1.317  3.898  0.000
    92H     0.02257  0.08149   0.977  0.000  0.000
    93H     0.02504  0.08166   0.975  0.000  0.000
    94H     0.02028  0.07916   0.980  0.000  0.000
    95H     0.02311  0.08102   0.977  0.000  0.000
    96H     0.02729  0.09321   0.973  0.000  0.000
    97H     0.02715  0.09307   0.973  0.000  0.000
    98H     0.02333  0.08123   0.977  0.000  0.000
    99H     0.02320  0.08213   0.977  0.000  0.000
   100H     0.01945  0.07778   0.981  0.000  0.000
   101H     0.01897  0.07729   0.981  0.000  0.000
   102H     0.02147  0.08035   0.979  0.000  0.000
   103H     0.02261  0.08088   0.977  0.000  0.000
   104H     0.02623  0.09215   0.974  0.000  0.000
   105H     0.02851  0.09443   0.971  0.000  0.000
   106H     0.02448  0.08274   0.976  0.000  0.000
   107H     0.01920  0.07803   0.981  0.000  0.000
   108H     0.02519  0.08181   0.975  0.000  0.000
   109C    -0.02430 -0.02646   1.073  2.952  0.000
   110C    -0.02376 -0.02589   1.073  2.950  0.000
   111C    -0.02416 -0.02628   1.073  2.951  0.000
   112C    -0.02463 -0.02682   1.073  2.951  0.000
   113Co    0.30207  0.71376   0.326  0.985  7.387
   114C     0.01760  0.02468   1.080  2.902  0.000
   115C     0.06002  0.12517   1.114  2.826  0.000
   116C    -0.03592 -0.08167   1.077  2.959  0.000
   117C    -0.03607 -0.08221   1.074  2.962  0.000
   118C     0.05695  0.12036   1.102  2.841  0.000
   119N    -0.21313 -0.47529   1.317  3.896  0.000
   120C     0.00951  0.01515   1.081  2.909  0.000
   121C     0.02482  0.01833   1.100  2.875  0.000
   122C    -0.01526 -0.06291   1.081  2.934  0.000
   123C     0.05374  0.07844   1.127  2.819  0.000
   124N    -0.25854 -0.45440   1.375  3.883  0.000
   125C     0.05352  0.07823   1.127  2.819  0.000
   126C    -0.01542 -0.06305   1.081  2.934  0.000
   127C     0.05715  0.12042   1.103  2.840  0.000
   128C    -0.03587 -0.08204   1.074  2.962  0.000
   129C    -0.03562 -0.08140   1.076  2.959  0.000
   130N    -0.21296 -0.47473   1.317  3.896  0.000
   131C     0.06021  0.12536   1.115  2.825  0.000
   132C     0.01783  0.02495   1.081  2.902  0.000
   133C     0.05991  0.12495   1.115  2.825  0.000
   134C    -0.03580 -0.08156   1.077  2.959  0.000
   135C    -0.03605 -0.08218   1.074  2.962  0.000
   136C     0.05709  0.12053   1.102  2.841  0.000
   137N    -0.21297 -0.47552   1.318  3.895  0.000
   138C     0.00954  0.01518   1.082  2.909  0.000
   139C     0.02480  0.01831   1.100  2.875  0.000
   140C    -0.01539 -0.06299   1.082  2.934  0.000
   141C     0.05360  0.07831   1.127  2.819  0.000
   142N    -0.25850 -0.45436   1.375  3.883  0.000
   143C     0.05371  0.07842   1.127  2.819  0.000
   144C    -0.01529 -0.06298   1.081  2.935  0.000
   145C     0.05714  0.12043   1.103  2.840  0.000
   146C    -0.03584 -0.08202   1.075  2.961  0.000
   147C    -0.03572 -0.08147   1.077  2.958  0.000
   148C     0.06023  0.12541   1.115  2.825  0.000
   149N    -0.21317 -0.47451   1.317  3.896  0.000
   150H     0.01855  0.07667   0.981  0.000  0.000
   151H     0.02074  0.07951   0.979  0.000  0.000
   152H     0.02436  0.08265   0.976  0.000  0.000
   153H     0.02809  0.09403   0.972  0.000  0.000
   154H     0.02751  0.09344   0.972  0.000  0.000
   155H     0.02355  0.08191   0.976  0.000  0.000
   156H     0.02118  0.07996   0.979  0.000  0.000
   157H     0.01954  0.07786   0.980  0.000  0.000
   158H     0.01945  0.07772   0.981  0.000  0.000
   159H     0.02125  0.08000   0.979  0.000  0.000
   160H     0.02350  0.08183   0.976  0.000  0.000
   161H     0.02758  0.09351   0.972  0.000  0.000
   162H     0.02804  0.09397   0.972  0.000  0.000
   163H     0.02438  0.08270   0.976  0.000  0.000
   164H     0.02075  0.07958   0.979  0.000  0.000
   165H     0.01837  0.07651   0.982  0.000  0.000

Wiberg/Mayer (AO) data.
largest (>0.10) Wiberg bond orders for each atom

 ---------------------------------------------------------------------------
     #   Z sym  total        # sym  WBO       # sym  WBO       # sym  WBO
 ---------------------------------------------------------------------------
     1  27 Co   3.749 --     7 N    0.718    37 N    0.717    18 N    0.716
                            25 N    0.715
     2   6 C    3.844 --     3 C    1.393    36 C    1.392    38 H    0.997
     3   6 C    3.957 --     2 C    1.393     7 N    1.243     4 C    1.198
     4   6 C    3.859 --     5 C    1.645     3 C    1.198    39 H    0.995
     5   6 C    3.835 --     4 C    1.645     6 C    1.203    40 H    0.999
     6   6 C    3.931 --     8 C    1.363     7 N    1.248     5 C    1.203
     7   7 N    2.993 --     6 C    1.248     3 C    1.243     1 Co   0.718
     8   6 C    3.843 --    15 C    1.370     6 C    1.363     9 C    1.044
     9   6 C    3.908 --    10 C    1.430    14 C    1.429     8 C    1.044
    10   6 C    3.876 --    11 C    1.447     9 C    1.430    41 H    0.989
                            13 C    0.101
    11   6 C    4.000 --    12 N    1.478    10 C    1.447    42 H    0.984
                            14 C    0.101
    12   7 N    2.938 --    11 C    1.478    13 C    1.478
    13   6 C    4.000 --    12 N    1.478    14 C    1.447    43 H    0.984
                            10 C    0.101
    14   6 C    3.876 --    13 C    1.447     9 C    1.429    44 H    0.989
                            11 C    0.101
    15   6 C    3.922 --     8 C    1.370    18 N    1.238    16 C    1.207
    16   6 C    3.830 --    17 C    1.635    15 C    1.207    45 H    0.998
    17   6 C    3.838 --    16 C    1.635    19 C    1.217    46 H    1.000
    18   7 N    3.001 --    19 C    1.266    15 C    1.238     1 Co   0.716
    19   6 C    3.937 --    20 C    1.313    18 N    1.266    17 C    1.217
    20   6 C    3.868 --    21 C    1.313    19 C    1.313   109 C    1.191
    21   6 C    3.937 --    20 C    1.313    25 N    1.264    22 C    1.218
    22   6 C    3.832 --    23 C    1.632    21 C    1.218    47 H    1.000
    23   6 C    3.830 --    22 C    1.632    24 C    1.209    48 H    0.998
    24   6 C    3.925 --    26 C    1.365    25 N    1.241    23 C    1.209
    25   7 N    3.000 --    21 C    1.264    24 C    1.241     1 Co   0.715
    26   6 C    3.844 --    24 C    1.365    33 C    1.360    27 C    1.055
    27   6 C    3.907 --    28 C    1.425    32 C    1.425    26 C    1.055
    28   6 C    3.871 --    29 C    1.448    27 C    1.425    49 H    0.990
                            31 C    0.100
    29   6 C    4.000 --    30 N    1.478    28 C    1.448    50 H    0.984
                            32 C    0.100
    30   7 N    2.937 --    29 C    1.478    31 C    1.477
    31   6 C    4.000 --    30 N    1.477    32 C    1.449    51 H    0.984
                            28 C    0.100
    32   6 C    3.871 --    31 C    1.449    27 C    1.425    52 H    0.990
                            29 C    0.100
    33   6 C    3.934 --    26 C    1.360    37 N    1.249    34 C    1.204
    34   6 C    3.835 --    35 C    1.643    33 C    1.204    53 H    0.998
    35   6 C    3.854 --    34 C    1.643    36 C    1.198    54 H    0.995
    36   6 C    3.957 --     2 C    1.392    37 N    1.243    35 C    1.198
    37   7 N    2.992 --    33 C    1.249    36 C    1.243     1 Co   0.717
    38   1 H    1.037 --     2 C    0.997
    39   1 H    1.028 --     4 C    0.995
    40   1 H    1.041 --     5 C    0.999
    41   1 H    1.058 --    10 C    0.989
    42   1 H    1.056 --    11 C    0.984
    43   1 H    1.057 --    13 C    0.984
    44   1 H    1.058 --    14 C    0.989
    45   1 H    1.040 --    16 C    0.998
    46   1 H    1.043 --    17 C    1.000
    47   1 H    1.042 --    22 C    1.000
    48   1 H    1.043 --    23 C    0.998
    49   1 H    1.059 --    28 C    0.990
    50   1 H    1.057 --    29 C    0.984
    51   1 H    1.056 --    31 C    0.984
    52   1 H    1.059 --    32 C    0.990
    53   1 H    1.044 --    34 C    0.998
    54   1 H    1.029 --    35 C    0.995
    55  27 Co   3.723 --    91 N    0.715    61 N    0.715    72 N    0.714
                            79 N    0.713
    56   6 C    3.843 --    57 C    1.393    90 C    1.393    92 H    0.997
    57   6 C    3.956 --    56 C    1.393    61 N    1.244    58 C    1.198
    58   6 C    3.858 --    59 C    1.644    57 C    1.198    93 H    0.995
    59   6 C    3.835 --    58 C    1.644    60 C    1.203    94 H    0.999
    60   6 C    3.931 --    62 C    1.363    61 N    1.249    59 C    1.203
    61   7 N    2.992 --    60 C    1.249    57 C    1.244    55 Co   0.715
    62   6 C    3.843 --    69 C    1.371    60 C    1.363    63 C    1.043
    63   6 C    3.908 --    64 C    1.430    68 C    1.430    62 C    1.043
    64   6 C    3.876 --    65 C    1.447    63 C    1.430    95 H    0.989
                            67 C    0.101
    65   6 C    4.000 --    66 N    1.478    64 C    1.447    96 H    0.984
                            68 C    0.101
    66   7 N    2.938 --    67 C    1.478    65 C    1.478
    67   6 C    4.000 --    66 N    1.478    68 C    1.447    97 H    0.984
                            64 C    0.101
    68   6 C    3.876 --    67 C    1.447    63 C    1.430    98 H    0.989
                            65 C    0.101
    69   6 C    3.923 --    62 C    1.371    72 N    1.238    70 C    1.207
    70   6 C    3.825 --    71 C    1.634    69 C    1.207    99 H    0.998
    71   6 C    3.835 --    70 C    1.634    73 C    1.219   100 H    0.999
    72   7 N    3.001 --    73 C    1.268    69 C    1.238    55 Co   0.714
    73   6 C    3.935 --    74 C    1.312    72 N    1.268    71 C    1.219
    74   6 C    3.869 --    73 C    1.312    75 C    1.312   112 C    1.194
    75   6 C    3.935 --    74 C    1.312    79 N    1.266    76 C    1.219
    76   6 C    3.833 --    77 C    1.632    75 C    1.219   101 H    0.999
    77   6 C    3.826 --    76 C    1.632    78 C    1.209   102 H    0.997
    78   6 C    3.925 --    80 C    1.367    79 N    1.241    77 C    1.209
    79   7 N    2.999 --    75 C    1.266    78 C    1.241    55 Co   0.713
    80   6 C    3.843 --    78 C    1.367    87 C    1.360    81 C    1.055
    81   6 C    3.907 --    82 C    1.425    86 C    1.425    80 C    1.055
    82   6 C    3.873 --    83 C    1.448    81 C    1.425   103 H    0.990
                            85 C    0.100
    83   6 C    4.000 --    84 N    1.477    82 C    1.448   104 H    0.984
                            86 C    0.100
    84   7 N    2.936 --    83 C    1.477    85 C    1.477
    85   6 C    3.999 --    84 N    1.477    86 C    1.448   105 H    0.984
                            82 C    0.100
    86   6 C    3.871 --    85 C    1.448    81 C    1.425   106 H    0.989
                            83 C    0.100
    87   6 C    3.934 --    80 C    1.360    91 N    1.250    88 C    1.204
    88   6 C    3.835 --    89 C    1.643    87 C    1.204   107 H    0.998
    89   6 C    3.854 --    88 C    1.643    90 C    1.198   108 H    0.994
    90   6 C    3.956 --    56 C    1.393    91 N    1.244    89 C    1.198
    91   7 N    2.991 --    87 C    1.250    90 C    1.244    55 Co   0.715
    92   1 H    1.038 --    56 C    0.997
    93   1 H    1.028 --    58 C    0.995
    94   1 H    1.041 --    59 C    0.999
    95   1 H    1.059 --    64 C    0.989
    96   1 H    1.057 --    65 C    0.984
    97   1 H    1.057 --    67 C    0.984
    98   1 H    1.058 --    68 C    0.989
    99   1 H    1.038 --    70 C    0.998
   100   1 H    1.045 --    71 C    0.999
   101   1 H    1.047 --    76 C    0.999
   102   1 H    1.043 --    77 C    0.997
   103   1 H    1.059 --    82 C    0.990
   104   1 H    1.057 --    83 C    0.984
   105   1 H    1.056 --    85 C    0.984
   106   1 H    1.059 --    86 C    0.989
   107   1 H    1.044 --    88 C    0.998
   108   1 H    1.029 --    89 C    0.994
   109   6 C    3.776 --   110 C    2.643    20 C    1.191
   110   6 C    3.780 --   109 C    2.643   114 C    1.193
   111   6 C    3.779 --   112 C    2.641   132 C    1.197
   112   6 C    3.779 --   111 C    2.641    74 C    1.194
   113  27 Co   3.704 --   130 N    0.714   149 N    0.714   137 N    0.711
                           119 N    0.710
   114   6 C    3.860 --   148 C    1.312   115 C    1.309   110 C    1.193
   115   6 C    3.937 --   114 C    1.309   119 N    1.266   116 C    1.222
   116   6 C    3.831 --   117 C    1.628   115 C    1.222   150 H    0.999
   117   6 C    3.829 --   116 C    1.628   118 C    1.212   151 H    0.998
   118   6 C    3.922 --   120 C    1.361   119 N    1.241   117 C    1.212
   119   7 N    2.990 --   115 C    1.266   118 C    1.241   113 Co   0.710
   120   6 C    3.838 --   127 C    1.365   118 C    1.361   121 C    1.057
   121   6 C    3.906 --   122 C    1.425   126 C    1.425   120 C    1.057
   122   6 C    3.870 --   123 C    1.448   121 C    1.425   152 H    0.989
                           125 C    0.100
   123   6 C    3.999 --   124 N    1.478   122 C    1.448   153 H    0.984
                           126 C    0.100
   124   7 N    2.937 --   123 C    1.478   125 C    1.477
   125   6 C    4.000 --   124 N    1.477   126 C    1.449   154 H    0.984
                           122 C    0.100
   126   6 C    3.870 --   125 C    1.449   121 C    1.425   155 H    0.990
                           123 C    0.100
   127   6 C    3.922 --   120 C    1.365   130 N    1.240   128 C    1.211
   128   6 C    3.829 --   129 C    1.630   127 C    1.211   156 H    0.998
   129   6 C    3.827 --   128 C    1.630   131 C    1.220   157 H    0.999
   130   7 N    2.990 --   131 C    1.266   127 C    1.240   113 Co   0.714
   131   6 C    3.935 --   132 C    1.310   130 N    1.266   129 C    1.220
   132   6 C    3.860 --   131 C    1.310   133 C    1.308   111 C    1.197
   133   6 C    3.935 --   132 C    1.308   137 N    1.265   134 C    1.221
   134   6 C    3.828 --   135 C    1.628   133 C    1.221   158 H    0.999
   135   6 C    3.829 --   134 C    1.628   136 C    1.212   159 H    0.998
   136   6 C    3.921 --   138 C    1.360   137 N    1.243   135 C    1.212
   137   7 N    2.991 --   133 C    1.265   136 C    1.243   113 Co   0.711
   138   6 C    3.839 --   145 C    1.366   136 C    1.360   139 C    1.057
   139   6 C    3.906 --   144 C    1.425   140 C    1.425   138 C    1.057
   140   6 C    3.871 --   141 C    1.449   139 C    1.425   160 H    0.990
                           143 C    0.100
   141   6 C    4.000 --   142 N    1.477   140 C    1.449   161 H    0.984
                           144 C    0.100
   142   7 N    2.937 --   143 C    1.478   141 C    1.477
   143   6 C    3.999 --   142 N    1.478   144 C    1.448   162 H    0.984
                           140 C    0.100
   144   6 C    3.869 --   143 C    1.448   139 C    1.425   163 H    0.990
                           141 C    0.100
   145   6 C    3.922 --   138 C    1.366   149 N    1.239   146 C    1.210
   146   6 C    3.830 --   147 C    1.630   145 C    1.210   164 H    0.998
   147   6 C    3.831 --   146 C    1.630   148 C    1.220   165 H    0.999
   148   6 C    3.937 --   114 C    1.312   149 N    1.266   147 C    1.220
   149   7 N    2.990 --   148 C    1.266   145 C    1.239   113 Co   0.714
   150   1 H    1.044 --   116 C    0.999
   151   1 H    1.043 --   117 C    0.998
   152   1 H    1.058 --   122 C    0.989
   153   1 H    1.056 --   123 C    0.984
   154   1 H    1.056 --   125 C    0.984
   155   1 H    1.058 --   126 C    0.990
   156   1 H    1.043 --   128 C    0.998
   157   1 H    1.039 --   129 C    0.999
   158   1 H    1.040 --   134 C    0.999
   159   1 H    1.043 --   135 C    0.998
   160   1 H    1.058 --   140 C    0.990
   161   1 H    1.056 --   141 C    0.984
   162   1 H    1.056 --   143 C    0.984
   163   1 H    1.058 --   144 C    0.990
   164   1 H    1.044 --   146 C    0.998
   165   1 H    1.044 --   147 C    0.999
 ---------------------------------------------------------------------------

Topologies differ in total number of bonds
Writing topology from bond orders to xtbtopo.mol

 dipole moment from electron density (au)
     X       Y       Z   
 -72.1669   0.0468   0.0935  total (Debye):  183.430


           -------------------------------------------------
          | TOTAL ENERGY             -333.616623942071 Eh   |
          | GRADIENT NORM               0.084493869885 Eh/α |
          | HOMO-LUMO GAP               0.008893768489 eV   |
           -------------------------------------------------
########################################################################
[WARNING] Runtime exception occurred
-1- restart_readRestart: Dimension missmatch in restart file.
########################################################################

------------------------------------------------------------------------
 * finished run on 2022/07/29 at 22:28:53.246     
------------------------------------------------------------------------
 total:
 * wall-time:     0 d,  0 h,  0 min, 22.904 sec
 *  cpu-time:     0 d,  0 h,  0 min, 22.728 sec
 * ratio c/w:     0.992 speedup
 SCF:
 * wall-time:     0 d,  0 h,  0 min, 22.172 sec
 *  cpu-time:     0 d,  0 h,  0 min, 22.003 sec
 * ratio c/w:     0.992 speedup

