512
 energy: -985.503895903361 gnorm: 0.000753707958 xtb: 6.5.1 (b24c23e)
C          115.74199020526825       -0.14015808738984        0.11157148953056
C          116.33397479119435       -1.04837984029396       -0.75642247065452
C          115.66515317889363       -1.95502493063494       -1.62614217764060
C          116.61450268729959       -2.66623304075189       -2.30413394628541
C          117.89459768739380       -2.22597416898737       -1.86110381525448
N          117.67406041393987       -1.24432402049155       -0.93679017535547
C          119.14998927313007       -2.67592060237617       -2.28424284637080
C          119.16387129657714       -3.76346263231449       -3.29482226531649
C          119.74962159370510       -3.54144869722746       -4.54415165431554
C          119.75774630679341       -4.55629193671898       -5.49281477456654
O          120.30608290842910       -4.40960431115748       -6.74013879442503
C          119.19129889073118       -5.79446043627451       -5.20088361873279
O          119.18920952218362       -6.81298293333175       -6.11732635012705
C          118.60927772461211       -6.01833307266337       -3.95204528502383
O          118.06432172595379       -7.22800837793607       -3.67607145728606
C          118.59221440721082       -5.00212018045018       -3.00363074624579
C          120.37431308320321       -2.17952153709158       -1.82929582770242
C          121.66281726310268       -2.71164016745133       -2.23364116691616
C          122.59686035097253       -1.98133665037405       -1.58967047441621
N          120.54808990753284       -1.15924316705681       -0.94459569983519
C          121.87939354050258       -1.01116295610852       -0.78618484814021
C          122.53304187185006       -0.04933932647851        0.00992068862419
C          121.91281413828193        0.91787772208877        0.82269614590744
C          122.57015350962544        1.90529003003773        1.60320866461582
C          121.61525197252722        2.63433473569294        2.25568975717095
C          120.34290265726922        2.10344476253126        1.90589264479236
N          120.57444139529100        1.07576893715888        1.02965792223946
C          119.08918518465302        2.54091008821184        2.34712780842189
C          119.07616143566621        3.66344178159144        3.31735089565926
C          119.71245732410058        3.53395918355136        4.55244179274833
C          119.70028852412216        4.58867464253329        5.45761729112551
O          120.31117935676353        4.47114717655170        6.66205786995777
C          119.05596963453856        5.78184348726119        5.12680420108336
O          119.06490179274924        6.80606087070653        6.03692868886514
C          118.42255310357667        5.91185315290857        3.89340573632935
O          117.81595040819838        7.11360731497054        3.63803417548391
C          118.42729335546593        4.85720413149454        2.98922328860358
C          117.86501121269445        1.99795858803684        1.94234635333727
C          116.57227227978754        2.41403066985030        2.46408473399814
C          115.64616363342577        1.66178107529949        1.83599191641110
C          116.37206902868147        0.78017344825200        0.93909871099130
N          117.70547768974546        1.00445367474577        1.03617016691414
H          114.65705943647713       -0.15696864474401        0.13831296282088
H          114.59379412128796       -2.03709138165996       -1.71713571182132
H          116.44894909717691       -3.42606895289035       -3.05051402512387
H          118.40842239681345       -0.73527089771269       -0.45641575362286
H          120.18069261082167       -2.57625642467977       -4.78275812606963
H          120.66935245001774       -3.52150919341472       -6.85316835465153
H          119.62822050552444       -6.49268322561871       -6.92135155678270
H          118.17739436977304       -7.79865798873682       -4.45413207431155
H          118.15250998652978       -5.19258948445294       -2.03310661221421
H          121.81201363413186       -3.54038459695452       -2.90677247953231
H          123.66993481507511       -2.07317255698969       -1.63808575575903
H          123.63859316549969        2.03669322700267        1.65364160628624
H          121.77588460112045        3.46988054432718        2.91709228364072
H          119.84499076965925        0.51546361419533        0.60118298781299
H          120.20016163110465        2.60764903034166        4.82748179274607
H          120.18606663523850        5.30216876834878        7.14942294146017
H          118.57288455283336        7.54993986261231        5.65425086386447
H          117.39861720144246        7.10978030975677        2.76662761959402
H          117.94597611403168        4.97149538795817        2.02505668752961
H          116.41973411721864        3.16822967976441        3.21939496954241
H          114.57386092559832        1.67272347882283        1.95398166599887
C          198.77159283767935        0.05582821367947        0.34536901824177
C          198.15978464555923        0.96725363029640        1.19609441002431
C          198.80978514094139        1.90395300528428        2.04808115926255
C          197.84618729310904        2.60440082277111        2.71716575803236
C          196.57574878203337        2.11085825619366        2.30353047607190
N          196.81608194198168        1.13353141656134        1.37946533114303
C          195.31132620686057        2.53552655072256        2.72636640618473
C          195.27438001540821        3.59771560841320        3.76230823671916
C          194.65246338759610        4.81815657065228        3.48483123300227
C          194.62041386043916        5.81271027797846        4.45423626427659
O          194.03579452058494        7.03547589074378        4.25228336827364
C          195.19970589243127        5.59572341481171        5.70187243615290
O          195.17842026947099        6.55881261587045        6.67641927234985
C          195.81853713532462        4.37617150320213        5.98110330888146
O          196.37584139420863        4.17324139797502        7.19992513392394
C          195.85872068927642        3.38178969613772        5.01068851493843
C          194.09792610514472        2.03161340957503        2.25022510922536
C          192.79852927499127        2.43323039055255        2.75780879076818
C          191.88185360992884        1.72924856238780        2.06157876504289
N          193.94834377554872        1.08971396469787        1.27890897258603
C          192.62149584857622        0.89310039078478        1.13632581859140
C          191.99029584422297        0.00482360000856        0.24379998098620
C          192.62693267530179       -0.88314088093508       -0.64186073473168
C          191.98568009347215       -1.73362319298177       -1.58149804833351
C          192.95382860777329       -2.41718163374635       -2.26288574006123
C          194.21854252789760       -2.01164518790254       -1.75317205628992
N          193.96893005406849       -1.07883164920542       -0.78125692256831
C          195.48228426908349       -2.44518726378136       -2.16847611529817
C          195.51979220543373       -3.47685224095985       -3.23376606337364
C          194.91492002962192       -4.71846232731127       -3.03571634364189
C          194.95046601017901       -5.67991171937295       -4.03902309754020
O          194.37144263205312       -6.89099685366226       -3.85355789654974
C          195.58596070229012       -5.39886753729694       -5.24966779731872
O          195.60056129497025       -6.36379747598516       -6.22217376161415
C          196.18734983264230       -4.15862550208878       -5.44831844283797
O          196.78719555013089       -3.95385009258383       -6.66324614444278
C          196.15991929196039       -3.19842965570789       -4.44491210154873
C          196.69599021759075       -1.97138927260811       -1.65832633265606
C          198.00212154151691       -2.48113607288067       -2.04605210586876
C          198.91169534181677       -1.77890059712941       -1.34051273992907
C          198.16254040933268       -0.84732300911984       -0.51618130332557
N          196.83194990929437       -0.99778877445240       -0.72699562498130
H          199.85689703223250        0.05678490255334        0.36176839281088
H          199.87902055336315        2.02087655517236        2.12503133265808
H          197.99599550219651        3.39864270548846        3.43032986404240
H          196.09142755017956        0.60975338247781        0.90008717633318
H          194.21157588405040        4.99897740804133        2.51156559888146
H          193.65698158906312        7.09269638855541        3.36527539224094
H          194.71237956384147        7.33241212039608        6.32125799978685
H          196.24159643868191        4.97371795842671        7.73370987377226
H          196.32589619094179        2.43390512224702        5.24482517150387
H          192.63116605293936        3.14292265246712        3.55184999843118
H          190.80813100096779        1.74544263088874        2.15937699404056
H          190.91882810121695       -1.79889575506584       -1.72105767954244
H          192.80778528712150       -3.13141906578484       -3.05656758733635
H          194.69024864009310       -0.59703879550644       -0.25476229166259
H          194.43398848236723       -4.95456406264185       -2.09524739903104
H          194.50275706247592       -7.41907188489702       -4.65831096677752
H          196.07934850128763       -6.00898610840846       -6.98810526088582
H          197.17947193993180       -3.07205237801653       -6.70833879351573
H          196.61612090369411       -2.22988623335879       -4.61277299539587
H          198.17463953615777       -3.27939674644948       -2.75005485280690
H          199.98696913189667       -1.86617830136710       -1.34918057745580
C          123.94274325518900       -0.04147146085120       -0.00164473081800
C          125.15986465913775       -0.02651346847744       -0.00524240313161
C          134.84134353460968        0.02364449685866        0.01228844028740
C          136.05926889572865        0.03014407143108        0.01407610959471
C          145.74165372734439        0.05055614469736        0.01189844186941
C          146.96023450870973        0.05264346057166        0.01495183992745
C          156.64749958770460        0.04315265015260        0.04015408738946
C          157.86620949484254        0.04173275968573        0.04313190053356
C          167.55348857939086        0.01918897530692        0.05451769264509
C          168.77226764941497        0.01730241399318        0.05219292900267
C          178.46225422535298        0.00744694004077        0.07136803318693
C          179.68098401862815        0.00820842265979        0.07892224066400
C          189.36336145616042       -0.00751681957093        0.20561252661114
C          190.57983527321935       -0.00201642167659        0.22398373543265
C          126.56873638558605       -0.02051576524652       -0.00758524366575
C          127.20171872370148       -1.24706854800895       -0.28494857597042
C          126.56525724527307       -2.49649472338696       -0.49845244341313
C          127.53574876171956       -3.42588188403949       -0.75755338333695
C          128.79456202866075       -2.76789961974392       -0.71646100606901
N          128.54316061298761       -1.45681474881655       -0.41180510365730
C          130.05578342104582       -3.33380023014440       -0.94381847835010
C          130.08026362389688       -4.76413538644057       -1.33554559475251
C          130.76325012894515       -5.69417131716290       -0.55036230202724
C          130.79519019356388       -7.04144448908301       -0.89893418120617
O          131.44825571571025       -7.95665196347938       -0.13666371989067
C          130.14362133920119       -7.47337497002846       -2.05899790991841
O          130.16253534772781       -8.77948874185393       -2.43020046953837
C          129.46549106760961       -6.53565800119380       -2.84246949787457
O          128.85319985052377       -7.02321636923671       -3.96847857288585
C          129.42260943150927       -5.19394797839830       -2.49000312882386
C          131.27515000512537       -2.66333090318859       -0.83076808658765
C          132.55638644571883       -3.25270430863009       -1.17391740729433
C          133.49082240931455       -2.31557490071834       -0.90963833653576
N          131.45136120973731       -1.38533766724539       -0.39408420178175
C          132.78010087895524       -1.15627634908898       -0.40981717164917
C          133.43429543540404        0.02010006835399        0.00980701487737
C          132.80028095852589        1.20339355521608        0.43507240824205
C          133.43654265125633        2.37270716876773        0.92488443290252
C          132.46636293884850        3.29727064844154        1.20042270784844
C          131.20763636225860        2.72058215856291        0.87924010834505
N          131.45932997365560        1.44886133547697        0.43747522283427
C          129.94702488278654        3.32128048598060        0.98537489212442
C          129.92440061730781        4.73991992925771        1.42024470737852
C          130.59079707776652        5.71496429720022        0.67684733317849
C          130.56781764128451        7.04260163704956        1.08760808018533
O          131.20644733541673        7.99794408303873        0.36877779458125
C          129.88328802399857        7.39895404312438        2.25078276392424
O          129.88213270250691        8.71421096026140        2.63420563304297
C          129.22061006721736        6.42546571325928        2.99439358643434
O          128.57520675954115        6.85055662980725        4.12560618515517
C          129.23548603324843        5.09892287461259        2.58236618022251
C          128.72724641920678        2.69522804317787        0.71909134422467
C          127.44581147429942        3.37657239562030        0.74515713593353
C          126.51109210694914        2.44324638077282        0.46877073081436
C          127.22181005125233        1.19661519029587        0.26939681433815
N          128.55142538836063        1.38247861034050        0.40447694326294
H          125.50151624982674       -2.66091783250444       -0.44588519739449
H          127.39358225227161       -4.47727659718163       -0.94714496708021
H          129.25827839811299       -0.74815378931675       -0.28697669421959
H          131.26152150137764       -5.37197017793831        0.35705439437900
H          131.85200802782660       -7.54170645404749        0.63693283817225
H          129.65599866277529       -8.86862312111435       -3.25358337308892
H          128.41343760315641       -6.31432899108735       -4.45543691766486
H          128.90309020740446       -4.48488356132014       -3.12394220287206
H          132.69958657804628       -4.24062896819232       -1.58086658058517
H          134.55822316284707       -2.37564430812590       -1.04818961507190
H          134.50017487657016        2.48259305651188        1.05887739268013
H          132.60851306947049        4.28772600132675        1.60067490343341
H          130.74479658280615        0.78489722589263        0.15872733148743
H          131.11053239764996        5.45349135332471       -0.23591354875968
H          131.07073578746670        8.85314341436215        0.80920546172174
H          129.36177697156450        8.78691493426621        3.45024858696832
H          128.13975303073912        6.11218446872046        4.57158281059563
H          128.72993724452186        4.34479078610697        3.17400658460972
H          127.30231211375248        4.42898342816529        0.92949106037481
H          125.44345826429570        2.56758047493155        0.38514267739223
C          137.46606149062077        0.03197904926521        0.01324807227829
C          138.09749232741689       -1.22741580979072        0.02530719259713
C          137.46143432898421       -2.49148235968652        0.11485320720020
C          138.42951067149107       -3.45684456638200        0.04699604705924
C          139.68572292146393       -2.80827628058388       -0.09391880040629
N          139.43627323968437       -1.46179916797213       -0.08019722022446
C          140.94250390724872       -3.41054059946832       -0.23936795304602
C          140.96395056729313       -4.89013811060894       -0.32911642525325
C          141.70094758908039       -5.63626383254095        0.59220067750504
C          141.73117772558882       -7.02635960411714        0.52963351765049
O          142.43711813307357       -7.76222056971363        1.42702598031316
C          141.02149321534952       -7.69092421955707       -0.47608732713717
O          141.03565592733460       -9.04538825404298       -0.56750686125921
C          140.28922581693038       -6.93740984875027       -1.39777550696734
O          139.62187694695433       -7.64994377109757       -2.36017572090921
C          140.24951511027734       -5.55181530863490       -1.33043424100754
C          142.16081505867800       -2.73082730362726       -0.30270877174881
C          143.43306733488777       -3.37451509657296       -0.57241619008993
C          144.37189005393472       -2.40704519583222       -0.50645276181220
N          142.34527035135906       -1.39471960146608       -0.11242365309652
C          143.67315596132471       -1.17613778942300       -0.20036707113162
C          144.33533635437152        0.05159290383660        0.00913006738187
C          143.70240122473984        1.29303713533844        0.21885322943553
C          144.33661378737472        2.52930794378446        0.50107129796937
C          143.36874866673696        3.49417401167800        0.57284697917173
C          142.11354957522462        2.87380261743696        0.33142351077637
N          142.36361812985186        1.54019763451811        0.14612813603569
C          140.85740382057557        3.49231422715273        0.27600054987635
C          140.84201452206725        4.97070452722084        0.39604962245361
C          141.55589111429754        5.75744325902982       -0.50912843753995
C          141.53794712996074        7.14251182353106       -0.39578927070222
O          142.22188537481293        7.91492499785473       -1.27456397721326
C          140.81114607773466        7.74693556202502        0.63140214664835
O          140.81622250830250        9.11367948010492        0.72176932457524
C          140.10126530906570        6.96202409916219        1.53675775225746
O          139.41620830830664        7.62605278563975        2.51999800740497
C          140.11107104426540        5.57784001532151        1.42151351417000
C          139.63756046889665        2.83101750485063        0.12034910463901
C          138.36261337842609        3.50706121954492       -0.03583974293274
C          137.42346910312381        2.54040505192418       -0.10635954310922
C          138.12555045951342        1.27767457450251       -0.00035596735295
N          139.45417199954849        1.48149228626818        0.10863337963590
H          136.40010077684147       -2.63837965458767        0.23010443887252
H          138.28684654271527       -4.52363344187902        0.10291378352478
H          140.15056771326533       -0.74352846737728       -0.13454201564202
H          142.24330880949046       -5.13198891922936        1.38405251795264
H          142.88217849572300       -7.19507445174603        2.07030734291975
H          140.48454652124252       -9.30518985908117       -1.32342057154233
H          139.14243812311062       -7.06046737468357       -2.95662187494037
H          139.68825064181391       -4.99090298163638       -2.06854542084909
H          143.56767521773986       -4.41910419571052       -0.80210219418156
H          145.43447878543867       -2.49289566117866       -0.66515884155026
H          145.39705808517280        2.65719635970773        0.64199400998490
H          143.51057039526461        4.54109065739506        0.78544798140928
H          141.65024813147485        0.83866155636119       -0.02096372456497
H          142.10869192769667        5.30143569298454       -1.32034014230984
H          142.08055926988038        8.84631250070370       -1.03729777468116
H          140.25985285060202        9.36561092787305        1.47602558720863
H          138.94263712266641        7.00501454094292        3.08881823257623
H          139.56892397055390        4.97305268674144        2.13885874082119
H          138.22633960760942        4.57428614785488       -0.10300822928064
H          136.35859934129414        2.64766958923880       -0.23579735634270
C          148.36632719360082        0.04892184865524        0.01675913019818
C          148.99680532701291       -1.20855226041608        0.10715747894094
C          148.36318342206448       -2.46530659429975        0.27545283185970
C          149.33021753934887       -3.43382778861605        0.24322021456410
C          150.58366411130777       -2.79444940340486        0.04849627625062
N          150.33429095280613       -1.44879719714639       -0.00207079740494
C          151.83691275879190       -3.40528885272544       -0.09406756184323
C          151.85248396889111       -4.88671890619101       -0.13626471369433
C          152.60941200577500       -5.60727107931962        0.78930949785067
C          152.63526409514191       -6.99866219919097        0.76724791658771
O          153.36087567185623       -7.70961409054989        1.66898722451165
C          151.90076805845459       -7.69095999019274       -0.20133382541881
O          151.91041484602601       -9.04744916023248       -0.25289141532757
C          151.14840499007590       -6.96310914209071       -1.12747812530658
O          150.45748057251765       -7.70182681525490       -2.05275704844021
C          151.11299516322444       -5.57613248402205       -1.10016770361890
C          153.05580683220626       -2.73166635197544       -0.19751227863489
C          154.32309868904460       -3.38617353994729       -0.46418164133591
C          155.26584443145256       -2.42071244329880       -0.43060652607621
N          153.24632673072730       -1.39161379836265       -0.04439201509320
C          154.57418295143836       -1.18038605297334       -0.14798367599240
C          155.24159601771456        0.04885425589442        0.03532489016988
C          154.61048160815974        1.29594566165602        0.21636154907890
C          155.24311399899727        2.53680086048811        0.48027330765636
C          154.27628234267948        3.50503092130399        0.51575899900766
C          153.02373868846746        2.88196722368321        0.26815139693241
N          153.27337252555890        1.54377522392581        0.11962055550139
C          151.77085500630199        3.50138092437730        0.16561538778816
C          151.75555630863596        4.98240631236488        0.24051679861469
C          152.50028131213861        5.74240956268413       -0.66265494458335
C          152.48275383659913        7.13013940328720       -0.58807788867657
O          153.19711258782581        7.87648019321735       -1.46513193024975
C          151.72515259874180        7.76430577057462        0.39812582471736
O          151.73185984359023        9.13296984016348        0.45124445084516
C          150.98375477785086        7.00618575530980        1.30109306960798
O          150.26913423158149        7.69840391132516        2.24309343275725
C          150.99313416076856        5.61945776574269        1.22430393283937
C          150.55291567265431        2.83795507881492        0.00377969115604
C          149.28680017273129        3.51122655101824       -0.21985959149147
C          148.34378038026603        2.54660691519642       -0.26339896678228
C          149.03407452858585        1.28813217854680       -0.07058710764084
N          150.36142683359046        1.49035843642518        0.05535141670073
H          147.30432661374974       -2.60573474043381        0.41635128036763
H          149.18860435317893       -4.49605961704080        0.35798372083206
H          151.04721975872596       -0.73431840709891       -0.10338676826876
H          153.17111773868811       -5.08137185040343        1.55309716754717
H          153.82273482370462       -7.12502393931036        2.28419030645942
H          151.34046372491665       -9.32835689539110       -0.98695092790173
H          149.96553784234905       -7.12879507073840       -2.65501627469156
H          150.53564385869581       -5.03587435993959       -1.84129262189923
H          154.45209435365268       -4.43646812942373       -0.66984591529256
H          156.32657113892256       -2.51385667669896       -0.59728751254314
H          156.30150419170980        2.66623947106124        0.63448267518572
H          154.41761525859505        4.55610456964235        0.70714518161684
H          152.56121251751875        0.83945117350725       -0.04063293267153
H          153.07726776809341        5.26328264334991       -1.44310175801858
H          153.05122889206814        8.81438465995375       -1.25822967944444
H          151.15302829001209        9.40692146537085        1.18050587803054
H          149.77779779132678        7.09367573216605        2.81443784691896
H          150.42619558129368        5.03571015333677        1.93993221941125
H          149.15944452081916        4.57397694252913       -0.34797537135441
H          147.28393673466414        2.65217817241658       -0.42848232791841
C          159.27204634700797        0.03527093285286        0.04438999328865
C          159.90132624110268       -1.22294158990990        0.13431871139926
C          159.26686319743342       -2.47910655082326        0.30329261913045
C          160.23272945768858       -3.44868997381983        0.26744011851718
C          161.48630605865239       -2.81056157670010        0.06953543539185
N          161.23821717372704       -1.46452507665940        0.02132524217847
C          162.73835149231368       -3.42254316217358       -0.07872634586730
C          162.75193691943036       -4.90376321577073       -0.12453230337200
C          163.51333495318590       -5.62766733102007        0.79473995166477
C          163.53595718822231       -7.01909523440020        0.76998409428640
O          164.26566639185390       -7.73328540139553        1.66584641195445
C          162.79355795392391       -7.70808136061716       -0.19492402858715
O          162.79934968511557       -9.06448804344425       -0.24844041486884
C          162.03725386118381       -6.97687911375614       -1.11524363364703
O          161.33882712072028       -7.71234749368402       -2.03748894909515
C          162.00520484510741       -5.58993133286071       -1.08527590839171
C          163.95761509550138       -2.74986005050616       -0.18520291224487
C          165.22283297672632       -3.40449954844688       -0.46112023252639
C          166.16678780348587       -2.44015008542587       -0.42764604561498
N          164.15031849243240       -1.41081887178080       -0.02693415846426
C          165.47801652402913       -1.20061513201046       -0.13517034194853
C          166.14764306249884        0.02651937079306        0.05440287590734
C          165.51811274489853        1.27292325782436        0.24594409340569
C          166.15197310740777        2.51121069769543        0.51872565422157
C          165.18618664796844        3.48029365856845        0.56071569687197
C          163.93313572059361        2.86043079000972        0.30804817863033
N          164.18124048202944        1.52294383158951        0.15089665605572
C          162.68119343900742        3.48200633815477        0.20642776392285
C          162.66641775160645        4.96254173304862        0.29014974920302
C          163.41380320379096        5.72842777666312       -0.60575205724920
C          163.39519547068539        7.11569687710034       -0.52264609317243
O          164.11189632719103        7.86787514022707       -1.39282492767731
C          162.63404684573723        7.74346886883694        0.46488810843485
O          162.63966276248772        9.11179091141532        0.52628136074947
C          161.89016404049767        6.97941961952828        1.36081572935226
O          161.17208586968573        7.66543881618068        2.30473081258000
C          161.90044958743169        5.59325586374286        1.27535688154991
C          161.46297788924437        2.82082251481330        0.03816303868292
C          160.19852572630307        3.49645030419457       -0.18746908335684
C          159.25422807723101        2.53326835585279       -0.23556241944442
C          159.94203458186090        1.27348453905688       -0.04281732947482
N          161.26934828410870        1.47331136885341        0.08613933561293
H          158.20827540090218       -2.61845539063407        0.44705946630650
H          160.09017293299158       -4.51085328558696        0.38158070941311
H          161.95182870154221       -0.75086357565660       -0.08084968282138
H          164.08094838208737       -5.10451399667162        1.55604907734693
H          164.73352655891267       -7.15078090263679        2.27849201681695
H          162.22370881368246       -9.34303422319655       -0.97891489200976
H          160.84386449782465       -7.13705033927674       -2.63510026156494
H          161.42465595826738       -5.04696908463469       -1.82191587141613
H          165.34964685593837       -4.45392956700636       -0.67245564804172
H          167.22654990637719       -2.53365425215892       -0.60010175109653
H          167.21042969709674        2.63826972145251        0.67434234579058
H          165.32851750089685        4.52987011454292        0.75948146503656
H          163.46827307399869        0.82061225369318       -0.01437556969522
H          163.99356743183995        5.25464267669132       -1.38739533715904
H          163.96432588904202        8.80436333432487       -1.18077116879748