122
 energy: -220.302368009547 gnorm: 4.438704830789 xtb: 6.5.1 (b24c23e)
Cu          15.95484300000000       -0.03090600000000       -0.00247300000000
C           12.61684700000000        0.09224900000000        0.06960500000000
C           13.27882100000000        1.24169300000000        0.23052700000000
C           12.62795100000000        2.53900000000000        0.36770200000000
C           13.56792000000000        3.44965800000000        0.54038900000000
C           14.87299700000000        2.77424200000000        0.53439300000000
N           14.69621100000000        1.37222400000000        0.32730800000000
C           16.06493100000000        3.38009600000000        0.71604700000000
C           16.11414100000000        4.83856100000000        0.96831700000000
C           15.63146200000000        5.36770400000000        2.17602500000000
C           15.69441600000000        6.74355000000000        2.41650900000000
C           16.24525100000000        7.60009500000000        1.45484800000000
C           16.31126300000000        9.01631700000000        1.70356200000000
N           16.36432200000000       10.15489300000000        1.90360800000000
C           16.73435900000000        7.07509100000000        0.25191500000000
C           16.67104200000000        5.69943500000000        0.01012100000000
C           17.35636400000000        2.64437200000000        0.68453100000000
C           18.63970600000000        3.22945100000000        1.09182400000000
C           19.57450700000000        2.31955700000000        0.90701400000000
N           17.49939300000000        1.42252600000000        0.27094000000000
C           18.89472300000000        1.14182200000000        0.38183000000000
C           19.48928300000000       -0.00021200000000        0.00005800000000
C           18.72607000000000       -1.16030300000000       -0.51136900000000
C           19.25698800000000       -2.15282300000000       -1.21422600000000
C           18.21437200000000       -3.13861900000000       -1.42372000000000
C           17.11646400000000       -2.68472600000000       -0.83020500000000
N           17.34986000000000       -1.41140200000000       -0.22629900000000
C           15.83797100000000       -3.43606300000000       -0.74408400000000
C           15.86122900000000       -4.90160200000000       -0.97162600000000
C           15.17705900000000       -5.46564500000000       -2.06107000000000
C           15.21894100000000       -6.84564100000000       -2.28143400000000
C           15.95059500000000       -7.67251700000000       -1.41982900000000
C           15.99461100000000       -9.09308000000000       -1.64786500000000
N           16.03003400000000      -10.23516300000000       -1.83112100000000
C           16.64232600000000       -7.11356800000000       -0.33791200000000
C           16.60040900000000       -5.73374100000000       -0.11619300000000
C           14.67564900000000       -2.81692900000000       -0.46140000000000
C           13.36836100000000       -3.45469600000000       -0.31442100000000
C           12.50638000000000       -2.47974300000000       -0.09902500000000
C           13.25459000000000       -1.22376500000000       -0.09411600000000
N           14.51961500000000       -1.40808600000000       -0.30436900000000
H           11.53348600000000        0.12007500000000        0.06024900000000
H           11.56460000000000        2.73814100000000        0.33049500000000
H           13.37988500000000        4.50841300000000        0.66165000000000
H           15.20915700000000        4.71392500000000        2.92929600000000
H           15.31633200000000        7.13860500000000        3.35181100000000
H           17.16518900000000        7.72823700000000       -0.49742600000000
H           17.05408900000000        5.30420500000000       -0.92275900000000
H           18.81037300000000        4.22555300000000        1.47860700000000
H           20.62828500000000        2.45155400000000        1.11323700000000
H           20.28275700000000       -2.23322100000000       -1.54825800000000
H           18.32348600000000       -4.08107700000000       -1.94459100000000
H           14.61570500000000       -4.83559400000000       -2.74010200000000
H           14.68421600000000       -7.26687600000000       -3.12429200000000
H           17.21424700000000       -7.74356300000000        0.33276100000000
H           17.14077800000000       -5.31317400000000        0.72312000000000
H           13.12676500000000       -4.50816300000000       -0.36555200000000
H           11.44176200000000       -2.60262000000000        0.05082500000000
Cu          31.27282400000000        0.03030100000000       -0.00413100000000
C           34.61082000000000       -0.08877200000000        0.07450900000000
C           33.94884600000000       -1.22781800000000        0.29742100000000
C           34.59971599999999       -2.51579700000000        0.50462700000000
C           33.65974700000000       -3.41577000000000        0.72636000000000
C           32.35467000000000       -2.74167000000000        0.68380800000000
N           32.53145600000000       -1.35291800000000        0.40112700000000
C           31.16273600000000       -3.33680100000000        0.89799400000000
C           31.11352600000000       -4.77947000000000        1.22885100000000
C           31.59620500000000       -5.24245600000000        2.46343300000000
C           31.53325100000000       -6.60326600000000        2.77804900000000
C           30.98241600000000       -7.51061500000000        1.86416800000000
C           30.91640400000000       -8.91129600000000        2.18918600000000
N           30.86334500000000      -10.03737200000000        2.45057800000000
C           30.49330800000000       -7.05150500000000        0.63457700000000
C           30.55662500000000       -5.69095500000000        0.31866500000000
C           29.87130300000000       -2.60386200000000        0.82669500000000
C           28.58796100000000       -3.16603400000000        1.26506600000000
C           27.65316000000000       -2.26747900000000        1.03126800000000
N           29.72827400000000       -1.40619800000000        0.34756400000000
C           28.33294400000000       -1.11990300000000        0.44309600000000
C           27.73838400000000       -0.00021200000000        0.00005800000000
C           28.50159700000000        1.13049200000000       -0.57342200000000
C           27.97067900000000        2.08350600000000       -1.32897900000000
C           29.01329500000000        3.05651600000000       -1.59153400000000
C           30.11120300000000        2.63541900000000       -0.97431700000000
N           29.87780700000000        1.39665500000000       -0.30236400000000
C           31.38969600000000        3.39031600000000       -0.92899700000000
C           31.36643800000000        4.84138800000000       -1.23554400000000
C           32.05060800000000        5.34562400000000       -2.35392700000000
C           32.00872600000000        6.71166800000000       -2.64867600000000
C           31.27707200000000        7.58397500000000       -1.83309700000000
C           31.23305600000000        8.99011000000000       -2.13770400000000
N           31.19763300000000       10.12059700000000       -2.38251900000000
C           30.58534100000000        7.08441700000000       -0.72250800000000
C           30.62725800000000        5.71861600000000       -0.42641600000000
C           32.55201800000000        2.78739400000000       -0.61321000000000
C           33.85930600000000        3.43218200000000       -0.50097300000000
C           34.72128700000000        2.47032000000000       -0.23311300000000
C           33.97307700000000        1.21644900000000       -0.16021700000000
N           32.70805200000000        1.38911700000000       -0.38014000000000
H           35.69418100000000       -0.11706400000000        0.06667200000000
H           35.66306700000000       -2.71666000000000        0.47825500000000
H           33.84778200000000       -4.46640900000000        0.90476000000000
H           32.01851000000000       -4.54885700000000        3.18020700000000
H           31.91133500000000       -6.94710800000000        3.73336500000000
H           30.06247800000000       -7.74425900000000       -0.07830600000000
H           30.17357800000000       -5.34680800000000       -0.63424300000000
H           28.41729399999999       -4.13973600000000        1.70520700000000
H           26.59938199999999       -2.38811800000000        1.24433500000000
H           26.94491000000000        2.14570300000000       -1.66687500000000
H           28.90418100000000        3.96939300000000       -2.16266300000000
H           32.61196200000000        4.67973800000000       -2.99785400000000
H           32.54345100000000        7.08665500000000       -3.51310200000000
H           30.01342000000000        7.74979600000000       -0.08692400000000
H           30.08688900000000        5.34410300000000        0.43443500000000
H           34.10090200000000        4.48133600000000       -0.60906000000000
H           35.78590500000000        2.60112900000000       -0.09013500000000
C           24.21782200000000        0.00128800000000        0.00843900000000
C           23.00888300000000       -0.01216700000000       -0.00000800000000
C           21.58735400000000       -0.00334800000000       -0.01199200000000
C           20.37568500000000        0.00409100000000       -0.00112900000000
C           25.63442700000000       -0.00538700000000        0.00897200000000
C           26.85512200000000        0.00409100000000       -0.00112900000000
122
 energy: -221.487759868811 gnorm: 0.645681138174 xtb: 6.5.1 (b24c23e)
Cu          15.95713369298134       -0.03054505206290       -0.00235580051647
C           12.61727042934397        0.08512345400616        0.06872857154082
C           13.28276871588910        1.24379595768029        0.23082401853448
C           12.62687421489431        2.53643015737515        0.36731435349678
C           13.57135867206143        3.45096197670746        0.54068687021168
C           14.87093528106726        2.77104199589772        0.53365877949716
N           14.68927106506683        1.37854903773888        0.32837425861807
C           16.07082122685555        3.37881630068791        0.71639858646017
C           16.11490120567588        4.83921787568098        0.96875706504459
C           15.63175636042983        5.36917383997191        2.17508162624650
C           15.69453295691241        6.74236065053562        2.41581921329995
C           16.24528839299396        7.60088513046645        1.45498788674729
C           16.31128266363045        9.01653010114949        1.70360356531096
N           16.36421427856449       10.15270825727535        1.90322347949299
C           16.73405815896642        7.07375640540282        0.25212512043009
C           16.67082108561926        5.70058805873107        0.01145218456161
C           17.35294191569439        2.65336991734139        0.68651637025470
C           18.63385156284494        3.23378866293504        1.09208310334704
C           19.57492033436663        2.31409959060008        0.90523678989051
N           17.50076418291518        1.42194673970393        0.27187196469849
C           18.86803994802539        1.15600621173906        0.38649488005917
C           19.32512709858200       -0.00470221195898       -0.00196002154793
C           18.70344868479874       -1.16263219055593       -0.50991807705915
C           19.25711463237034       -2.16015077114316       -1.21773587027836
C           18.22286115442651       -3.13911225168555       -1.42581913542261
C           17.10981231899791       -2.68225352846802       -0.82575406747557
N           17.35007493273031       -1.41533206745011       -0.22926542241632
C           15.84255010111281       -3.43384464633878       -0.74413567101773
C           15.86226220486656       -4.90161726998928       -0.97220079577719
C           15.17753628366972       -5.46692858158564       -2.06011473460052
C           15.21917646645979       -6.84438011265701       -2.28077811358201
C           15.95061584461044       -7.67331309777625       -1.41995954307498
C           15.99463506840472       -9.09331423126463       -1.64791531213319
N           16.02995601669870      -10.23295900723404       -1.83076404858731
C           16.64192450465689       -7.11217706445651       -0.33805564864271
C           16.59999463184585       -5.73481692181858       -0.11739864089069
C           14.67428168966670       -2.81628834225004       -0.46103484756969
C           13.37168371410006       -3.45572975935441       -0.31505440856110
C           12.50337907066445       -2.47564070835890       -0.09823522254184
C           13.24709105610459       -1.21952002522265       -0.09324497093496
N           14.52137999033304       -1.41235538858664       -0.30503421748843
H           11.53360019364840        0.11938663520557        0.06034816897889
H           11.56463914168850        2.73689865757101        0.33031885990219
H           13.38135320941459        4.50847430917805        0.66177302007435
H           15.20929650255332        4.71392377965949        2.92904084012841
H           15.31644483205800        7.13866439958388        3.35163738381987
H           17.16508333434025        7.72824457863405       -0.49724054167918
H           17.05396020355407        5.30413018580082       -0.92251464078869
H           18.80919464829839        4.22597879464678        1.47856871971301
H           20.62806366711504        2.44975341649285        1.11263142962318
H           20.28264751398319       -2.23325519428121       -1.54841895393953
H           18.32407784311757       -4.08082307381518       -1.94478857595499
H           14.61588777382251       -4.83557147468808       -2.73988682033700
H           14.68436095720697       -7.26690783167786       -3.12413511984531
H           17.21410871591214       -7.74355253195702        0.33259244385582
H           17.14061753903284       -5.31309875716888        0.72289493937317
H           13.12816714599407       -4.50806512197211       -0.36571645243749
H           11.44151687210876       -2.60154922246878        0.05096460901123
Cu          31.27053759191381        0.02994456801996       -0.00399583182522
C           34.61039758278970       -0.08170096451482        0.07324691124851
C           33.94489636548808       -1.22990484276071        0.29783065411031
C           34.60079324270309       -2.51325002048107        0.50410135884002
C           33.65630580114610       -3.41705673792552        0.72672555431467
C           32.35673282721579       -2.73852032984133        0.68290137623320
N           32.53839841832910       -1.35917085370733        0.40254069220275
C           31.15684819678757       -3.33550244936484        0.89827971677947
C           31.11276572908644       -4.78010109895104        1.22932563205343
C           31.59591068278223       -5.24397459786327        2.46257059766771
C           31.53313396410466       -6.60211554696786        2.77729564754368
C           30.98237859650129       -7.51139647931148        1.86435046911960
C           30.91638430294752       -8.91150633372510        2.18923904207730
N           30.86345275112684      -10.03521146441269        2.45007579341500
C           30.49360899320729       -7.05016067770180        0.63471453479861
C           30.55684589997409       -5.69203415558645        0.32005660763949
C           29.87471541095346       -2.61276374870202        0.82918064456259
C           28.59383994337639       -3.17035895663200        1.26555540749896
C           27.65274477366079       -2.26208827443042        1.02919016027878
N           29.72689294020040       -1.40556568430122        0.34844679044793
C           28.35984700433378       -1.13406695267622        0.44851917301724
C           27.90418119667777        0.00304640293457       -0.00244505535445
C           28.52441659239039        1.13291204796057       -0.57220127639603
C           27.97055633756778        2.09060889215655       -1.33286657674800
C           29.00482064891785        3.05690232058660       -1.59365109951108
C           30.11784555039950        2.63320456355096       -0.96974634722473
N           29.87760978953647        1.40043460594132       -0.30553845759253
C           31.38512343498447        3.38809967483361       -0.92892801775593
C           31.36540494156927        4.84137176193851       -1.23611839311987
C           32.05013068945266        5.34695763619747       -2.35304257870579
C           32.00849050937340        6.71044425415521       -2.64795270184768
C           31.27705123662919        7.58476298961917       -1.83327065644316
C           31.23303195774865        8.99034094109913       -2.13776682902983
N           31.19771094707428       10.11841573330421       -2.38204330517345
C           30.58574241072035        7.08302020765456       -0.72257601469708
C           30.62767216708914        5.71962536716172       -0.42767800684390
C           32.55338253366528        2.78677659105248       -0.61281129767103
C           33.85598472372008        3.43318011403342       -0.50166061467481
C           34.72428763326605        2.46626801583137       -0.23210227107260
C           33.98057603581336        1.21225537469102       -0.15911647695971
N           32.70628707882671        1.39334085149200       -0.38103992175811
H           35.69406688575914       -0.11637102488095        0.06673408653303
H           35.66302787238781       -2.71542883755661        0.47801164450496
H           33.84631373751817       -4.46646343336788        0.90488628974197
H           32.01837046935909       -4.54886959928546        3.17995216186936
H           31.91122219689072       -6.94717669597079        3.73319492546376
H           30.06258363707144       -7.74425652270459       -0.07812041421358
H           30.17370669783297       -5.34672000932156       -0.63400302063430
H           28.41847201286207       -4.14016198369241        1.70519199399180
H           26.59960172298512       -2.38634511814764        1.24362704215035
H           26.94502056129270        2.14572303390350       -1.66703605668069
H           28.90358920375117        3.96912849820021       -2.16284635317376
H           32.61177927834741        4.67972709366354       -2.99763794512383
H           32.54330604754677        7.08669529568240       -3.51294707782825
H           30.01355830321653        7.74977643592247       -0.08709171364323
H           30.08704945286140        5.34401572385053        0.43421431461084
H           34.09949998216127        4.48122946795198       -0.60921883741374
H           35.78615008849906        2.60006744608219       -0.08993750734306
C           24.22488321813135        0.00105824641316        0.00851699572291
C           23.00171463731353       -0.01197332066683       -0.00007826964132
C           21.64350349484584       -0.00443552818588       -0.01241630308577
C           20.53378731721646       -0.00149940970912       -0.00181052198826
C           25.58034941697078       -0.00446471635599        0.00872276774204
C           26.69295342738030        0.01113457366642       -0.00215066212776
122
 energy: -221.629270751293 gnorm: 0.398861771719 xtb: 6.5.1 (b24c23e)
Cu          15.95881216257731       -0.02453147401813        0.00085454034845
C           12.61817379521449        0.06919626310606        0.06692485991880
C           13.28553590840212        1.24430818045006        0.23048913713892
C           12.62699681621886        2.53030372277116        0.36625541844278
C           13.57980143988155        3.45265091924555        0.54162585259297
C           14.86807275962505        2.76930181215192        0.53338507463678
N           14.66758025044256        1.40003106764169        0.32999952348062
C           16.07908105181417        3.38254287727193        0.71899757699108
C           16.11967962253934        4.84307815150717        0.97178967241823
C           15.63196171603272        5.37392268301406        2.17162495606300
C           15.69476209007490        6.74089373597609        2.41312587542252
C           16.24528129728247        7.60131437383478        1.45506036067328
C           16.31115780265654        9.01214041784809        1.70287099844150
N           16.36378185658181       10.14487389007615        1.90185546259245
C           16.73282993895235        7.07168957824304        0.25378165222091
C           16.67153034980158        5.70401068120771        0.01660868868357
C           17.33595750177839        2.68714836085138        0.69269105407066
C           18.61651633721240        3.25143560655897        1.09373047372036
C           19.55776467246714        2.31218343907586        0.90338646046668
N           17.48051028001431        1.44288246357270        0.28506477340328
C           18.82270465913341        1.17505950018725        0.39651906011825
C           19.27120159510693       -0.02163716128174       -0.00982577655894
C           18.65794742062372       -1.17395543342809       -0.50965008024876
C           19.24912126876176       -2.18612967609904       -1.22440995057349
C           18.24145130978962       -3.14727873203311       -1.42784289351871
C           17.09795270182516       -2.68696742308394       -0.81751477731733
N           17.32873291954419       -1.43391613915332       -0.24431602120521
C           15.85449061689517       -3.42848220491303       -0.74272563660103
C           15.87150371899358       -4.89882005656020       -0.97696451486063
C           15.17966535435088       -5.46884052014688       -2.05557920672517
C           15.22014294547882       -6.84118687626608       -2.27741929580606
C           15.95062243008086       -7.67307753317054       -1.41989150336145
C           15.99465313880204       -9.08856125332823       -1.64728516271424
N           16.02961541535005      -10.22483017276398       -1.82945194937046
C           16.63980590234100       -7.10885222044058       -0.33926240026494
C           16.60038063771495       -5.73621230237457       -0.12269798183796
C           14.67251238467982       -2.81537939181078       -0.45964158605045
C           13.37702149647084       -3.45173881808551       -0.31633901181712
C           12.49311590625057       -2.46490037461709       -0.09677191176067
C           13.22708567083078       -1.21321204386715       -0.09356509319699
N           14.51680767115266       -1.42466940381733       -0.30264634929923
H           11.53463231728309        0.11133037133724        0.06126048323512
H           11.56481093129014        2.72604289478463        0.32886616537096
H           13.39465935114251        4.50981429113820        0.66298449415100
H           15.21105806592962        4.71548067131394        2.92563796643632
H           15.31755052363241        7.13856227852013        3.34943385131580
H           17.16374527111827        7.72758847789245       -0.49528750237283
H           17.05241383506833        5.30467684316713       -0.91868945020526
H           18.79970271329577        4.23702993730510        1.48019671078199
H           20.61715718116048        2.43408197414589        1.10640354471149
H           20.27810267155215       -2.23677386652970       -1.55086224627786
H           18.33298646412930       -4.08358158734668       -1.94963082727486
H           14.61843739566083       -4.83632115138460       -2.73667417768683
H           14.68604900313542       -7.26577217175756       -3.12158538585345
H           17.21217326506161       -7.74222670447496        0.33077297163527
H           17.13891013121252       -5.31338257470714        0.71972995290936
H           13.14056632042118       -4.50564402541137       -0.36697160125164
H           11.43479728386201       -2.59256768415573        0.05263496657752
Cu          31.26882059875918        0.02409047965842       -0.00046419030490
C           34.60949271457677       -0.06590177126688        0.07058762777032
C           33.94212698645551       -1.23042811497498        0.29752645065365
C           34.60066324349270       -2.50719117481664        0.50271325005147
C           33.64785314059362       -3.41868770190966        0.72775445010264
C           32.35957128533290       -2.73677771830215        0.68253261655570
N           32.56007737138937       -1.38052105062829        0.40533297098004
C           31.14853558915846       -3.33902050944347        0.90107739507670
C           31.10797123956570       -4.78376577668899        1.23256291224343
C           31.59570160203726       -5.24889606843602        2.45937270348663
C           31.53290462016698       -6.60079228896177        2.77452486007517
C           30.98238529960734       -7.51181942731747        1.86444686733492
C           30.91650898699078       -8.90716190411887        2.18827081803352
N           30.86388476456381      -10.02746186437105        2.44828680008836
C           30.49483818479360       -7.04800276207624        0.63625821296395
C           30.55613629502610       -5.69516523823368        0.32539281517895
C           29.89157332788058       -2.64602716355358        0.83713832623381
C           28.61106390782611       -3.18784305448008        1.26814417197285
C           27.66964784632779       -2.26038658632483        1.02723530228615
N           29.74669080889950       -1.42566254615280        0.36265194300900
C           28.40414769135578       -1.15240875538643        0.45925195067496
C           27.95652734866581        0.02053540042173       -0.01150939732015
C           28.56998132852107        1.14430421917162       -0.57273110524258
C           27.97865096874776        2.11622862639207       -1.34105212908626
C           28.98628135451837        3.06501254668645       -1.59611751488017
C           30.12977502817709        2.63843396671356       -0.96179417791836
N           29.89906966472387        1.41821459697398       -0.32169857893402
C           31.37320737323368        3.38285580894466       -0.92722559603075
C           31.35617777472407        4.83833686119868       -1.24072040291676
C           32.04800516852821        5.34911817628183       -2.34861829908291
C           32.00752419863343        6.70744017169012       -2.64442667691486
C           31.27704495779656        7.58453254716623       -1.83318918027916
C           31.23301440161195        8.98562970763807       -2.13687815504964
N           31.19805187693019       10.11037049329472       -2.38029210919165
C           30.58786035876849        7.07963680933720       -0.72359978917812
C           30.62728777395164        5.72073572837867       -0.43304305854165
C           32.55516072806338        2.78594587044052       -0.61136627229417
C           33.85064663406268        3.42912282459666       -0.50272279706411
C           34.73454975743325        2.45561521142937       -0.23005811614458
C           34.00057439117968        1.20593823520164       -0.15909190053629
N           32.71084903346524        1.40575908512542       -0.37931191973646
H           35.69303423077515       -0.10827983439897        0.06721040215860
H           35.66285099245140       -2.70466904756355        0.47597627185869
H           33.83300240436494       -4.46773231697555        0.90616943655756
H           32.01660769085382       -4.55060705078641        3.17663946097089
H           31.91011571879583       -6.94719183218891        3.73098875915563
H           30.06392268463358       -7.74349353032463       -0.07620420642585
H           30.17525243111128       -5.34705812140223       -0.63015372689825
H           28.42797476811521       -4.15109214982210        1.70741772974564
H           26.61037597616123       -2.37114581257052        1.23661536822871
H           26.94961228534795        2.14911920474882       -1.66967445271179
H           28.89468906447960        3.97165921960990       -2.16783391788263
H           32.60923092554414        4.68065064151044       -2.99446954621995
H           32.54161888526895        7.08570114162684       -3.51033927685448
H           30.01549308268728        7.74835498102835       -0.08883540456865
H           30.08875768636023        5.34412787904352        0.43103886661740
H           34.08710122820977        4.47874202769571       -0.61033900544926
H           35.79286873662630        2.59118553266127       -0.08778059295952
C           24.20402017671062        0.00135943219222        0.00959436571513
C           23.02243324027946       -0.01365464569054       -0.00162702113852
C           21.73806909614629       -0.01398649140160       -0.01682601154347
C           20.51514439673767       -0.02285135614508       -0.00304236434059
C           25.48905122709565        0.00326746721391        0.00411317912944
C           26.71184090600492        0.03355328547217       -0.00492367622779
122
 energy: -221.691090673237 gnorm: 0.234064814306 xtb: 6.5.1 (b24c23e)
Cu          15.95791141851606       -0.01657245569410        0.00717506159222
C           12.61829780651039        0.05368962469109        0.06529880848208
C           13.28461763042087        1.24762176051090        0.22966364454987
C           12.62496453389283        2.52499020174138        0.36489176436555
C           13.58491132986062        3.45532938801562        0.54199749470311
C           14.85873678740793        2.77153577981131        0.53307697406415
N           14.64190458323623        1.42498475732336        0.33405366177399
C           16.08035505179955        3.39252356261530        0.72366795749838
C           16.11984558170681        4.85101862459244        0.97559750348519
C           15.63018607202207        5.38081790860221        2.16971586853539
C           15.69425115453980        6.74170572906951        2.41157101452310
C           16.24499985628302        7.60151713371691        1.45522697585591
C           16.31094118389322        9.00590050208062        1.70182809303592
N           16.36334598539800       10.13760162318420        1.90053842339028