320
 energy: -613.872622906264 gnorm: 0.579463215339 xtb: 6.5.1 (b24c23e)
C           62.72066899999999       -0.61073900000000        0.57311800000000
C           63.41121400000000       -1.25061400000000       -0.67120500000000
C           62.76212100000000       -1.77892100000000       -1.76109300000000
C           63.75873899999999       -2.25404800000000       -2.65067200000000
C           64.98390600000000       -2.01123800000000       -2.07034200000000
N           64.76120899999999       -1.36097600000000       -0.88062100000000
C           66.40715200000000       -2.42391800000000       -2.63993200000000
C           66.46210900000000       -3.30397900000000       -3.83977400000000
C           67.02863400000000       -2.79313900000000       -5.02408400000000
C           67.08960999999999       -3.58126000000000       -6.16537200000000
O           67.64499499999999       -3.12420900000000       -7.32705700000000
C           66.56897900000000       -4.86631900000000       -6.14797000000000
O           66.61622199999999       -5.63938900000000       -7.27876200000000
C           65.98217000000000       -5.37326300000000       -4.99071700000000
O           65.44583100000000       -6.63045400000000       -5.00613800000000
C           65.92904900000001       -4.60459300000000       -3.83168300000000
C           67.53722000000000       -1.93169900000000       -2.05586800000000
C           68.85771200000001       -2.39004700000000       -2.43606700000000
C           69.75587299999999       -1.73962800000000       -1.70665900000000
N           67.71999099999999       -1.00487200000000       -1.06343600000000
C           69.05745100000000       -0.82090600000000       -0.83118800000000
C           69.72014799999999        0.01617400000000        0.01139100000000
C           68.92742699999998        1.06068900000000        0.90473900000000
C           69.41816700000000        2.25659200000000        1.39144900000000
C           68.40185700000001        2.85301500000000        2.18001600000000
C           67.31010900000000        2.01265500000000        2.13789900000000
N           67.62410900000000        0.94735200000000        1.32481000000000
C           65.92496400000000        2.22362400000000        2.87569900000000
C           65.84745500000000        3.25420000000000        3.93516100000000
C           66.32085400000000        3.00163100000000        5.23325200000000
C           66.23342500000000        3.99868200000000        6.19252900000000
O           66.68368200000000        3.77353200000000        7.46284700000000
C           65.68880600000000        5.23582400000000        5.86918300000000
O           65.60984300000000        6.20706500000000        6.83380400000000
C           65.23231800000001        5.49540200000000        4.58137500000000
O           64.71720800000000        6.73640700000000        4.32529000000000
C           65.30692800000000        4.51173100000000        3.60853000000000
C           64.83362900000000        1.51542500000000        2.47889300000000
C           63.54672799999999        1.61590200000000        3.14640200000000
C           62.68419300000000        0.82399600000000        2.51659800000000
C           63.38249999999999        0.20460600000000        1.41612900000000
N           64.67589800000000        0.62228900000000        1.45784500000000
H           61.66997299999999       -0.81924900000000        0.73944400000000
H           61.69249700000000       -1.81604300000000       -1.90308300000000
H           63.59765000000000       -2.73276900000000       -3.60503700000000
H           65.48748100000000       -0.99081200000000       -0.27603100000000
H           67.41055900000001       -1.77301200000000       -5.01209000000000
H           67.95895200000000       -2.22696600000000       -7.13440700000000
H           67.10211200000001       -5.07724700000000       -7.90651500000000
H           65.68732000000000       -6.96515000000000       -5.88682600000000
H           65.46704600000000       -4.99616700000000       -2.92883200000000
H           69.08576700000000       -3.15543600000000       -3.15490000000000
H           70.81576999999999       -1.89451500000000       -1.77035500000000
H           70.40304900000000        2.66005900000000        1.20412200000000
H           68.46353900000000        3.78866600000000        2.71603200000000
H           66.96581800000000        0.22271000000000        1.04333000000000
H           66.75028500000001        2.03255900000000        5.47179700000000
H           66.51376399999999        4.61437700000000        7.92734400000000
H           65.19470500000000        6.96033600000000        6.35773700000000
H           64.48372900000000        6.75252200000000        3.37772300000000
H           64.95147799999999        4.67558600000000        2.59311200000000
H           63.32244499999999        2.20987400000000        4.01381200000000
H           61.64986600000000        0.67706300000000        2.77292800000000
C          116.98041000000001       -0.68394100000000        0.47872000000000
C          116.28986499999999        0.36190400000000        1.40823000000000
C          116.93895800000000        1.28595200000000        2.19123700000000
C          115.94233999999999        2.02923600000000        2.87287100000000
C          114.71717300000000        1.52762700000000        2.49322900000000
N          114.93987100000000        0.53725100000000        1.56725300000000
C          113.29392700000000        1.97654400000000        3.03471900000000
C          113.23896999999999        2.91951200000000        4.18577800000000
C          112.67244599999999        4.19371100000000        3.98586300000000
C          112.61146900000000        5.10285800000000        5.03330100000000
O          112.05608499999998        6.34175300000000        4.87984900000000
C          113.13209999999998        4.76608100000000        6.27356700000000
O          113.08485800000000        5.66880900000000        7.30381400000000
C          113.71890999999998        3.51905700000000        6.47644500000000
O          114.25524900000001        3.22100800000000        7.69789200000000
C          113.77202999999999        2.58788000000000        5.44342900000000
C          112.16385899999999        1.53341000000000        2.41259100000000
C          110.84336799999998        1.78753100000000        2.95116000000000
C          109.94520699999998        1.24301300000000        2.13963000000000
N          111.98108800000000        0.80296400000000        1.26787400000000
C          110.64362799999999        0.62382800000000        1.03188000000000
C          109.98093199999998        0.01617400000000        0.01139100000000
C          110.77365200000000       -0.58900900000000       -1.22264200000000
C          110.28291299999999       -0.76266700000000       -2.50206100000000
C          111.29922200000000       -1.37792300000000       -3.27602400000000
C          112.39097000000000       -1.54634500000000       -2.45163700000000
N          112.07697000000000       -1.02407000000000       -1.21745200000000
C          113.77611500000000       -2.20839300000000       -2.83964300000000
C          113.85362499999999       -2.97792900000000       -4.10153000000000
C          113.38022599999998       -4.29802900000000       -4.18008200000000
C          113.46765400000000       -4.97888100000000       -5.38455800000000
O          113.01739800000000       -6.26525500000000       -5.48275000000000
C          114.01227299999998       -4.35772100000000       -6.50224900000000
O          114.09123599999999       -5.05017500000000       -7.68305800000000
C          114.46876200000000       -3.04583700000000       -6.43304700000000
O          114.98387099999999       -2.48886000000000       -7.57122500000000
C          114.39415200000001       -2.34851300000000       -5.23815200000000
C          114.86745000000001       -2.00039100000000       -2.05495500000000
C          116.15435100000001       -2.62186900000000       -2.31844900000000
C          117.01688600000000       -2.20904400000000       -1.39468200000000
C          116.31857899999999       -1.29742400000000       -0.52082700000000
N          115.02518200000000       -1.23384300000000       -0.93574400000000
H          118.03110699999999       -0.89693900000000        0.63925700000000
H          118.00858300000000        1.41422900000000        2.26254000000000
H          116.10343000000000        2.83437200000000        3.57411500000000
H          114.21359799999999        0.04385100000000        1.05822800000000
H          112.29052000000000        4.43606200000000        2.99487000000000
H          111.74212799999999        6.37854300000000        3.96289400000000
H          112.59896700000000        6.41674600000000        6.91565500000000
H          114.01375999999999        3.99064200000000        8.24130300000000
H          114.23403299999998        1.61597100000000        5.59790400000000
H          110.61531200000000        2.29318200000000        3.87140900000000
H          108.88530900000001        1.26614400000000        2.30549800000000
H          109.29803099999999       -0.48079300000000       -2.84618800000000
H          111.23754000000000       -1.66412600000000       -4.31566000000000
H          112.73526200000001       -0.93185600000000       -0.44554900000000
H          112.95079399999999       -4.77031900000000       -3.30090800000000
H          113.18731500000000       -6.50579400000000       -6.41276000000000
H          114.50637500000001       -4.40156600000000       -8.29409400000000
H          115.21735000000000       -1.56711400000000       -7.35093000000000
H          114.74960100000000       -1.32427300000000       -5.14405300000000
H          116.37863500000000       -3.31409600000000       -3.10966600000000
H          118.05121400000000       -2.49388300000000       -1.31619100000000
C           72.10763100000000        0.01617400000000        0.01139100000000
C           73.32954800000000        0.01617400000000        0.01139100000000
C           83.52893100000000        0.01617400000000        0.01139100000000
C           84.75084800000000        0.01617400000000        0.01139100000000
C           94.95023100000000        0.01617400000000        0.01139100000000
C           96.17214899999999        0.01617400000000        0.01139100000000
C          106.37153100000000        0.01617400000000        0.01139100000000
C          107.59344900000001        0.01617400000000        0.01139100000000
C           74.87076100000000       -0.01165200000000       -0.00820600000000
C           75.65519399999998       -1.35832500000000        0.28527900000000
C           75.12065699999999       -2.52777500000000        0.78986400000000
C           76.15807400000000       -3.49327800000000        0.81245500000000
C           77.29845699999998       -2.88082300000000        0.33387300000000
N           76.99921199999999       -1.56372100000000        0.08384600000000
C           78.69986800000000       -3.57283900000000        0.09353200000000
C           78.70717700000000       -5.03649000000000       -0.13403300000000
C           79.03384400000000       -5.91759400000000        0.91422900000000
C           79.04209000000000       -7.29548300000000        0.68933400000000
O           79.37133600000000       -8.15669900000000        1.70503800000000
C           78.72035800000000       -7.79259300000000       -0.57410600000000
O           78.72092200000000       -9.13921100000000       -0.82845400000000
C           78.39488100000000       -6.91416100000000       -1.61470000000000
O           78.09298999999999       -7.44994000000000       -2.84625400000000
C           78.38413900000000       -5.53903500000000       -1.40521500000000
C           79.83559999999999       -2.82994600000000        0.02422800000000
C           81.12692600000000       -3.42495300000000       -0.25357400000000
C           82.03386699999999       -2.45662200000000       -0.29332600000000
N           80.04347400000000       -1.48443500000000        0.15572600000000
C           81.36979199999999       -1.19493300000000       -0.03087600000000
C           82.03914200000000       -0.01165200000000       -0.00820600000000
C           81.25654200000000        1.33544400000000        0.28344600000000
C           81.79026800000000        2.49924000000000        0.80453600000000
C           80.75547800000000        3.46794600000000        0.82078400000000
C           79.61626900000000        2.86201000000000        0.32460800000000
N           79.91714699999999        1.54911000000000        0.05584000000000
C           78.20992899999999        3.55167900000000        0.09770300000000
C           78.16777000000000        5.03112800000000        0.04358100000000
C           78.44421100000000        5.72407400000000       -1.14641400000000
C           78.38274300000000        7.11209600000000       -1.15330100000000
O           78.64050899999999        7.80185800000000       -2.30724200000000
C           78.05449600000000        7.80828700000000        0.00874000000000
O           77.99112800000000        9.17779800000000       -0.02131100000000
C           77.78923000000000        7.12498600000000        1.19096300000000
O           77.47074999999998        7.85597400000000        2.30627900000000
C           77.84454100000001        5.73815700000000        1.21788200000000
C           77.07767699999999        2.80397800000000        0.00248300000000
C           75.77991200000000        3.40215400000000       -0.24685700000000
C           74.87270599999999        2.43310400000000       -0.28406100000000
C           75.54282299999998        1.16923900000000       -0.05005700000000
N           76.87522699999998        1.45486600000000        0.09934500000000
H           74.09235300000000       -2.68109800000000        1.08447500000000
H           76.07528900000000       -4.52544600000000        1.12392000000000
H           77.67057200000001       -0.85005400000000       -0.18766500000000
H           79.28298400000000       -5.49572200000000        1.88728200000000
H           79.62683500000000       -7.61660500000000        2.47598000000000
H           78.47556600000000       -9.19173500000000       -1.77480800000000
H           77.91307500000001       -6.69261200000000       -3.43635400000000
H           78.13778000000001       -4.83562400000000       -2.19895200000000
H           81.32956799999999       -4.46893100000000       -0.41424100000000
H           83.07984200000000       -2.60571400000000       -0.49055800000000
H           82.81516300000000        2.64686300000000        1.11688500000000
H           80.83994300000001        4.49558600000000        1.14287000000000
H           79.24580500000000        0.83915600000000       -0.22828200000000
H           78.69474999999998        5.17146700000000       -2.04958100000000
H           78.49676999999998        8.73597400000000       -2.05678700000000
H           77.73471400000000        9.40497100000000        0.89787700000000
H           77.32548999999999        7.20841000000000        3.02121200000000
H           77.63636599999998        5.17015100000000        2.12152500000000
H           75.57615800000001        4.44797800000000       -0.39583200000000
H           73.82240000000000        2.58280400000000       -0.45603200000000
C           86.29206100000000       -0.01165200000000       -0.00820600000000
C           87.07649400000000       -1.35832500000000        0.28527900000000
C           86.54195700000000       -2.52777500000000        0.78986400000000
C           87.57937399999999       -3.49327800000000        0.81245500000000
C           88.71975800000000       -2.88082300000000        0.33387300000000
N           88.42051200000000       -1.56372100000000        0.08384600000000
C           90.12116799999998       -3.57283900000000        0.09353200000000
C           90.12847700000000       -5.03649000000000       -0.13403300000000
C           90.45514400000000       -5.91759400000000        0.91422900000000
C           90.46339099999999       -7.29548300000000        0.68933400000000
O           90.79263599999999       -8.15669900000000        1.70503800000000
C           90.14165800000001       -7.79259300000000       -0.57410600000000
O           90.14222200000000       -9.13921100000000       -0.82845400000000
C           89.81618100000000       -6.91416100000000       -1.61470000000000
O           89.51429000000000       -7.44994000000000       -2.84625400000000
C           89.80543899999999       -5.53903500000000       -1.40521500000000
C           91.25690000000000       -2.82994600000000        0.02422800000000
C           92.54822600000000       -3.42495300000000       -0.25357400000000
C           93.45516700000000       -2.45662200000000       -0.29332600000000
N           91.46477500000000       -1.48443500000000        0.15572600000000
C           92.79109200000001       -1.19493300000000       -0.03087600000000
C           93.46044199999999       -0.01165200000000       -0.00820600000000
C           92.67784199999998        1.33544400000000        0.28344600000000
C           93.21156799999999        2.49924000000000        0.80453600000000
C           92.17677799999998        3.46794600000000        0.82078400000000
C           91.03757000000000        2.86201000000000        0.32460800000000
N           91.33844700000000        1.54911000000000        0.05584000000000
C           89.63122900000000        3.55167900000000        0.09770300000000
C           89.58906999999999        5.03112800000000        0.04358100000000
C           89.86551100000000        5.72407400000000       -1.14641400000000
C           89.80404400000000        7.11209600000000       -1.15330100000000
O           90.06180900000000        7.80185800000000       -2.30724200000000
C           89.47579599999999        7.80828700000000        0.00874000000000
O           89.41242899999999        9.17779800000000       -0.02131100000000
C           89.21053000000001        7.12498600000000        1.19096300000000
O           88.89205000000000        7.85597400000000        2.30627900000000
C           89.26584099999999        5.73815700000000        1.21788200000000
C           88.49897700000000        2.80397800000000        0.00248300000000
C           87.20121300000000        3.40215400000000       -0.24685700000000
C           86.29400600000000        2.43310400000000       -0.28406100000000
C           86.96412300000000        1.16923900000000       -0.05005700000000
N           88.29652700000000        1.45486600000000        0.09934500000000
H           85.51365300000001       -2.68109800000000        1.08447500000000
H           87.49658999999998       -4.52544600000000        1.12392000000000
H           89.09187200000000       -0.85005400000000       -0.18766500000000
H           90.70428399999999       -5.49572200000000        1.88728200000000
H           91.04813500000000       -7.61660500000000        2.47598000000000
H           89.89686599999999       -9.19173500000000       -1.77480800000000
H           89.33437499999998       -6.69261200000000       -3.43635400000000
H           89.55907999999999       -4.83562400000000       -2.19895200000000
H           92.75086899999998       -4.46893100000000       -0.41424100000000
H           94.50114200000000       -2.60571400000000       -0.49055800000000
H           94.23646399999998        2.64686300000000        1.11688500000000
H           92.26124299999998        4.49558600000000        1.14287000000000
H           90.66710500000001        0.83915600000000       -0.22828200000000
H           90.11605000000000        5.17146700000000       -2.04958100000000
H           89.91807000000000        8.73597400000000       -2.05678700000000
H           89.15601400000000        9.40497100000000        0.89787700000000
H           88.74679000000000        7.20841000000000        3.02121200000000
H           89.05766700000000        5.17015100000000        2.12152500000000
H           86.99745799999999        4.44797800000000       -0.39583200000000
H           85.24369999999999        2.58280400000000       -0.45603200000000
C           97.71336100000001       -0.01165200000000       -0.00820600000000
C           98.49779499999998       -1.35832500000000        0.28527900000000
C           97.96325699999998       -2.52777500000000        0.78986400000000
C           99.00067400000000       -3.49327800000000        0.81245500000000
C          100.14105799999999       -2.88082300000000        0.33387300000000
N           99.84181199999999       -1.56372100000000        0.08384600000000
C          101.54246800000000       -3.57283900000000        0.09353200000000
C          101.54977700000001       -5.03649000000000       -0.13403300000000
C          101.87644400000001       -5.91759400000000        0.91422900000000
C          101.88469100000000       -7.29548300000000        0.68933400000000
O          102.21393600000000       -8.15669900000000        1.70503800000000
C          101.56295799999998       -7.79259300000000       -0.57410600000000
O          101.56352200000001       -9.13921100000000       -0.82845400000000
C          101.23748200000000       -6.91416100000000       -1.61470000000000
O          100.93559000000000       -7.44994000000000       -2.84625400000000
C          101.22673899999999       -5.53903500000000       -1.40521500000000
C          102.67820000000000       -2.82994600000000        0.02422800000000
C          103.96952600000000       -3.42495300000000       -0.25357400000000
C          104.87646700000001       -2.45662200000000       -0.29332600000000
N          102.88607500000001       -1.48443500000000        0.15572600000000
C          104.21239199999998       -1.19493300000000       -0.03087600000000
C          104.88174200000000       -0.01165200000000       -0.00820600000000
C          104.09914200000000        1.33544400000000        0.28344600000000
C          104.63286900000000        2.49924000000000        0.80453600000000
C          103.59807800000000        3.46794600000000        0.82078400000000
C          102.45886999999999        2.86201000000000        0.32460800000000
N          102.75974699999999        1.54911000000000        0.05584000000000
C          101.05252900000001        3.55167900000000        0.09770300000000
C          101.01036999999999        5.03112800000000        0.04358100000000
C          101.28681099999999        5.72407400000000       -1.14641400000000
C          101.22534400000001        7.11209600000000       -1.15330100000000
O          101.48310899999998        7.80185800000000       -2.30724200000000
C          100.89709600000000        7.80828700000000        0.00874000000000
O          100.83372900000001        9.17779800000000       -0.02131100000000
C          100.63183100000001        7.12498600000000        1.19096300000000
O          100.31335000000000        7.85597400000000        2.30627900000000
C          100.68714100000000        5.73815700000000        1.21788200000000
C           99.92027800000000        2.80397800000000        0.00248300000000
C           98.62251299999998        3.40215400000000       -0.24685700000000
C           97.71530700000000        2.43310400000000       -0.28406100000000
C           98.38542299999999        1.16923900000000       -0.05005700000000
N           99.71782699999999        1.45486600000000        0.09934500000000
H           96.93495299999998       -2.68109800000000        1.08447500000000
H           98.91789000000000       -4.52544600000000        1.12392000000000
H          100.51317199999998       -0.85005400000000       -0.18766500000000
H          102.12558500000000       -5.49572200000000        1.88728200000000
H          102.46943499999999       -7.61660500000000        2.47598000000000
H          101.31816600000001       -9.19173500000000       -1.77480800000000
H          100.75567500000000       -6.69261200000000       -3.43635400000000
H          100.98037999999998       -4.83562400000000       -2.19895200000000
H          104.17216900000000       -4.46893100000000       -0.41424100000000
H          105.92244200000000       -2.60571400000000       -0.49055800000000
H          105.65776400000000        2.64686300000000        1.11688500000000
H          103.68254399999999        4.49558600000000        1.14287000000000
H          102.08840599999999        0.83915600000000       -0.22828200000000
H          101.53734999999999        5.17146700000000       -2.04958100000000
H          101.33937000000000        8.73597400000000       -2.05678700000000
H          100.57731399999999        9.40497100000000        0.89787700000000
H          100.16809099999999        7.20841000000000        3.02121200000000
H          100.47896699999998        5.17015100000000        2.12152500000000
H           98.41875799999998        4.44797800000000       -0.39583200000000
H           96.66500000000001        2.58280400000000       -0.45603200000000
320
 energy: -614.072051878451 gnorm: 0.369070321011 xtb: 6.5.1 (b24c23e)
C           62.75124877948812       -0.62647496222418        0.53939896921734
C           63.41027369724187       -1.24200183052740       -0.65655660719798
C           62.76750346611357       -1.78581834741976       -1.76448350278189
C           63.75706852410244       -2.25792233892007       -2.64646213880509
C           65.00445832030735       -2.01400667073148       -2.07270376095854
N           64.76456660982018       -1.36171255203110       -0.87991726096668
C           66.37249452468372       -2.40565444231107       -2.61961561215989
C           66.44667663995151       -3.29104570708605       -3.82773942547575
C           67.02759386053921       -2.79133408985001       -5.00941242240110
C           67.08855252213191       -3.57693178602846       -6.15457803106423
O           67.64415416354682       -3.12221958498975       -7.32032807006580
C           66.56742886428603       -4.86450444368210       -6.14393635022463
O           66.61870243520494       -5.63646823508025       -7.27544497065210
C           65.98038269720575       -5.36978585540988       -4.98467679407412
O           65.45305538502703       -6.62549615336119       -5.00745832581438
C           65.92492964044932       -4.59427620662835       -3.82845285852147
C           67.54016522186259       -1.92492499124489       -2.04502508953237
C           68.86069713159297       -2.39395257570575       -2.44109749918715
C           69.76854188886819       -1.74148789555170       -1.70615545159620
N           67.71821416360608       -0.99472606871204       -1.05370188734252
C           69.06969604741201       -0.81767415540191       -0.82373776294041
C           69.71573657386269        0.04802358170217        0.03088664733949
C           68.94403752977324        1.04682013695031        0.89090878674623
C           69.41994326808113        2.25497277254375        1.39954443470077
C           68.40657711158080        2.84590353526701        2.17866520281540
C           67.29423376622228        2.00769539775596        2.14024301730295
N           67.63074759492393        0.94128980326782        1.32484349582973
C           65.96081224594177        2.21263357531334        2.84877566953694
C           65.86304832592467        3.24801171555337        3.92168235736630
C           66.32284480677244        2.99958382147116        5.22252734225137
C           66.23371806920673        3.99468258228471        6.18999167979468
O           66.68041336056598        3.77770064396531        7.45798859843627
C           65.68879532098006        5.23485180050083        5.86722859397460
O           65.60790388799161        6.20877653157747        6.82864893061133
C           65.23264317040970        5.48838387900670        4.57773142952320
O           64.71803860218827        6.73188395240355        4.32117600767552
C           65.30948327789531        4.50019414824433        3.60578462806706
C           64.83567753247385        1.50749692428288        2.47418664994214
C           63.54658629153253        1.62233513765978        3.15382814158132
C           62.67934597867495        0.82548031961109        2.52050402009754
C           63.39417757773613        0.20198319357109        1.41804312602770
N           64.68918974246486        0.61898675232969        1.44856457054425
H           61.69118914286906       -0.82334413328218        0.71580206331916
H           61.69727892025411       -1.81919421200878       -1.90696641866528
H           63.59479750548302       -2.73219557692779       -3.60251212287598
H           65.48840017385125       -0.99103231326153       -0.27578884046272
H           67.41064367922422       -1.77500520009425       -5.01267337600623
H           67.96216752236438       -2.22540038316261       -7.14299354277868
H           67.10068118422586       -5.08324986087851       -7.91369418952642
H           65.68256987695356       -6.97116084977517       -5.88715507804850
H           65.46830187616918       -4.99565562399288       -2.93074766615281
H           69.08078749385544       -3.16029683799374       -3.16261288684340
H           70.82914399071322       -1.88939876726173       -1.76560225811640
H           70.40161660343240        2.66108033138239        1.20891903426367
H           68.46598732809099        3.78416695354287        2.71238858912547
H           66.97102523838386        0.22266235128149        1.04272995899906
H           66.74946690935595        2.03456564033688        5.47087977980745
H           66.51571630497764        4.61200577044617        7.93228036876695
H           65.19613838187814        6.96361962261836        6.36617788049444
H           64.48139471038523        6.75892238289075        3.38054921640754
H           64.95276194436474        4.67641204191173        2.59545804838897
H           63.32789422143847        2.21861652020532        4.02076899695989