      -----------------------------------------------------------      
     |                   =====================                   |     
     |                           x T B                           |     
     |                   =====================                   |     
     |                         S. Grimme                         |     
     |          Mulliken Center for Theoretical Chemistry        |     
     |                    University of Bonn                     |     
      -----------------------------------------------------------      

   * xtb version 6.5.1 (b24c23e) compiled by 'conda@728c89f4b128' on 2022-07-12

   xtb is free software: you can redistribute it and/or modify it under
   the terms of the GNU Lesser General Public License as published by
   the Free Software Foundation, either version 3 of the License, or
   (at your option) any later version.
   
   xtb is distributed in the hope that it will be useful,
   but WITHOUT ANY WARRANTY; without even the implied warranty of
   MERCHANTABILITY or FITNESS FOR A PARTICULAR PURPOSE.  See the
   GNU Lesser General Public License for more details.
   
   Cite this work as:
   * C. Bannwarth, E. Caldeweyher, S. Ehlert, A. Hansen, P. Pracht,
     J. Seibert, S. Spicher, S. Grimme, WIREs Comput. Mol. Sci., 2020, 11,
     e01493. DOI: 10.1002/wcms.1493
   
   for GFN2-xTB:
   * C. Bannwarth, S. Ehlert and S. Grimme., J. Chem. Theory Comput., 2019,
     15, 1652-1671. DOI: 10.1021/acs.jctc.8b01176
   for GFN1-xTB:
   * S. Grimme, C. Bannwarth, P. Shushkov, J. Chem. Theory Comput., 2017,
     13, 1989-2009. DOI: 10.1021/acs.jctc.7b00118
   for GFN0-xTB:
   * P. Pracht, E. Caldeweyher, S. Ehlert, S. Grimme, ChemRxiv, 2019, preprint.
     DOI: 10.26434/chemrxiv.8326202.v1
   for GFN-FF:
   * S. Spicher and S. Grimme, Angew. Chem. Int. Ed., 2020, 59, 15665-15673.
     DOI: 10.1002/anie.202004239
   
   for ALPB and GBSA implicit solvation:
   * S. Ehlert, M. Stahn, S. Spicher, S. Grimme, J. Chem. Theory Comput.,
     2021, 17, 4250-4261. DOI: 10.1021/acs.jctc.1c00471
   
   for DFT-D4:
   * E. Caldeweyher, C. Bannwarth and S. Grimme, J. Chem. Phys., 2017,
     147, 034112. DOI: 10.1063/1.4993215
   * E. Caldeweyher, S. Ehlert, A. Hansen, H. Neugebauer, S. Spicher,
     C. Bannwarth and S. Grimme, J. Chem. Phys., 2019, 150, 154122.
     DOI: 10.1063/1.5090222
   * E. Caldeweyher, J.-M. Mewes, S. Ehlert and S. Grimme, Phys. Chem. Chem. Phys.
     2020, 22, 8499-8512. DOI: 10.1039/D0CP00502A
   
   for sTDA-xTB:
   * S. Grimme and C. Bannwarth, J. Chem. Phys., 2016, 145, 054103.
     DOI: 10.1063/1.4959605
   
   in the mass-spec context:
   * V. Asgeirsson, C. Bauer and S. Grimme, Chem. Sci., 2017, 8, 4879.
     DOI: 10.1039/c7sc00601b
   * J. Koopman and S. Grimme, ACS Omega 2019, 4, 12, 15120-15133.
     DOI: 10.1021/acsomega.9b02011
   
   for metadynamics refer to:
   * S. Grimme, J. Chem. Theory Comput., 2019, 155, 2847-2862
     DOI: 10.1021/acs.jctc.9b00143
   
   for SPH calculations refer to:
   * S. Spicher and S. Grimme, J. Chem. Theory Comput., 2021, 17, 1701-1714
     DOI: 10.1021/acs.jctc.0c01306
   
   with help from (in alphabetical order)
   P. Atkinson, C. Bannwarth, F. Bohle, G. Brandenburg, E. Caldeweyher
   M. Checinski, S. Dohm, S. Ehlert, S. Ehrlich, I. Gerasimov, C. Hölzer
   A. Katbashev, J. Koopman, C. Lavigne, S. Lehtola, F. März, M. Müller,
   F. Musil, H. Neugebauer, J. Pisarek, C. Plett, P. Pracht, F. Pultar,
   J. Seibert, P. Shushkov, S. Spicher, M. Stahn, M. Steiner, T. Strunk,
   J. Stückrath, T. Rose, and J. Unsleber
   
 * started run on 2022/07/30 at 00:14:08.263     

           -------------------------------------------------
          |                Calculation Setup                |
           -------------------------------------------------

          program call               : xtb Ph_C8_9.xyz --gfn 1 --opt -T 48
          hostname                   : cx3-14-14.cx3.hpc.ic.ac.uk
          coordinate file            : Ph_C8_9.xyz
          omp threads                :                     1

   ID    Z sym.   atoms
    1    6 C      1-5, 7-10, 12-28, 31-36, 58-62, 64-67, 69-85, 88-93,
                  115-183, 185-188, 190-206, 209-214, 235-239, 241-244,
                  246-262, 265-270, 291-295, 297-300, 302-318, 321-326,
                  347-351, 353-356, 358-374, 377-382, 403-407, 409-412,
                  414-430, 433-438, 459-463, 465-468, 470-486, 489-494,
                  515-519, 521-524, 526-542, 545-550
    2    7 N      6, 11, 29, 30, 63, 68, 86, 87, 184, 189, 207, 208, 240,
                  245, 263, 264, 296, 301, 319, 320, 352, 357, 375, 376, 408,
                  413, 431, 432, 464, 469, 487, 488, 520, 525, 543, 544
    3    1 H      37-57, 94-114, 215-234, 271-290, 327-346, 383-402, 439-458,
                  495-514, 551-570

molecular fragmentation (1/2 indicates fragments):
111111111111111111111111111111111111111111111111111111111222222222222222
222222222222222222222222222222222222222222222222222222222222222222222222
222222222222222222222222222222222222222222222222222222222222222222222222
222222222222222222222222222222222222222222222222222222222222222222222222
222222222222222222222222222222222222222222222222222222222222222222222222
222222222222222222222222222222222222222222222222222222222222222222222222
222222222222222222222222222222222222222222222222222222222222222222222222
222222222222222222222222222222222222222222222222222222222222222222
# atoms in fragment 1/2:    57   513
 fragment masses (1/2) :      461.54     4453.93
CMA distance (Bohr)    : 154.188
constraining FC (au)   :  0.0500
########################################################################
[WARNING] Please study the warnings concerning your input carefully
-1- prog_main_parseArguments: Unknown option '-T' provided
########################################################################

           -------------------------------------------------
          |                 G F N 1 - x T B                 |
           -------------------------------------------------

        Reference                      10.1021/acs.jctc.7b00118
      * Hamiltonian:
        H0-scaling (s, p, d)           1.850000    2.250000    2.000000
        zeta-weighting                 0.000000
      * Dispersion:
        s8                             2.400000
        a1                             0.630000
        a2                             5.000000
        s9                             0.000000
      * Repulsion:
        kExp                           1.500000
        rExp                           1.000000
      * Coulomb:
        alpha                          2.000000
        third order                    atomic
        anisotropic                    false
      * Halogen bond correction:
        rad-scale                      1.300000
        damping                        0.440000


          ...................................................
          :                      SETUP                      :
          :.................................................:
          :  # basis functions                1916          :
          :  # atomic orbitals                1916          :
          :  # shells                         1140          :
          :  # electrons                      1770          :
          :  # halogen bonds                     0          :
          :  max. iterations                   250          :
          :  Hamiltonian                  GFN1-xTB          :
          :  restarted?                      false          :
          :  GBSA solvation                  false          :
          :  PC potential                    false          :
          :  electronic temp.          300.0000000     K    :
          :  accuracy                    1.0000000          :
          :  -> integral cutoff          0.2500000E+02      :
          :  -> integral neglect         0.1000000E-07      :
          :  -> SCF convergence          0.1000000E-05 Eh   :
          :  -> wf. convergence          0.2000000E-04 e    :
          :  Broyden damping             0.4000000          :
          ...................................................

 iter      E             dE          RMSdq      gap      omega  full diag
   1   -970.1809922 -0.970181E+03  0.106E+01    0.00       0.0  T
   2   -921.4316696  0.487493E+02  0.712E+00    0.01       1.0  T
   3   6098.4321162  0.701986E+04  0.180E+01    0.02       1.0  T
   4  12642.3843868  0.654395E+04  0.229E+01    0.01       1.0  T
   5   2588.9192653 -0.100535E+05  0.155E+01    0.01       1.0  T
   6   -848.2131715 -0.343713E+04  0.531E+00    0.10       1.0  T
   7   -419.4168783  0.428796E+03  0.672E+00    0.01       1.0  T
   8   -701.7801296 -0.282363E+03  0.534E+00    0.00       1.0  T
   9   -900.0982277 -0.198318E+03  0.350E+00    0.03       1.0  T
  10   -931.5000698 -0.314018E+02  0.286E+00    0.01       1.0  T
  11   -957.2495716 -0.257495E+02  0.240E+00    0.01       1.0  T
  12   -964.7955505 -0.754598E+01  0.179E+00    0.02       1.0  T
  13   -966.9620419 -0.216649E+01  0.159E+00    0.01       1.0  T
  14   -964.0873628  0.287468E+01  0.153E+00    0.05       1.0  T
  15   -966.3234851 -0.223612E+01  0.138E+00    0.15       1.0  T
  16   -969.3831420 -0.305966E+01  0.105E+00    0.02       1.0  T
  17   -969.4245255 -0.413834E-01  0.110E+00    0.01       1.0  T
  18   -969.3642974  0.602281E-01  0.947E-01    0.01       1.0  T
  19   -969.7227673 -0.358470E+00  0.101E+00    0.02       1.0  T
  20   -970.3138321 -0.591065E+00  0.765E-01    0.04       1.0  T
  21   -970.9112969 -0.597465E+00  0.639E-01    0.09       1.0  T
  22   -971.6061272 -0.694830E+00  0.536E-01    0.03       1.0  T
  23   -971.6390417 -0.329144E-01  0.522E-01    0.10       1.0  T
  24   -971.7244548 -0.854131E-01  0.498E-01    0.03       1.0  T
  25   -971.7606791 -0.362243E-01  0.406E-01    0.03       1.0  T
  26   -972.0325161 -0.271837E+00  0.350E-01    0.03       1.0  T
  27   -971.7714013  0.261115E+00  0.399E-01    0.04       1.0  T
  28   -972.0788114 -0.307410E+00  0.288E-01    0.03       1.0  T
  29   -971.4903760  0.588435E+00  0.434E-01    0.00       1.0  T
  30   -972.0172713 -0.526895E+00  0.266E-01    0.01       1.0  T
  31   -971.3518141  0.665457E+00  0.465E-01    0.00       1.0  T
  32   -971.3997619 -0.479478E-01  0.387E-01    0.00       1.0  T
  33   -971.3845988  0.151631E-01  0.399E-01    0.01       1.0  T
  34   -971.4829103 -0.983115E-01  0.386E-01    0.01       1.0  T
  35   -971.5888764 -0.105966E+00  0.347E-01    0.03       1.0  T
  36   -971.8071486 -0.218272E+00  0.287E-01    0.03       1.0  T
  37   -971.8850174 -0.778688E-01  0.239E-01    0.02       1.0  T
  38   -972.0573338 -0.172316E+00  0.234E-01    0.03       1.0  T
  39   -972.0721262 -0.147924E-01  0.217E-01    0.01       1.0  T
  40   -971.9673240  0.104802E+00  0.239E-01    0.03       1.0  T
  41   -972.1059028 -0.138579E+00  0.147E-01    0.02       1.0  T
  42   -972.1467394 -0.408366E-01  0.114E-01    0.00       1.0  T
  43   -972.1521325 -0.539312E-02  0.106E-01    0.00       1.0  T
  44   -972.1537550 -0.162250E-02  0.943E-02    0.01       1.0  T
  45   -972.1646665 -0.109115E-01  0.742E-02    0.00       1.0  T
  46   -972.1653480 -0.681476E-03  0.631E-02    0.01       1.0  T
  47   -972.1691564 -0.380841E-02  0.475E-02    0.00       1.0  T
  48   -972.1737522 -0.459573E-02  0.259E-02    0.00       1.0  T
  49   -972.1738205 -0.683401E-04  0.253E-02    0.00       1.0  T
  50   -972.1742324 -0.411927E-03  0.216E-02    0.00       1.0  T
  51   -972.1745197 -0.287299E-03  0.152E-02    0.00       1.0  T
  52   -972.1747735 -0.253764E-03  0.128E-02    0.00       1.0  T
  53   -972.1748650 -0.914895E-04  0.130E-02    0.00       1.0  T
  54   -972.1749298 -0.648586E-04  0.105E-02    0.00       1.0  T
  55   -972.1749941 -0.643158E-04  0.930E-03    0.00       1.0  T
  56   -972.1750474 -0.532848E-04  0.876E-03    0.00       1.0  T
  57   -972.1750473  0.110990E-06  0.918E-03    0.00       1.0  T
  58   -972.1751121 -0.647944E-04  0.726E-03    0.00       1.0  T
  59   -972.1751343 -0.222041E-04  0.637E-03    0.00       1.0  T
  60   -972.1751630 -0.286991E-04  0.530E-03    0.00       1.0  T
  61   -972.1751923 -0.292958E-04  0.408E-03    0.00       1.0  T
  62   -972.1751951 -0.276987E-05  0.401E-03    0.00       1.0  T
  63   -972.1752115 -0.163884E-04  0.322E-03    0.00       1.3  T
  64   -972.1752290 -0.175340E-04  0.208E-03    0.00       2.0  T
  65   -972.1752358 -0.679078E-05  0.131E-03    0.00       3.2  T
  66   -972.1752392 -0.344200E-05  0.113E-03    0.00       3.7  T
  67   -972.1752409 -0.163695E-05  0.804E-04    0.00       5.2  T
  68   -972.1752412 -0.273967E-06  0.700E-04    0.00       6.0  T
  69   -972.1752422 -0.103292E-05  0.482E-04    0.00       8.7  T
  70   -972.1752424 -0.180369E-06  0.402E-04    0.00      10.4  T
  71   -972.1752426 -0.245929E-06  0.342E-04    0.00      12.2  T
  72   -972.1752428 -0.218501E-06  0.272E-04    0.00      15.4  T
  73   -972.1752430 -0.198191E-06  0.232E-04    0.00      18.0  T
  74   -972.1752429  0.120389E-06  0.332E-04    0.00      12.6  T
  75   -972.1752431 -0.163728E-06  0.246E-04    0.00      17.1  T
  76   -972.1752432 -0.929887E-07  0.161E-04    0.00      26.0  T
  77   -972.1752432 -0.307526E-07  0.126E-04    0.00      33.4  T

   *** convergence criteria satisfied after 77 iterations ***

         #    Occupation            Energy/Eh            Energy/eV
      -------------------------------------------------------------
         1        2.0000           -0.8055585             -21.9204
       ...           ...                  ...                  ...
       879        2.0000           -0.3728883             -10.1468
       880        1.9999           -0.3721430             -10.1265
       881        1.9999           -0.3716309             -10.1126
       882        1.9998           -0.3712265             -10.1016
       883        1.9998           -0.3710978             -10.0981
       884        1.9997           -0.3707509             -10.0886
       885        0.6854           -0.3619117              -9.8481 (HOMO)
       886        0.6775           -0.3618950              -9.8477 (LUMO)
       887        0.4213           -0.3612754              -9.8308
       888        0.2168           -0.3605286              -9.8105
       889        0.0000           -0.3489409              -9.4952
       890        0.0000           -0.3481528              -9.4737
       ...           ...                  ...                  ...
      1916                          3.7133490             101.0454
      -------------------------------------------------------------
                  HL-Gap            0.0000167 Eh            0.0005 eV
             Fermi-level           -0.3625304 Eh           -9.8650 eV

 SCC (total)                   0 d,  0 h,  2 min, 33.699 sec
 SCC setup                      ...        0 min,  0.080 sec (  0.052%)
 Dispersion                     ...        0 min,  0.034 sec (  0.022%)
 classical contributions        ...        0 min,  0.007 sec (  0.005%)
 integral evaluation            ...        0 min,  0.908 sec (  0.591%)
 iterations                     ...        2 min, 30.774 sec ( 98.097%)
 molecular gradient             ...        0 min,  1.531 sec (  0.996%)
 printout                       ...        0 min,  0.364 sec (  0.237%)

         :::::::::::::::::::::::::::::::::::::::::::::::::::::
         ::                     SUMMARY                     ::
         :::::::::::::::::::::::::::::::::::::::::::::::::::::
         :: total energy            -949.946120695908 Eh    ::
         :: gradient norm              5.277773584766 Eh/a0 ::
         :: HOMO-LUMO gap              0.000454280342 eV    ::
         ::.................................................::
         :: SCC energy              -972.175243194938 Eh    ::
         :: -> electrostatic           0.556434534268 Eh    ::
         :: repulsion energy          22.701925076881 Eh    ::
         :: dispersion energy         -0.472802577851 Eh    ::
         :: halogen bond corr.         0.000000000000 Eh    ::
         :: add. restraining           0.000000000000 Eh    ::
         :: total charge              -0.000000000000 e     ::
         :::::::::::::::::::::::::::::::::::::::::::::::::::::

      ----------------------------------------------------------- 
     |                       L-ANC optimizer                     |
      ----------------------------------------------------------- 
          low memory version by Sebastian Ehlert

          ...................................................
          :                      SETUP                      :
          :.................................................:
          :   energy convergence        0.5000000E-05 Eh    :
          :   grad. convergence         0.1000000E-02 Eh/a0 :
          :   optimization log               true           :
          :   writing optlog all                1     steps :
          :   Hessian reset                    20     steps :
          :   maximium step len.        1.0000000     a0    :
          :   LBFGS images                     20           :
          ...................................................
 * calculating model hessian...
Using Lindh-Hessian (1995)
 Shifting diagonal of input Hessian by    1.0006100548944232E-002
 Lowest  eigenvalues of input Hessian
    0.010000    0.010000    0.010001    0.010002    0.010003    0.010003
    0.010004    0.010004    0.010005    0.010005    0.010005    0.010005
    0.010006    0.010006    0.010006    0.000000    0.000000    0.000000
 Highest eigenvalues
    3.915507    3.915507    3.915508    3.915510    3.915511    3.915512


........................................................................
.............................. CYCLE    1 ..............................
........................................................................
   1   -972.0394993 -0.972039E+03  0.278E-01    0.03       0.0  T
   2   -970.7154902  0.132401E+01  0.799E-01    0.05       1.0  T
   3   -971.6874282 -0.971938E+00  0.445E-01    0.25       1.0  T
   4   -971.0281760  0.659252E+00  0.542E-01    0.11       1.0  T
   5   -971.9881813 -0.960005E+00  0.249E-01    0.09       1.0  T
   6   -972.0455498 -0.573685E-01  0.191E-01    0.03       1.0  T
   7   -972.1073393 -0.617896E-01  0.118E-01    0.01       1.0  T
   8   -972.0296429  0.776964E-01  0.168E-01    0.02       1.0  T
   9   -972.1313406 -0.101698E+00  0.612E-02    0.03       1.0  T
  10   -972.1245840  0.675668E-02  0.858E-02    0.00       1.0  T
  11   -972.1382015 -0.136175E-01  0.388E-02    0.01       1.0  T
  12   -972.1255466  0.126548E-01  0.710E-02    0.03       1.0  T
  13   -972.1410408 -0.154942E-01  0.247E-02    0.01       1.0  T
  14   -972.1416325 -0.591670E-03  0.164E-02    0.01       1.0  T
  15   -972.1415462  0.862603E-04  0.147E-02    0.01       1.0  T
  16   -972.1421576 -0.611364E-03  0.651E-03    0.01       1.0  T
  17   -972.1420726  0.849863E-04  0.740E-03    0.01       1.0  T
  18   -972.1422223 -0.149739E-03  0.360E-03    0.01       1.2  T
  19   -972.1422413 -0.189741E-04  0.230E-03    0.01       1.8  T
  20   -972.1422273  0.140099E-04  0.269E-03    0.01       1.6  T
  21   -972.1422502 -0.228676E-04  0.119E-03    0.01       3.5  T
  22   -972.1422508 -0.658890E-06  0.922E-04    0.01       4.5  T
  23   -972.1422444  0.645880E-05  0.149E-03    0.01       2.8  T
  24   -972.1422526 -0.820381E-05  0.293E-04    0.01      14.3  T
  25   -972.1422528 -0.259931E-06  0.115E-04    0.01      36.6  T
  26   -972.1422528 -0.165414E-09  0.112E-04    0.01      37.4  T
     SCC iter.                  ...        0 min, 51.143 sec
     gradient                   ...        0 min,  1.530 sec
 * total energy  :  -952.5611070 Eh     change       -0.2614986E+01 Eh
   gradient norm :     2.2425954 Eh/a0  converged?    E=F G=F D=F
   step length   :     0.7485173 a0

........................................................................
.............................. CYCLE    2 ..............................
........................................................................
   1   -972.1822126 -0.972182E+03  0.129E-01    0.00       0.0  T
   2   -971.2156465  0.966566E+00  0.659E-01    0.03       1.0  T
   3   -972.1251716 -0.909525E+00  0.201E-01    0.03       1.0  T
   4   -971.6878070  0.437365E+00  0.430E-01    0.18       1.0  T
   5   -972.2049195 -0.517113E+00  0.832E-02    0.01       1.0  T
   6   -972.1540727  0.508469E-01  0.134E-01    0.07       1.0  T
   7   -972.1680954 -0.140227E-01  0.114E-01    0.07       1.0  T
   8   -972.1761941 -0.809871E-02  0.991E-02    0.03       1.0  T
   9   -972.2107388 -0.345446E-01  0.264E-02    0.00       1.0  T
  10   -972.2070981  0.364063E-02  0.363E-02    0.02       1.0  T
  11   -972.2120828 -0.498462E-02  0.103E-02    0.00       1.0  T
  12   -972.2109024  0.118039E-02  0.192E-02    0.01       1.0  T
  13   -972.2119964 -0.109400E-02  0.800E-03    0.00       1.0  T
  14   -972.2116631  0.333225E-03  0.131E-02    0.01       1.0  T
  15   -972.2120456 -0.382415E-03  0.664E-03    0.01       1.0  T
  16   -972.2122128 -0.167215E-03  0.101E-03    0.00       4.1  T
  17   -972.2122141 -0.136442E-05  0.725E-04    0.00       5.8  T
  18   -972.2122137  0.466884E-06  0.657E-04    0.00       6.4  T
  19   -972.2122151 -0.140712E-05  0.203E-04    0.00      20.7  T
  20   -972.2122152 -0.141573E-06  0.505E-05    0.00      82.9  T
  21   -972.2122152 -0.938974E-08  0.207E-05    0.00     202.5  T
     SCC iter.                  ...        0 min, 41.322 sec
     gradient                   ...        0 min,  1.531 sec
 * total energy  :  -953.2080257 Eh     change       -0.6469186E+00 Eh
   gradient norm :     1.7734104 Eh/a0  converged?    E=F G=F D=F
   step length   :     3.6861901 a0

........................................................................
.............................. CYCLE    3 ..............................
........................................................................
   1   -972.2606525 -0.972261E+03  0.817E-02    0.01       0.0  T
   2   -971.6038332  0.656819E+00  0.507E-01    0.26       1.0  T
   3   -972.1892128 -0.585380E+00  0.159E-01    0.10       1.0  T
   4   -972.1728019  0.164110E-01  0.166E-01    0.17       1.0  T
   5   -972.2713169 -0.985151E-01  0.440E-02    0.01       1.0  T
   6   -972.1803955  0.909215E-01  0.157E-01    0.06       1.0  T
   7   -972.2709601 -0.905646E-01  0.385E-02    0.01       1.0  T
   8   -972.2685362  0.242383E-02  0.333E-02    0.02       1.0  T
   9   -972.2701013 -0.156508E-02  0.276E-02    0.02       1.0  T
  10   -972.2720589 -0.195763E-02  0.164E-02    0.01       1.0  T
  11   -972.2724331 -0.374128E-03  0.120E-02    0.01       1.0  T
  12   -972.2728151 -0.382071E-03  0.625E-03    0.01       1.0  T
  13   -972.2730016 -0.186504E-03  0.105E-03    0.00       4.0  T
  14   -972.2730027 -0.104730E-05  0.936E-04    0.00       4.5  T
  15   -972.2730028 -0.142517E-06  0.856E-04    0.00       4.9  T
  16   -972.2730041 -0.122347E-05  0.523E-04    0.00       8.0  T
  17   -972.2730046 -0.525526E-06  0.234E-04    0.00      17.9  T
  18   -972.2730046 -0.157947E-07  0.152E-04    0.00      27.5  T
  19   -972.2730047 -0.829209E-07  0.481E-05    0.00      87.1  T
     SCC iter.                  ...        0 min, 37.399 sec
     gradient                   ...        0 min,  1.534 sec
 * total energy  :  -953.5449281 Eh     change       -0.3369025E+00 Eh
   gradient norm :     1.5264092 Eh/a0  converged?    E=F G=F D=F
   step length   :     7.1259474 a0

........................................................................
.............................. CYCLE    4 ..............................
........................................................................
   1   -972.2984307 -0.972298E+03  0.410E-02    0.01       0.0  T
   2   -972.2499313  0.484994E-01  0.152E-01    0.09       1.0  T
   3   -972.2728376 -0.229063E-01  0.985E-02    0.06       1.0  T
   4   -972.2581798  0.146578E-01  0.115E-01    0.08       1.0  T
   5   -972.2988917 -0.407119E-01  0.460E-02    0.02       1.0  T
   6   -972.2988049  0.868319E-04  0.257E-02    0.02       1.0  T
   7   -972.3001524 -0.134755E-02  0.159E-02    0.01       1.0  T
   8   -972.3012850 -0.113253E-02  0.232E-03    0.01       1.8  T
   9   -972.3012970 -0.120573E-04  0.103E-03    0.01       4.1  T
  10   -972.3012996 -0.253879E-05  0.386E-04    0.01      10.8  T
  11   -972.3012992  0.342006E-06  0.418E-04    0.01      10.0  T
  12   -972.3012999 -0.636338E-06  0.124E-04    0.01      33.7  T
  13   -972.3012998  0.251665E-07  0.112E-04    0.01      37.5  T
     SCC iter.                  ...        0 min, 25.643 sec
     gradient                   ...        0 min,  1.528 sec
 * total energy  :  -953.7506994 Eh     change       -0.2057713E+00 Eh
   gradient norm :     1.3873854 Eh/a0  converged?    E=F G=F D=F
   step length   :    20.3305675 a0

........................................................................
.............................. CYCLE    5 ..............................
........................................................................
   1   -972.3300244 -0.972330E+03  0.317E-02    0.01       0.0  T
   2   -972.3296748  0.349509E-03  0.457E-02    0.01       1.0  T
   3   -972.3308826 -0.120779E-02  0.163E-02    0.01       1.0  T
   4   -972.3070821  0.238005E-01  0.759E-02    0.06       1.0  T
   5   -972.3281661 -0.210840E-01  0.282E-02    0.02       1.0  T
   6   -972.3307054 -0.253930E-02  0.915E-03    0.02       1.0  T
   7   -972.3310028 -0.297349E-03  0.367E-03    0.01       1.1  T
   8   -972.3310316 -0.288471E-04  0.151E-03    0.01       2.8  T
   9   -972.3310389 -0.734221E-05  0.593E-04    0.01       7.1  T
  10   -972.3310396 -0.678086E-06  0.292E-04    0.01      14.3  T
  11   -972.3310397 -0.108424E-06  0.180E-04    0.01      23.2  T
  12   -972.3310398 -0.988596E-07  0.817E-05    0.01      51.3  T
     SCC iter.                  ...        0 min, 23.681 sec
     gradient                   ...        0 min,  1.534 sec
 * total energy  :  -953.9313358 Eh     change       -0.1806364E+00 Eh
   gradient norm :     1.2712268 Eh/a0  converged?    E=F G=F D=F
   step length   :    80.1394931 a0

........................................................................
.............................. CYCLE    6 ..............................
........................................................................
   1   -972.3532165 -0.972353E+03  0.299E-02    0.02       0.0  T
   2   -972.3500054  0.321114E-02  0.472E-02    0.03       1.0  T
   3   -972.3255750  0.244304E-01  0.813E-02    0.07       1.0  T
   4   -972.3471464 -0.215715E-01  0.410E-02    0.04       1.0  T
   5   -972.3531572 -0.601077E-02  0.183E-02    0.02       1.0  T
   6   -972.3535514 -0.394221E-03  0.117E-02    0.02       1.0  T
   7   -972.3539332 -0.381745E-03  0.474E-03    0.02       1.0  T
   8   -972.3539977 -0.645186E-04  0.213E-03    0.02       2.0  T
   9   -972.3540124 -0.146693E-04  0.749E-04    0.02       5.6  T
  10   -972.3540145 -0.209060E-05  0.246E-04    0.02      17.1  T
  11   -972.3540143  0.146069E-06  0.250E-04    0.02      16.8  T
  12   -972.3540146 -0.273209E-06  0.723E-05    0.02      57.9  T
  13   -972.3540146 -0.335433E-08  0.583E-05    0.02      71.8  T
     SCC iter.                  ...        0 min, 25.637 sec
     gradient                   ...        0 min,  1.536 sec
 * total energy  :  -954.0859954 Eh     change       -0.1546596E+00 Eh
   gradient norm :     1.1779557 Eh/a0  converged?    E=F G=F D=F
   step length   :    77.0255961 a0

........................................................................
.............................. CYCLE    7 ..............................
........................................................................
   1   -972.3739894 -0.972374E+03  0.297E-02    0.03       0.0  T
   2   -972.3738514  0.138014E-03  0.370E-02    0.03       1.0  T
   3   -972.3732326  0.618774E-03  0.234E-02    0.03       1.0  T
   4   -972.3383495  0.348830E-01  0.891E-02    0.09       1.0  T
   5   -972.3739227 -0.355732E-01  0.180E-02    0.03       1.0  T
   6   -972.3737062  0.216468E-03  0.151E-02    0.03       1.0  T
   7   -972.3743710 -0.664726E-03  0.704E-03    0.03       1.0  T
   8   -972.3746019 -0.230972E-03  0.922E-04    0.03       4.5  T
   9   -972.3746030 -0.102543E-05  0.487E-04    0.03       8.6  T
  10   -972.3746030  0.153534E-08  0.364E-04    0.03      11.5  T
  11   -972.3746033 -0.368762E-06  0.277E-04    0.03      15.1  T
  12   -972.3746037 -0.371224E-06  0.755E-05    0.03      55.5  T
  13   -972.3746037  0.732939E-09  0.595E-05    0.03      70.4  T
     SCC iter.                  ...        0 min, 25.628 sec
     gradient                   ...        0 min,  1.530 sec
 * total energy  :  -954.2239347 Eh     change       -0.1379393E+00 Eh
   gradient norm :     1.0952747 Eh/a0  converged?    E=F G=F D=F
   step length   :    82.7248827 a0

........................................................................
.............................. CYCLE    8 ..............................
........................................................................
   1   -972.4070859 -0.972407E+03  0.296E-02    0.04       0.0  T
   2   -972.4068431  0.242858E-03  0.382E-02    0.04       1.0  T
   3   -972.4068387  0.440751E-05  0.210E-02    0.04       1.0  T
   4   -972.3782316  0.286071E-01  0.790E-02    0.09       1.0  T
   5   -972.4068012 -0.285696E-01  0.194E-02    0.04       1.0  T
   6   -972.4067937  0.748325E-05  0.150E-02    0.04       1.0  T
   7   -972.4075117 -0.718033E-03  0.621E-03    0.04       1.0  T
   8   -972.4076883 -0.176552E-03  0.127E-03    0.04       3.3  T
   9   -972.4076939 -0.563328E-05  0.392E-04    0.04      10.7  T
  10   -972.4076934  0.475669E-06  0.396E-04    0.04      10.6  T
  11   -972.4076943 -0.882833E-06  0.141E-04    0.04      29.7  T
  12   -972.4076944 -0.797851E-07  0.609E-05    0.04      68.8  T
     SCC iter.                  ...        0 min, 23.669 sec
     gradient                   ...        0 min,  1.532 sec
 * total energy  :  -954.3439152 Eh     change       -0.1199805E+00 Eh
   gradient norm :     1.0158276 Eh/a0  converged?    E=F G=F D=F
   step length   :    27.7228844 a0

........................................................................
.............................. CYCLE    9 ..............................
........................................................................
   1   -972.4375208 -0.972438E+03  0.286E-02    0.06       0.0  T
   2   -972.4372201  0.300783E-03  0.374E-02    0.06       1.0  T
   3   -972.4379619 -0.741800E-03  0.149E-02    0.06       1.0  T
   4   -972.4292650  0.869683E-02  0.445E-02    0.07       1.0  T
   5   -972.4350913 -0.582627E-02  0.275E-02    0.06       1.0  T
   6   -972.4377004 -0.260914E-02  0.122E-02    0.06       1.0  T
   7   -972.4381446 -0.444124E-03  0.329E-03    0.06       1.3  T
   8   -972.4381839 -0.393769E-04  0.973E-04    0.06       4.3  T
   9   -972.4381851 -0.119992E-05  0.588E-04    0.06       7.1  T
  10   -972.4381868 -0.161817E-05  0.266E-04    0.06      15.8  T
  11   -972.4381870 -0.284047E-06  0.113E-04    0.06      37.2  T
  12   -972.4381871 -0.399414E-07  0.648E-05    0.06      64.7  T
     SCC iter.                  ...        0 min, 23.661 sec
     gradient                   ...        0 min,  1.540 sec
 * total energy  :  -954.4379823 Eh     change       -0.9406705E-01 Eh
   gradient norm :     0.9400995 Eh/a0  converged?    E=F G=F D=F
   step length   :    15.4527839 a0

........................................................................
.............................. CYCLE   10 ..............................
........................................................................
   1   -972.4817126 -0.972482E+03  0.252E-02    0.08       0.0  T
   2   -972.4814310  0.281558E-03  0.279E-02    0.08       1.0  T
   3   -972.4818878 -0.456771E-03  0.119E-02    0.08       1.0  T
   4   -972.4807322  0.115557E-02  0.203E-02    0.08       1.0  T
   5   -972.4811541 -0.421873E-03  0.157E-02    0.08       1.0  T
   6   -972.4817882 -0.634087E-03  0.107E-02    0.08       1.0  T
   7   -972.4822277 -0.439498E-03  0.249E-03    0.08       1.7  T
   8   -972.4822455 -0.177915E-04  0.130E-03    0.08       3.2  T
   9   -972.4822517 -0.624137E-05  0.555E-04    0.08       7.6  T
  10   -972.4822532 -0.151737E-05  0.184E-04    0.08      22.8  T
  11   -972.4822533 -0.577877E-07  0.120E-04    0.08      34.9  T
  12   -972.4822534 -0.684560E-07  0.485E-05    0.08      86.4  T
     SCC iter.                  ...        0 min, 23.667 sec
     gradient                   ...        0 min,  1.535 sec
 * total energy  :  -954.5181325 Eh     change       -0.8015023E-01 Eh
   gradient norm :     0.8699258 Eh/a0  converged?    E=F G=F D=F
   step length   :    12.8096639 a0

........................................................................
.............................. CYCLE   11 ..............................
........................................................................
   1   -972.5233665 -0.972523E+03  0.225E-02    0.12       0.0  T
   2   -972.5234021 -0.356469E-04  0.187E-02    0.11       1.0  T
   3   -972.5234407 -0.385187E-04  0.111E-02    0.11       1.0  T
   4   -972.5230713  0.369369E-03  0.134E-02    0.11       1.0  T
   5   -972.5234977 -0.426378E-03  0.864E-03    0.11       1.0  T
   6   -972.5237163 -0.218604E-03  0.423E-03    0.11       1.0  T
   7   -972.5237620 -0.456983E-04  0.180E-03    0.11       2.3  T
   8   -972.5237714 -0.939160E-05  0.730E-04    0.11       5.7  T
   9   -972.5237731 -0.172806E-05  0.342E-04    0.11      12.2  T
  10   -972.5237736 -0.488657E-06  0.112E-04    0.11      37.3  T
  11   -972.5237736 -0.283261E-07  0.494E-05    0.11      84.8  T
     SCC iter.                  ...        0 min, 21.700 sec
     gradient                   ...        0 min,  1.535 sec
 * total energy  :  -954.5902975 Eh     change       -0.7216496E-01 Eh
   gradient norm :     0.7975040 Eh/a0  converged?    E=F G=F D=F
   step length   :    13.2549371 a0

........................................................................
.............................. CYCLE   12 ..............................
........................................................................
   1   -972.5591198 -0.972559E+03  0.213E-02    0.16       0.0  T
   2   -972.5592539 -0.134130E-03  0.144E-02    0.15       1.0  T
   3   -972.5593661 -0.112225E-03  0.798E-03    0.15       1.0  T
   4   -972.5593821 -0.159829E-04  0.690E-03    0.15       1.0  T
   5   -972.5594561 -0.740011E-04  0.370E-03    0.15       1.1  T
   6   -972.5594800 -0.238591E-04  0.173E-03    0.15       2.4  T
   7   -972.5594863 -0.629915E-05  0.982E-04    0.15       4.3  T
   8   -972.5594892 -0.289379E-05  0.353E-04    0.15      11.9  T
   9   -972.5594895 -0.343361E-06  0.144E-04    0.15      29.1  T
  10   -972.5594895 -0.214922E-07  0.974E-05    0.15      43.0  T
     SCC iter.                  ...        0 min, 19.735 sec
     gradient                   ...        0 min,  1.537 sec
 * total energy  :  -954.6576244 Eh     change       -0.6732687E-01 Eh
   gradient norm :     0.7226777 Eh/a0  converged?    E=F G=F D=F
   step length   :    14.0368069 a0

........................................................................
.............................. CYCLE   13 ..............................
........................................................................
   1   -972.5832602 -0.972583E+03  0.190E-02    0.20       0.0  T
   2   -972.5834095 -0.149327E-03  0.117E-02    0.20       1.0  T
   3   -972.5834976 -0.880651E-04  0.621E-03    0.20       1.0  T
   4   -972.5835160 -0.184380E-04  0.505E-03    0.20       1.0  T
   5   -972.5835507 -0.347079E-04  0.255E-03    0.20       1.6  T
   6   -972.5835588 -0.802738E-05  0.989E-04    0.20       4.2  T
   7   -972.5835599 -0.108906E-05  0.373E-04    0.20      11.2  T
   8   -972.5835601 -0.252633E-06  0.164E-04    0.20      25.6  T
   9   -972.5835602 -0.442262E-07  0.874E-05    0.20      47.9  T
     SCC iter.                  ...        0 min, 17.779 sec
     gradient                   ...        0 min,  1.540 sec
 * total energy  :  -954.7153897 Eh     change       -0.5776533E-01 Eh
   gradient norm :     0.6492368 Eh/a0  converged?    E=F G=F D=F
   step length   :    13.2976280 a0

........................................................................
.............................. CYCLE   14 ..............................
........................................................................
   1   -972.6115876 -0.972612E+03  0.183E-02    0.25       0.0  T
   2   -972.6117051 -0.117555E-03  0.122E-02    0.25       1.0  T
   3   -972.6118170 -0.111875E-03  0.549E-03    0.25       1.0  T
   4   -972.6118265 -0.955087E-05  0.478E-03    0.25       1.0  T
   5   -972.6118535 -0.269505E-04  0.214E-03    0.25       2.0  T
   6   -972.6118579 -0.438387E-05  0.926E-04    0.25       4.5  T
   7   -972.6118593 -0.146462E-05  0.356E-04    0.25      11.8  T
   8   -972.6118596 -0.245561E-06  0.120E-04    0.25      34.8  T
   9   -972.6118596 -0.163053E-07  0.558E-05    0.25      75.0  T
     SCC iter.                  ...        0 min, 17.783 sec
     gradient                   ...        0 min,  1.544 sec
 * total energy  :  -954.7688464 Eh     change       -0.5345673E-01 Eh
   gradient norm :     0.5738798 Eh/a0  converged?    E=F G=F D=F
   step length   :    16.6696567 a0

........................................................................
.............................. CYCLE   15 ..............................
........................................................................
   1   -972.6369670 -0.972637E+03  0.162E-02    0.31       0.0  T
   2   -972.6370618 -0.948450E-04  0.112E-02    0.30       1.0  T
   3   -972.6371640 -0.102176E-03  0.477E-03    0.30       1.0  T
   4   -972.6371701 -0.611820E-05  0.407E-03    0.30       1.0  T
   5   -972.6371910 -0.209094E-04  0.186E-03    0.30       2.2  T
   6   -972.6371942 -0.320576E-05  0.678E-04    0.30       6.2  T
   7   -972.6371950 -0.722472E-06  0.269E-04    0.30      15.6  T
   8   -972.6371951 -0.122854E-06  0.975E-05    0.30      42.9  T
   9   -972.6371951 -0.105396E-07  0.391E-05    0.30     107.1  T
     SCC iter.                  ...        0 min, 17.768 sec
     gradient                   ...        0 min,  1.543 sec
 * total energy  :  -954.8139266 Eh     change       -0.4508014E-01 Eh
   gradient norm :     0.5025588 Eh/a0  converged?    E=F G=F D=F
   step length   :     9.3416157 a0

........................................................................
.............................. CYCLE   16 ..............................
........................................................................
   1   -972.6593943 -0.972659E+03  0.162E-02    0.36       0.0  T
   2   -972.6594785 -0.842226E-04  0.123E-02    0.36       1.0  T
   3   -972.6595983 -0.119828E-03  0.453E-03    0.36       1.0  T
   4   -972.6595938  0.455445E-05  0.421E-03    0.36       1.0  T
   5   -972.6596132 -0.194349E-04  0.193E-03    0.36       2.2  T
   6   -972.6596172 -0.392312E-05  0.596E-04    0.36       7.0  T
   7   -972.6596177 -0.533666E-06  0.233E-04    0.36      18.0  T
   8   -972.6596178 -0.835057E-07  0.864E-05    0.36      48.5  T
   9   -972.6596178 -0.885211E-08  0.311E-05    0.36     134.8  T
     SCC iter.                  ...        0 min, 17.777 sec
     gradient                   ...        0 min,  1.545 sec
 * total energy  :  -954.8526533 Eh     change       -0.3872674E-01 Eh
   gradient norm :     0.4351135 Eh/a0  converged?    E=F G=F D=F
   step length   :    12.1892476 a0

........................................................................
.............................. CYCLE   17 ..............................
........................................................................
   1   -972.6808097 -0.972681E+03  0.136E-02    0.41       0.0  T
   2   -972.6808689 -0.591414E-04  0.996E-03    0.41       1.0  T
   3   -972.6809541 -0.851995E-04  0.393E-03    0.41       1.1  T
   4   -972.6809575 -0.343417E-05  0.334E-03    0.41       1.3  T
   5   -972.6809703 -0.127853E-04  0.151E-03    0.41       2.8  T
   6   -972.6809722 -0.192906E-05  0.472E-04    0.41       8.9  T
   7   -972.6809726 -0.324884E-06  0.178E-04    0.41      23.5  T
   8   -972.6809726 -0.459313E-07  0.696E-05    0.41      60.2  T
     SCC iter.                  ...        0 min, 15.813 sec
     gradient                   ...        0 min,  1.549 sec
 * total energy  :  -954.8861269 Eh     change       -0.3347358E-01 Eh
   gradient norm :     0.3687637 Eh/a0  converged?    E=F G=F D=F
   step length   :     7.9869940 a0

........................................................................
.............................. CYCLE   18 ..............................
........................................................................
   1   -972.7002562 -0.972700E+03  0.118E-02    0.46       0.0  T
   2   -972.7002986 -0.423557E-04  0.896E-03    0.46       1.0  T
   3   -972.7003662 -0.676052E-04  0.331E-03    0.46       1.3  T
   4   -972.7003655  0.707674E-06  0.289E-03    0.46       1.4  T
   5   -972.7003742 -0.874964E-05  0.138E-03    0.46       3.0  T
   6   -972.7003762 -0.197779E-05  0.369E-04    0.46      11.4  T
   7   -972.7003764 -0.188119E-06  0.136E-04    0.46      30.7  T
   8   -972.7003764 -0.248216E-07  0.572E-05    0.46      73.2  T
     SCC iter.                  ...        0 min, 15.807 sec
     gradient                   ...        0 min,  1.548 sec
 * total energy  :  -954.9126070 Eh     change       -0.2648013E-01 Eh
   gradient norm :     0.3149170 Eh/a0  converged?    E=F G=F D=F
   step length   :     7.9988855 a0

........................................................................
.............................. CYCLE   19 ..............................
........................................................................
   1   -972.7131681 -0.972713E+03  0.111E-02    0.51       0.0  T
   2   -972.7132054 -0.372572E-04  0.840E-03    0.51       1.0  T
   3   -972.7132653 -0.599126E-04  0.316E-03    0.51       1.3  T
   4   -972.7132647  0.568777E-06  0.274E-03    0.51       1.5  T
   5   -972.7132726 -0.783428E-05  0.125E-03    0.51       3.3  T
   6   -972.7132741 -0.152239E-05  0.349E-04    0.51      12.0  T
   7   -972.7132743 -0.171254E-06  0.124E-04    0.51      33.7  T
   8   -972.7132743 -0.208761E-07  0.521E-05    0.51      80.4  T
     SCC iter.                  ...        0 min, 15.813 sec
     gradient                   ...        0 min,  1.541 sec
 * total energy  :  -954.9360218 Eh     change       -0.2341480E-01 Eh
   gradient norm :     0.2612873 Eh/a0  converged?    E=F G=F D=F
   step length   :     7.8800785 a0

........................................................................
.............................. CYCLE   20 ..............................
........................................................................
   1   -972.7254776 -0.972725E+03  0.103E-02    0.55       0.0  T
   2   -972.7255051 -0.275007E-04  0.733E-03    0.55       1.0  T
   3   -972.7255513 -0.462577E-04  0.291E-03    0.55       1.4  T
   4   -972.7255531 -0.174226E-05  0.219E-03    0.55       1.9  T
   5   -972.7255575 -0.442797E-05  0.113E-03    0.55       3.7  T
   6   -972.7255588 -0.131676E-05  0.273E-04    0.55      15.3  T
   7   -972.7255589 -0.102611E-06  0.856E-05    0.55      49.0  T
   8   -972.7255589 -0.731416E-08  0.409E-05    0.55     102.5  T
     SCC iter.                  ...        0 min, 15.810 sec
     gradient                   ...        0 min,  1.548 sec
 * total energy  :  -954.9546269 Eh     change       -0.1860514E-01 Eh
   gradient norm :     0.2066906 Eh/a0  converged?    E=F G=F D=F
   step length   :     5.5089650 a0
 * RMSD in coord.:     0.6826858 a0     energy gain  -0.5008506E+01 Eh
 * calculating model hessian...
Using Lindh-Hessian (1995)
 Shifting diagonal of input Hessian by    1.0002536572992540E-002
 Lowest  eigenvalues of input Hessian
    0.010000    0.010001    0.010001    0.010002    0.010002    0.010002
    0.010002    0.000000    0.000000    0.000000    0.000000    0.000000
    0.000000    0.010003    0.010003    0.010003    0.010003    0.010004
 Highest eigenvalues
    3.059836    3.060419    3.071181    3.071259    3.073061    3.073072


........................................................................
.............................. CYCLE   21 ..............................
........................................................................
   1   -972.7891058 -0.972789E+03  0.218E-02    0.60       0.0  T
   2   -972.7892075 -0.101723E-03  0.205E-02    0.60       1.0  T
   3   -972.7894706 -0.263105E-03  0.687E-03    0.60       1.0  T
   4   -972.7894434  0.272300E-04  0.581E-03    0.60       1.0  T
   5   -972.7894619 -0.184830E-04  0.289E-03    0.60       1.5  T
   6   -972.7894739 -0.119863E-04  0.503E-04    0.60       8.3  T
   7   -972.7894742 -0.340701E-06  0.113E-04    0.60      37.0  T
   8   -972.7894742 -0.842431E-08  0.450E-05    0.60      93.2  T
     SCC iter.                  ...        0 min, 15.802 sec
     gradient                   ...        0 min,  1.542 sec
 * total energy  :  -954.9831598 Eh     change       -0.2853287E-01 Eh
   gradient norm :     0.0798067 Eh/a0  converged?    E=F G=F D=F
   step length   :     0.4258105 a0

........................................................................
.............................. CYCLE   22 ..............................
........................................................................
   1   -972.7797238 -0.972780E+03  0.170E-02    0.66       0.0  T
   2   -972.7797811 -0.573216E-04  0.139E-02    0.66       1.0  T
   3   -972.7798843 -0.103162E-03  0.539E-03    0.66       1.0  T
   4   -972.7798766  0.771043E-05  0.386E-03    0.66       1.1  T
   5   -972.7798820 -0.542382E-05  0.177E-03    0.66       2.4  T
   6   -972.7798875 -0.551334E-05  0.378E-04    0.66      11.1  T
   7   -972.7798877 -0.163880E-06  0.106E-04    0.66      39.6  T
   8   -972.7798877 -0.997284E-08  0.460E-05    0.66      91.1  T
     SCC iter.                  ...        0 min, 15.788 sec
     gradient                   ...        0 min,  1.543 sec
 * total energy  :  -954.9977972 Eh     change       -0.1463736E-01 Eh
   gradient norm :     0.0410401 Eh/a0  converged?    E=F G=F D=F
   step length   :     1.0524614 a0

........................................................................
.............................. CYCLE   23 ..............................
........................................................................
   1   -972.7461003 -0.972746E+03  0.111E-02    0.70       0.0  T
   2   -972.7461179 -0.176466E-04  0.689E-03    0.70       1.0  T
   3   -972.7461222 -0.432124E-05  0.421E-03    0.70       1.0  T
   4   -972.7461205  0.179200E-05  0.244E-03    0.70       1.7  T
   5   -972.7461280 -0.750954E-05  0.901E-04    0.70       4.6  T
   6   -972.7461294 -0.138916E-05  0.245E-04    0.70      17.1  T
   7   -972.7461295 -0.950264E-07  0.688E-05    0.70      60.9  T
   8   -972.7461295 -0.477405E-08  0.281E-05    0.70     149.0  T
     SCC iter.                  ...        0 min, 15.783 sec
     gradient                   ...        0 min,  1.542 sec
 * total energy  :  -955.0014676 Eh     change       -0.3670448E-02 Eh
   gradient norm :     0.0639396 Eh/a0  converged?    E=F G=F D=F
   step length   :     1.7302129 a0

........................................................................
.............................. CYCLE   24 ..............................
........................................................................
   1   -972.7541851 -0.972754E+03  0.963E-03    0.73       0.0  T
   2   -972.7541991 -0.140622E-04  0.825E-03    0.72       1.0  T
   3   -972.7542269 -0.278078E-04  0.376E-03    0.72       1.1  T
   4   -972.7542184  0.857634E-05  0.251E-03    0.72       1.7  T
   5   -972.7542269 -0.851653E-05  0.113E-03    0.72       3.7  T
   6   -972.7542285 -0.166678E-05  0.169E-04    0.72      24.8  T
   7   -972.7542286 -0.322516E-07  0.503E-05    0.72      83.3  T
   8   -972.7542286 -0.357102E-08  0.198E-05    0.72     211.0  T
     SCC iter.                  ...        0 min, 15.779 sec
     gradient                   ...        0 min,  1.541 sec
 * total energy  :  -955.0094318 Eh     change       -0.7964210E-02 Eh
   gradient norm :     0.0661038 Eh/a0  converged?    E=F G=F D=F
   step length   :     1.6219599 a0

........................................................................
.............................. CYCLE   25 ..............................
........................................................................
   1   -972.7352577 -0.972735E+03  0.503E-03    0.73       0.0  T
   2   -972.7352635 -0.579784E-05  0.311E-03    0.73       1.3  T
   3   -972.7352677 -0.421891E-05  0.144E-03    0.73       2.9  T
   4   -972.7352670  0.692108E-06  0.120E-03    0.73       3.5  T
   5   -972.7352685 -0.148039E-05  0.463E-04    0.73       9.0  T
   6   -972.7352688 -0.291817E-06  0.108E-04    0.73      38.8  T
   7   -972.7352688 -0.146784E-07  0.332E-05    0.73     126.0  T
     SCC iter.                  ...        0 min, 13.817 sec
     gradient                   ...        0 min,  1.548 sec
 * total energy  :  -955.0166934 Eh     change       -0.7261546E-02 Eh
   gradient norm :     0.0596501 Eh/a0  converged?    E=F G=F D=F
   step length   :     2.3585527 a0

........................................................................
.............................. CYCLE   26 ..............................
........................................................................
   1   -972.7059861 -0.972706E+03  0.543E-03    0.73       0.0  T
   2   -972.7059924 -0.624363E-05  0.485E-03    0.73       1.0  T
   3   -972.7060051 -0.127502E-04  0.177E-03    0.73       2.4  T
   4   -972.7060039  0.127064E-05  0.132E-03    0.73       3.2  T
   5   -972.7060048 -0.967844E-06  0.551E-04    0.73       7.6  T
   6   -972.7060053 -0.485262E-06  0.969E-05    0.73      43.2  T
   7   -972.7060053 -0.129108E-07  0.292E-05    0.73     143.6  T
     SCC iter.                  ...        0 min, 13.821 sec
     gradient                   ...        0 min,  1.539 sec
 * total energy  :  -955.0217464 Eh     change       -0.5053062E-02 Eh
   gradient norm :     0.0455134 Eh/a0  converged?    E=F G=F D=F
   step length   :     3.1858340 a0

........................................................................
.............................. CYCLE   27 ..............................
........................................................................
   1   -972.6889505 -0.972689E+03  0.370E-03    0.73       0.0  T
   2   -972.6889539 -0.333157E-05  0.294E-03    0.73       1.4  T
   3   -972.6889591 -0.518762E-05  0.113E-03    0.73       3.7  T
   4   -972.6889587  0.408261E-06  0.882E-04    0.73       4.7  T
   5   -972.6889590 -0.378771E-06  0.409E-04    0.73      10.2  T
   6   -972.6889593 -0.255759E-06  0.808E-05    0.73      51.9  T
   7   -972.6889593 -0.812179E-08  0.268E-05    0.73     156.5  T
     SCC iter.                  ...        0 min, 13.822 sec
     gradient                   ...        0 min,  1.546 sec
 * total energy  :  -955.0263964 Eh     change       -0.4649971E-02 Eh
   gradient norm :     0.0387320 Eh/a0  converged?    E=F G=F D=F
   step length   :     3.5642175 a0

........................................................................
.............................. CYCLE   28 ..............................
........................................................................
   1   -972.6830542 -0.972683E+03  0.308E-03    0.72       0.0  T
   2   -972.6830563 -0.214701E-05  0.240E-03    0.72       1.7  T
   3   -972.6830605 -0.421520E-05  0.839E-04    0.72       5.0  T
   4   -972.6830603  0.194863E-06  0.686E-04    0.72       6.1  T
   5   -972.6830606 -0.242114E-06  0.373E-04    0.72      11.2  T
   6   -972.6830607 -0.188343E-06  0.710E-05    0.72      59.0  T
   7   -972.6830608 -0.464865E-08  0.240E-05    0.72     174.4  T
     SCC iter.                  ...        0 min, 13.813 sec
     gradient                   ...        0 min,  1.544 sec
 * total energy  :  -955.0304661 Eh     change       -0.4069729E-02 Eh
   gradient norm :     0.0349713 Eh/a0  converged?    E=F G=F D=F
   step length   :     3.8085373 a0

........................................................................
.............................. CYCLE   29 ..............................
........................................................................
   1   -972.6840745 -0.972684E+03  0.291E-03    0.71       0.0  T
   2   -972.6840765 -0.199453E-05  0.214E-03    0.72       2.0  T
   3   -972.6840801 -0.361520E-05  0.757E-04    0.72       5.5  T
   4   -972.6840801  0.270567E-07  0.565E-04    0.72       7.4  T
   5   -972.6840802 -0.125558E-06  0.321E-04    0.72      13.0  T
   6   -972.6840803 -0.139260E-06  0.689E-05    0.72      60.8  T
   7   -972.6840803 -0.553007E-08  0.237E-05    0.72     176.4  T
     SCC iter.                  ...        0 min, 13.813 sec
     gradient                   ...        0 min,  1.546 sec
 * total energy  :  -955.0342824 Eh     change       -0.3816211E-02 Eh
   gradient norm :     0.0324948 Eh/a0  converged?    E=F G=F D=F
   step length   :     5.1051601 a0

........................................................................
.............................. CYCLE   30 ..............................
........................................................................
   1   -972.6867933 -0.972687E+03  0.278E-03    0.71       0.0  T
   2   -972.6867955 -0.218145E-05  0.195E-03    0.71       2.1  T
   3   -972.6867984 -0.295665E-05  0.769E-04    0.71       5.4  T
   4   -972.6867984 -0.128430E-07  0.545E-04    0.71       7.7  T
   5   -972.6867986 -0.147363E-06  0.281E-04    0.71      14.9  T
   6   -972.6867987 -0.110503E-06  0.719E-05    0.71      58.3  T
   7   -972.6867987 -0.740283E-08  0.240E-05    0.71     174.6  T
     SCC iter.                  ...        0 min, 13.824 sec
     gradient                   ...        0 min,  1.539 sec
 * total energy  :  -955.0377330 Eh     change       -0.3450603E-02 Eh
   gradient norm :     0.0296925 Eh/a0  converged?    E=F G=F D=F
   step length   :     5.1413997 a0

........................................................................
.............................. CYCLE   31 ..............................
........................................................................
   1   -972.6898412 -0.972690E+03  0.258E-03    0.70       0.0  T
   2   -972.6898432 -0.208618E-05  0.164E-03    0.70       2.5  T
   3   -972.6898454 -0.211735E-05  0.756E-04    0.70       5.5  T
   4   -972.6898455 -0.149893E-06  0.465E-04    0.70       9.0  T
   5   -972.6898456 -0.563573E-07  0.229E-04    0.70      18.3  T
   6   -972.6898457 -0.829189E-07  0.705E-05    0.70      59.4  T
   7   -972.6898457 -0.779892E-08  0.221E-05    0.70     189.6  T
     SCC iter.                  ...        0 min, 13.810 sec
     gradient                   ...        0 min,  1.539 sec
 * total energy  :  -955.0408869 Eh     change       -0.3153962E-02 Eh
   gradient norm :     0.0295610 Eh/a0  converged?    E=F G=F D=F
   step length   :     6.0797874 a0

........................................................................
.............................. CYCLE   32 ..............................
........................................................................
   1   -972.6961496 -0.972696E+03  0.256E-03    0.70       0.0  T
   2   -972.6961517 -0.210653E-05  0.154E-03    0.70       2.7  T
   3   -972.6961536 -0.188401E-05  0.761E-04    0.70       5.5  T
   4   -972.6961538 -0.175102E-06  0.466E-04    0.70       9.0  T
   5   -972.6961539 -0.990665E-07  0.208E-04    0.70      20.2  T
   6   -972.6961539 -0.705743E-07  0.697E-05    0.70      60.1  T
   7   -972.6961539 -0.751811E-08  0.231E-05    0.70     181.5  T
     SCC iter.                  ...        0 min, 13.831 sec
     gradient                   ...        0 min,  1.545 sec
 * total energy  :  -955.0438074 Eh     change       -0.2920445E-02 Eh
   gradient norm :     0.0301746 Eh/a0  converged?    E=F G=F D=F
   step length   :     5.6990961 a0

........................................................................
.............................. CYCLE   33 ..............................
........................................................................
   1   -972.7055646 -0.972706E+03  0.248E-03    0.69       0.0  T
   2   -972.7055665 -0.189213E-05  0.150E-03    0.69       2.8  T
   3   -972.7055681 -0.165141E-05  0.799E-04    0.69       5.2  T
   4   -972.7055683 -0.228469E-06  0.492E-04    0.69       8.5  T
   5   -972.7055685 -0.129610E-06  0.224E-04    0.69      18.7  T
   6   -972.7055686 -0.806773E-07  0.670E-05    0.69      62.5  T
   7   -972.7055686 -0.675811E-08  0.229E-05    0.69     182.9  T
     SCC iter.                  ...        0 min, 13.816 sec
     gradient                   ...        0 min,  1.540 sec
 * total energy  :  -955.0465697 Eh     change       -0.2762312E-02 Eh
   gradient norm :     0.0294969 Eh/a0  converged?    E=F G=F D=F
   step length   :     5.6491210 a0

........................................................................
.............................. CYCLE   34 ..............................
........................................................................
   1   -972.7143574 -0.972714E+03  0.235E-03    0.69       0.0  T
   2   -972.7143591 -0.167688E-05  0.144E-03    0.69       2.9  T
   3   -972.7143606 -0.147167E-05  0.771E-04    0.69       5.4  T
   4   -972.7143608 -0.188802E-06  0.485E-04    0.69       8.6  T
   5   -972.7143609 -0.149874E-06  0.202E-04    0.69      20.7  T
   6   -972.7143610 -0.671382E-07  0.613E-05    0.69      68.4  T
   7   -972.7143610 -0.545867E-08  0.216E-05    0.69     194.3  T
     SCC iter.                  ...        0 min, 13.823 sec
     gradient                   ...        0 min,  1.541 sec
 * total energy  :  -955.0490331 Eh     change       -0.2463374E-02 Eh
   gradient norm :     0.0304395 Eh/a0  converged?    E=F G=F D=F
   step length   :     5.8547173 a0

........................................................................
.............................. CYCLE   35 ..............................
........................................................................
   1   -972.7225797 -0.972723E+03  0.225E-03    0.69       0.0  T
   2   -972.7225812 -0.149344E-05  0.141E-03    0.69       3.0  T
   3   -972.7225826 -0.138999E-05  0.747E-04    0.69       5.6  T
   4   -972.7225827 -0.158817E-06  0.499E-04    0.69       8.4  T
   5   -972.7225829 -0.193627E-06  0.197E-04    0.69      21.3  T
   6   -972.7225830 -0.616200E-07  0.608E-05    0.69      68.9  T
     SCC iter.                  ...        0 min, 11.856 sec
     gradient                   ...        0 min,  1.549 sec
 * total energy  :  -955.0513752 Eh     change       -0.2342178E-02 Eh
   gradient norm :     0.0303854 Eh/a0  converged?    E=F G=F D=F
   step length   :     7.0862848 a0

........................................................................
.............................. CYCLE   36 ..............................
........................................................................
   1   -972.7386587 -0.972739E+03  0.207E-03    0.69       0.0  T
   2   -972.7386598 -0.109415E-05  0.128E-03    0.69       3.3  T
   3   -972.7386607 -0.917885E-06  0.757E-04    0.69       5.5  T
   4   -972.7386610 -0.273871E-06  0.483E-04    0.69       8.7  T
   5   -972.7386612 -0.189744E-06  0.190E-04    0.69      22.0  T
   6   -972.7386612 -0.554237E-07  0.591E-05    0.69      70.9  T
     SCC iter.                  ...        0 min, 11.861 sec
     gradient                   ...        0 min,  1.546 sec
 * total energy  :  -955.0535778 Eh     change       -0.2202595E-02 Eh
   gradient norm :     0.0293263 Eh/a0  converged?    E=F G=F D=F
   step length   :     4.1752056 a0

........................................................................
.............................. CYCLE   37 ..............................
........................................................................
   1   -972.7533412 -0.972753E+03  0.193E-03    0.69       0.0  T
   2   -972.7533420 -0.889472E-06  0.123E-03    0.69       3.4  T
   3   -972.7533429 -0.833322E-06  0.700E-04    0.69       6.0  T
   4   -972.7533430 -0.149664E-06  0.463E-04    0.69       9.0  T
   5   -972.7533432 -0.200360E-06  0.167E-04    0.69      25.1  T
   6   -972.7533433 -0.380985E-07  0.523E-05    0.69      80.1  T
     SCC iter.                  ...        0 min, 11.860 sec
     gradient                   ...        0 min,  1.545 sec
 * total energy  :  -955.0555240 Eh     change       -0.1946172E-02 Eh
   gradient norm :     0.0280458 Eh/a0  converged?    E=F G=F D=F
   step length   :     4.3306399 a0

........................................................................
.............................. CYCLE   38 ..............................
........................................................................
   1   -972.7676997 -0.972768E+03  0.185E-03    0.69       0.0  T
   2   -972.7677003 -0.690889E-06  0.125E-03    0.69       3.4  T
   3   -972.7677011 -0.751600E-06  0.693E-04    0.69       6.0  T
   4   -972.7677012 -0.851282E-07  0.490E-04    0.69       8.6  T
   5   -972.7677014 -0.236842E-06  0.180E-04    0.69      23.3  T
   6   -972.7677015 -0.446620E-07  0.522E-05    0.69      80.3  T
     SCC iter.                  ...        0 min, 11.860 sec
     gradient                   ...        0 min,  1.548 sec
 * total energy  :  -955.0573075 Eh     change       -0.1783481E-02 Eh
   gradient norm :     0.0257851 Eh/a0  converged?    E=F G=F D=F
   step length   :     4.1992639 a0

........................................................................
.............................. CYCLE   39 ..............................
........................................................................
   1   -972.7861726 -0.972786E+03  0.220E-03    0.69       0.0  T
   2   -972.7861735 -0.897429E-06  0.147E-03    0.69       2.8  T
   3   -972.7861744 -0.970303E-06  0.763E-04    0.69       5.5  T
   4   -972.7861744  0.452935E-07  0.555E-04    0.69       7.5  T
   5   -972.7861747 -0.296081E-06  0.225E-04    0.69      18.6  T
   6   -972.7861747 -0.697199E-07  0.521E-05    0.69      80.3  T
   7   -972.7861747 -0.377997E-08  0.174E-05    0.69     240.8  T
     SCC iter.                  ...        0 min, 13.811 sec
     gradient                   ...        0 min,  1.542 sec
 * total energy  :  -955.0587142 Eh     change       -0.1406674E-02 Eh
   gradient norm :     0.0240366 Eh/a0  converged?    E=F G=F D=F
   step length   :     3.5505214 a0

........................................................................
.............................. CYCLE   40 ..............................
........................................................................
   1   -972.8100032 -0.972810E+03  0.230E-03    0.69       0.0  T
   2   -972.8100041 -0.973801E-06  0.148E-03    0.69       2.8  T
   3   -972.8100050 -0.840315E-06  0.808E-04    0.69       5.2  T
   4   -972.8100050 -0.611435E-07  0.552E-04    0.69       7.6  T
   5   -972.8100053 -0.261524E-06  0.230E-04    0.69      18.2  T
   6   -972.8100054 -0.777427E-07  0.454E-05    0.69      92.3  T
   7   -972.8100054 -0.265936E-08  0.156E-05    0.69     268.5  T
     SCC iter.                  ...        0 min, 13.808 sec
     gradient                   ...        0 min,  1.548 sec
 * total energy  :  -955.0601520 Eh     change       -0.1437892E-02 Eh
   gradient norm :     0.0196560 Eh/a0  converged?    E=F G=F D=F
   step length   :     2.6381921 a0

........................................................................
.............................. CYCLE   41 ..............................
........................................................................
   1   -972.8178259 -0.972818E+03  0.292E-03    0.70       0.0  T
   2   -972.8178277 -0.173851E-05  0.162E-03    0.70       2.6  T
   3   -972.8178285 -0.871298E-06  0.102E-03    0.70       4.1  T
   4   -972.8178289 -0.376808E-06  0.607E-04    0.70       6.9  T
   5   -972.8178292 -0.247055E-06  0.285E-04    0.70      14.7  T
   6   -972.8178293 -0.122991E-06  0.626E-05    0.70      66.9  T
   7   -972.8178293 -0.638499E-08  0.169E-05    0.70     247.6  T
     SCC iter.                  ...        0 min, 13.808 sec
     gradient                   ...        0 min,  1.547 sec
 * total energy  :  -955.0613450 Eh     change       -0.1192982E-02 Eh
   gradient norm :     0.0146693 Eh/a0  converged?    E=F G=F D=F
   step length   :     1.3212013 a0

........................................................................
.............................. CYCLE   42 ..............................
........................................................................
   1   -972.8640739 -0.972864E+03  0.998E-03    0.71       0.0  T
   2   -972.8640996 -0.257657E-04  0.494E-03    0.71       1.0  T
   3   -972.8641081 -0.847366E-05  0.330E-03    0.71       1.3  T
   4   -972.8641111 -0.301858E-05  0.194E-03    0.71       2.2  T
   5   -972.8641143 -0.320769E-05  0.745E-04    0.71       5.6  T
   6   -972.8641153 -0.955310E-06  0.232E-04    0.71      18.0  T
   7   -972.8641154 -0.781934E-07  0.561E-05    0.71      74.7  T
   8   -972.8641154 -0.373279E-08  0.227E-05    0.71     184.6  T
     SCC iter.                  ...        0 min, 15.771 sec
     gradient                   ...        0 min,  1.548 sec
 * total energy  :  -955.0620783 Eh     change       -0.7332606E-03 Eh
   gradient norm :     0.0333476 Eh/a0  converged?    E=F G=F D=F
   step length   :     1.1068498 a0
 * RMSD in coord.:     0.7716923 a0     energy gain  -0.1074513E+00 Eh
 * calculating model hessian...
Using Lindh-Hessian (1995)
 Shifting diagonal of input Hessian by    1.0003309539806651E-002
 Lowest  eigenvalues of input Hessian
    0.010000    0.010000    0.010001    0.010002    0.010002    0.010002
    0.010003    0.010003    0.010003    0.000000    0.000000    0.000000
    0.000000    0.000000    0.000000    0.010004    0.010004    0.010004
 Highest eigenvalues
    3.057472    3.058365    3.061170    3.061933    3.065683    3.066407


........................................................................
.............................. CYCLE   43 ..............................
........................................................................
   1   -972.8151914 -0.972815E+03  0.579E-03    0.71       0.0  T
   2   -972.8151987 -0.729645E-05  0.290E-03    0.71       1.4  T
   3   -972.8151998 -0.109266E-05  0.184E-03    0.71       2.3  T
   4   -972.8151990  0.847109E-06  0.113E-03    0.71       3.7  T
   5   -972.8152008 -0.186075E-05  0.327E-04    0.71      12.8  T
   6   -972.8152010 -0.210218E-06  0.907E-05    0.71      46.2  T
   7   -972.8152010 -0.117666E-07  0.202E-05    0.71     207.8  T
     SCC iter.                  ...        0 min, 13.807 sec
     gradient                   ...        0 min,  1.546 sec
 * total energy  :  -955.0629119 Eh     change       -0.8335961E-03 Eh
   gradient norm :     0.0136566 Eh/a0  converged?    E=F G=F D=F
   step length   :     0.2660160 a0

........................................................................
.............................. CYCLE   44 ..............................
........................................................................
   1   -972.7666618 -0.972767E+03  0.667E-03    0.70       0.0  T
   2   -972.7666715 -0.963358E-05  0.358E-03    0.70       1.2  T
   3   -972.7666738 -0.237008E-05  0.217E-03    0.70       1.9  T
   4   -972.7666733  0.575223E-06  0.139E-03    0.70       3.0  T
   5   -972.7666754 -0.213102E-05  0.461E-04    0.70       9.1  T
   6   -972.7666758 -0.380680E-06  0.118E-04    0.70      35.6  T
   7   -972.7666758 -0.208466E-07  0.254E-05    0.70     165.0  T
     SCC iter.                  ...        0 min, 13.815 sec
     gradient                   ...        0 min,  1.547 sec
 * total energy  :  -955.0631691 Eh     change       -0.2572275E-03 Eh
   gradient norm :     0.0260464 Eh/a0  converged?    E=F G=F D=F
   step length   :     0.3510282 a0

........................................................................
.............................. CYCLE   45 ..............................
........................................................................
   1   -972.7945116 -0.972795E+03  0.312E-03    0.70       0.0  T
   2   -972.7945134 -0.180954E-05  0.178E-03    0.70       2.4  T
   3   -972.7945138 -0.358022E-06  0.114E-03    0.70       3.7  T
   4   -972.7945138  0.697139E-08  0.744E-04    0.70       5.6  T
   5   -972.7945145 -0.721605E-06  0.216E-04    0.70      19.4  T
   6   -972.7945146 -0.765446E-07  0.596E-05    0.70      70.3  T
   7   -972.7945146 -0.527245E-08  0.138E-05    0.70     302.9  T
     SCC iter.                  ...        0 min, 13.806 sec
     gradient                   ...        0 min,  1.545 sec
 * total energy  :  -955.0638811 Eh     change       -0.7119422E-03 Eh
   gradient norm :     0.0089152 Eh/a0  converged?    E=F G=F D=F
   step length   :     0.1909191 a0

........................................................................
.............................. CYCLE   46 ..............................
........................................................................
   1   -972.8258671 -0.972826E+03  0.433E-03    0.70       0.0  T
   2   -972.8258702 -0.313548E-05  0.267E-03    0.70       1.6  T
   3   -972.8258716 -0.138418E-05  0.159E-03    0.70       2.6  T
   4   -972.8258713  0.276592E-06  0.109E-03    0.70       3.8  T
   5   -972.8258729 -0.155402E-05  0.316E-04    0.70      13.3  T
   6   -972.8258731 -0.163794E-06  0.681E-05    0.70      61.5  T
   7   -972.8258731 -0.652369E-08  0.183E-05    0.70     228.8  T
     SCC iter.                  ...        0 min, 13.810 sec
     gradient                   ...        0 min,  1.550 sec
 * total energy  :  -955.0635708 Eh     change        0.3102134E-03 Eh
   gradient norm :     0.0208309 Eh/a0  converged?    E=F G=F D=F
   step length   :     0.3113127 a0

........................................................................
.............................. CYCLE   47 ..............................
........................................................................
   1   -972.8079678 -0.972808E+03  0.277E-03    0.70       0.0  T
   2   -972.8079692 -0.142461E-05  0.177E-03    0.70       2.4  T
   3   -972.8079700 -0.784854E-06  0.978E-04    0.70       4.3  T
   4   -972.8079698  0.118632E-06  0.649E-04    0.70       6.5  T
   5   -972.8079703 -0.408188E-06  0.198E-04    0.70      21.2  T
   6   -972.8079703 -0.711068E-07  0.522E-05    0.70      80.2  T
     SCC iter.                  ...        0 min, 11.853 sec
     gradient                   ...        0 min,  1.549 sec
 * total energy  :  -955.0645624 Eh     change       -0.9915645E-03 Eh
   gradient norm :     0.0057415 Eh/a0  converged?    E=F G=F D=F
   step length   :     0.2087851 a0

........................................................................
.............................. CYCLE   48 ..............................
........................................................................
   1   -972.7924651 -0.972792E+03  0.176E-03    0.70       0.0  T
   2   -972.7924658 -0.718618E-06  0.111E-03    0.70       3.8  T
   3   -972.7924662 -0.386291E-06  0.621E-04    0.70       6.7  T
   4   -972.7924661  0.351364E-07  0.415E-04    0.70      10.1  T
   5   -972.7924663 -0.164103E-06  0.141E-04    0.70      29.7  T
   6   -972.7924663 -0.309248E-07  0.451E-05    0.70      92.8  T
     SCC iter.                  ...        0 min, 11.845 sec
     gradient                   ...        0 min,  1.540 sec
 * total energy  :  -955.0646132 Eh     change       -0.5082441E-04 Eh
   gradient norm :     0.0102236 Eh/a0  converged?    E=F G=F D=F
   step length   :     0.3558543 a0

........................................................................
.............................. CYCLE   49 ..............................
........................................................................
   1   -972.7889512 -0.972789E+03  0.898E-04    0.70       0.0  T
   2   -972.7889514 -0.149853E-06  0.705E-04    0.70       5.9  T
   3   -972.7889517 -0.365777E-06  0.316E-04    0.70      13.2  T
   4   -972.7889517  0.886780E-08  0.230E-04    0.70      18.2  T
   5   -972.7889518 -0.461671E-07  0.102E-04    0.70      40.9  T
   6   -972.7889518 -0.135793E-07  0.298E-05    0.70     140.6  T
     SCC iter.                  ...        0 min, 11.856 sec
     gradient                   ...        0 min,  1.542 sec
 * total energy  :  -955.0653422 Eh     change       -0.7289528E-03 Eh
   gradient norm :     0.0108576 Eh/a0  converged?    E=F G=F D=F
   step length   :     0.5213660 a0

........................................................................
.............................. CYCLE   50 ..............................
........................................................................
   1   -972.7916680 -0.972792E+03  0.215E-03    0.70       0.0  T
   2   -972.7916688 -0.774095E-06  0.138E-03    0.70       3.0  T
   3   -972.7916697 -0.906314E-06  0.791E-04    0.70       5.3  T
   4   -972.7916698 -0.715686E-07  0.536E-04    0.70       7.8  T
   5   -972.7916701 -0.339922E-06  0.169E-04    0.70      24.8  T
   6   -972.7916702 -0.413296E-07  0.486E-05    0.70      86.2  T
     SCC iter.                  ...        0 min, 11.849 sec
     gradient                   ...        0 min,  1.543 sec
 * total energy  :  -955.0656225 Eh     change       -0.2803578E-03 Eh
   gradient norm :     0.0135286 Eh/a0  converged?    E=F G=F D=F
   step length   :     1.0855944 a0

........................................................................
.............................. CYCLE   51 ..............................
........................................................................
   1   -972.7977973 -0.972798E+03  0.133E-03    0.70       0.0  T
   2   -972.7977976 -0.338373E-06  0.103E-03    0.70       4.1  T
   3   -972.7977980 -0.383249E-06  0.495E-04    0.70       8.5  T
   4   -972.7977978  0.153513E-06  0.375E-04    0.70      11.2  T
   5   -972.7977980 -0.184275E-06  0.110E-04    0.70      38.1  T
   6   -972.7977980 -0.173394E-07  0.301E-05    0.70     139.1  T
     SCC iter.                  ...        0 min, 11.846 sec
     gradient                   ...        0 min,  1.546 sec
 * total energy  :  -955.0665392 Eh     change       -0.9166713E-03 Eh
   gradient norm :     0.0103702 Eh/a0  converged?    E=F G=F D=F
   step length   :     0.5978380 a0

........................................................................
.............................. CYCLE   52 ..............................
........................................................................
   1   -972.7943925 -0.972794E+03  0.203E-03    0.70       0.0  T
   2   -972.7943933 -0.723319E-06  0.174E-03    0.70       2.4  T
   3   -972.7943944 -0.116268E-05  0.840E-04    0.70       5.0  T
   4   -972.7943939  0.561703E-06  0.644E-04    0.70       6.5  T
   5   -972.7943945 -0.611455E-06  0.168E-04    0.70      25.0  T
   6   -972.7943945 -0.434538E-07  0.492E-05    0.70      85.1  T
     SCC iter.                  ...        0 min, 11.859 sec
     gradient                   ...        0 min,  1.549 sec
 * total energy  :  -955.0667190 Eh     change       -0.1798309E-03 Eh
   gradient norm :     0.0157749 Eh/a0  converged?    E=F G=F D=F
   step length   :     1.0493124 a0

........................................................................
.............................. CYCLE   53 ..............................
........................................................................
   1   -972.7967587 -0.972797E+03  0.181E-03    0.70       0.0  T
   2   -972.7967592 -0.494521E-06  0.161E-03    0.70       2.6  T
   3   -972.7967602 -0.100077E-05  0.750E-04    0.70       5.6  T
   4   -972.7967597  0.507712E-06  0.629E-04    0.70       6.7  T
   5   -972.7967602 -0.545323E-06  0.140E-04    0.70      30.0  T
   6   -972.7967602 -0.286254E-07  0.429E-05    0.70      97.7  T
     SCC iter.                  ...        0 min, 11.856 sec
     gradient                   ...        0 min,  1.549 sec
 * total energy  :  -955.0676020 Eh     change       -0.8829501E-03 Eh
   gradient norm :     0.0102204 Eh/a0  converged?    E=F G=F D=F
   step length   :     0.6032034 a0

........................................................................
.............................. CYCLE   54 ..............................
........................................................................
   1   -972.8003059 -0.972800E+03  0.158E-03    0.70       0.0  T
   2   -972.8003067 -0.724760E-06  0.108E-03    0.70       3.9  T
   3   -972.8003070 -0.362559E-06  0.586E-04    0.70       7.1  T
   4   -972.8003069  0.814415E-07  0.399E-04    0.70      10.5  T
   5   -972.8003071 -0.145726E-06  0.166E-04    0.70      25.3  T
   6   -972.8003071 -0.411304E-07  0.461E-05    0.70      90.8  T
     SCC iter.                  ...        0 min, 11.853 sec
     gradient                   ...        0 min,  1.537 sec
 * total energy  :  -955.0675239 Eh     change        0.7804829E-04 Eh
   gradient norm :     0.0181718 Eh/a0  converged?    E=F G=F D=F
   step length   :     1.0131072 a0

........................................................................
.............................. CYCLE   55 ..............................
........................................................................
   1   -972.8092585 -0.972809E+03  0.133E-03    0.70       0.0  T
   2   -972.8092589 -0.405725E-06  0.939E-04    0.70       4.5  T
   3   -972.8092592 -0.297415E-06  0.478E-04    0.70       8.8  T
   4   -972.8092591  0.855292E-07  0.350E-04    0.70      12.0  T
   5   -972.8092592 -0.123089E-06  0.124E-04    0.70      33.7  T
   6   -972.8092593 -0.205015E-07  0.357E-05    0.70     117.5  T
     SCC iter.                  ...        0 min, 11.856 sec
     gradient                   ...        0 min,  1.548 sec
 * total energy  :  -955.0687802 Eh     change       -0.1256229E-02 Eh
   gradient norm :     0.0100798 Eh/a0  converged?    E=F G=F D=F
   step length   :     0.5177294 a0

........................................................................
.............................. CYCLE   56 ..............................
........................................................................
   1   -972.8086100 -0.972809E+03  0.157E-03    0.70       0.0  T
   2   -972.8086109 -0.840447E-06  0.126E-03    0.70       3.3  T
   3   -972.8086116 -0.724398E-06  0.574E-04    0.70       7.3  T
   4   -972.8086115  0.115310E-06  0.407E-04    0.70      10.3  T
   5   -972.8086116 -0.103929E-06  0.180E-04    0.70      23.3  T
   6   -972.8086116 -0.488427E-07  0.485E-05    0.70      86.4  T
     SCC iter.                  ...        0 min, 11.859 sec
     gradient                   ...        0 min,  1.547 sec
 * total energy  :  -955.0691785 Eh     change       -0.3983484E-03 Eh
   gradient norm :     0.0136680 Eh/a0  converged?    E=F G=F D=F
   step length   :     1.0694558 a0

........................................................................
.............................. CYCLE   57 ..............................
........................................................................
[...]
   322   6 C      342   1 H                                       1.0844072
   323   6 C      343   1 H                                       1.0843682
   324   6 C      344   1 H                                       1.0840817
   325   6 C      345   1 H                                       1.0843475
   326   6 C      346   1 H                                       1.0842797
   347   6 C      348   6 C                                       1.4088417
   348   6 C      349   6 C                                       1.4186789
   349   6 C      350   6 C                                       1.3683137
   350   6 C      351   6 C                                       1.4212847
   348   6 C      352   7 N                                       1.3625030
   351   6 C      352   7 N                                       1.3695232
   351   6 C      353   6 C                                       1.4001363
   353   6 C      354   6 C                                       1.3953939
   354   6 C      355   6 C                                       1.4519162
   355   6 C      356   6 C                                       1.3491269
   354   6 C      357   7 N                                       1.3620742
   356   6 C      358   6 C                                       1.4495058
   357   7 N      358   6 C                                       1.3478283
   358   6 C      359   6 C                                       1.4100453
   359   6 C      360   6 C                                       1.4088368
   360   6 C      361   6 C                                       1.4186814
   361   6 C      362   6 C                                       1.3683123
   362   6 C      363   6 C                                       1.4212852
   363   6 C      364   6 C                                       1.4001346
   365   6 C      366   6 C                                       1.3954429
   366   6 C      367   6 C                                       1.3868569
   367   6 C      368   6 C                                       1.3882083
   368   6 C      369   6 C                                       1.3882785
   365   6 C      370   6 C                                       1.3954951
   369   6 C      370   6 C                                       1.3866884
   364   6 C      371   6 C                                       1.3953954
   371   6 C      372   6 C                                       1.4519155
   372   6 C      373   6 C                                       1.3491259
   347   6 C      374   6 C                                       1.4100449
   373   6 C      374   6 C                                       1.4495073
   371   6 C      375   7 N                                       1.3620766
   374   6 C      375   7 N                                       1.3478300
   360   6 C      376   7 N                                       1.3625008
   363   6 C      376   7 N                                       1.3695229
   377   6 C      378   6 C                                       1.3954420
   378   6 C      379   6 C                                       1.3868565
   379   6 C      380   6 C                                       1.3882085
   380   6 C      381   6 C                                       1.3882785
   377   6 C      382   6 C                                       1.3954940
   381   6 C      382   6 C                                       1.3866883
   349   6 C      383   1 H                                       1.0780221
   350   6 C      384   1 H                                       1.0777238
   352   7 N      385   1 H                                       1.0145270
   355   6 C      386   1 H                                       1.0779049
   356   6 C      387   1 H                                       1.0782519
   361   6 C      388   1 H                                       1.0780227
   362   6 C      389   1 H                                       1.0777242
   366   6 C      390   1 H                                       1.0844065
   367   6 C      391   1 H                                       1.0843679
   368   6 C      392   1 H                                       1.0840813
   369   6 C      393   1 H                                       1.0843473
   370   6 C      394   1 H                                       1.0842804
   372   6 C      395   1 H                                       1.0779053
   373   6 C      396   1 H                                       1.0782521
   376   7 N      397   1 H                                       1.0145266
   378   6 C      398   1 H                                       1.0844065
   379   6 C      399   1 H                                       1.0843677
   380   6 C      400   1 H                                       1.0840812
   381   6 C      401   1 H                                       1.0843472
   382   6 C      402   1 H                                       1.0842804
   403   6 C      404   6 C                                       1.4088416
   404   6 C      405   6 C                                       1.4186931
   405   6 C      406   6 C                                       1.3683119
   406   6 C      407   6 C                                       1.4212842
   404   6 C      408   7 N                                       1.3624983
   407   6 C      408   7 N                                       1.3695325
   407   6 C      409   6 C                                       1.4001201
   409   6 C      410   6 C                                       1.3954012
   410   6 C      411   6 C                                       1.4519099
   411   6 C      412   6 C                                       1.3491259
   410   6 C      413   7 N                                       1.3620678
   412   6 C      414   6 C                                       1.4494994
   413   7 N      414   6 C                                       1.3478307
   414   6 C      415   6 C                                       1.4100302
   415   6 C      416   6 C                                       1.4088401
   416   6 C      417   6 C                                       1.4186757
   417   6 C      418   6 C                                       1.3683186
   418   6 C      419   6 C                                       1.4212785
   419   6 C      420   6 C                                       1.4001577
   421   6 C      422   6 C                                       1.3954496
   422   6 C      423   6 C                                       1.3868499
   423   6 C      424   6 C                                       1.3882095
   424   6 C      425   6 C                                       1.3882778
   421   6 C      426   6 C                                       1.3954906
   425   6 C      426   6 C                                       1.3866944
   420   6 C      427   6 C                                       1.3953756
   427   6 C      428   6 C                                       1.4519159
   428   6 C      429   6 C                                       1.3491244
   403   6 C      430   6 C                                       1.4100540
   429   6 C      430   6 C                                       1.4495118
   427   6 C      431   7 N                                       1.3620959
   430   6 C      431   7 N                                       1.3478093
   416   6 C      432   7 N                                       1.3625099
   419   6 C      432   7 N                                       1.3695089
   433   6 C      434   6 C                                       1.3954414
   434   6 C      435   6 C                                       1.3868559
   435   6 C      436   6 C                                       1.3882082
   436   6 C      437   6 C                                       1.3882789
   433   6 C      438   6 C                                       1.3954954
   437   6 C      438   6 C                                       1.3866901
   405   6 C      439   1 H                                       1.0780224
   406   6 C      440   1 H                                       1.0777265
   408   7 N      441   1 H                                       1.0145261
   411   6 C      442   1 H                                       1.0779041
   412   6 C      443   1 H                                       1.0782523
   417   6 C      444   1 H                                       1.0780215
   418   6 C      445   1 H                                       1.0777241
   422   6 C      446   1 H                                       1.0844072
   423   6 C      447   1 H                                       1.0843679
   424   6 C      448   1 H                                       1.0840814
   425   6 C      449   1 H                                       1.0843477
   426   6 C      450   1 H                                       1.0842800
   428   6 C      451   1 H                                       1.0779040
   429   6 C      452   1 H                                       1.0782529
   432   7 N      453   1 H                                       1.0145265
   434   6 C      454   1 H                                       1.0844066
   435   6 C      455   1 H                                       1.0843679
   436   6 C      456   1 H                                       1.0840816
   437   6 C      457   1 H                                       1.0843476
   438   6 C      458   1 H                                       1.0842800
   459   6 C      460   6 C                                       1.4088277
   460   6 C      461   6 C                                       1.4187014
   461   6 C      462   6 C                                       1.3683005
   462   6 C      463   6 C                                       1.4212989
   460   6 C      464   7 N                                       1.3624897
   463   6 C      464   7 N                                       1.3695513
   463   6 C      465   6 C                                       1.4001060
   465   6 C      466   6 C                                       1.3954468
   466   6 C      467   6 C                                       1.4519020
   467   6 C      468   6 C                                       1.3491463
   466   6 C      469   7 N                                       1.3620430
   468   6 C      470   6 C                                       1.4494901
   469   7 N      470   6 C                                       1.3478744
   470   6 C      471   6 C                                       1.4100139
   471   6 C      472   6 C                                       1.4088364
   472   6 C      473   6 C                                       1.4186657
   473   6 C      474   6 C                                       1.3683146
   474   6 C      475   6 C                                       1.4212623
   475   6 C      476   6 C                                       1.4001718
   477   6 C      478   6 C                                       1.3954567
   478   6 C      479   6 C                                       1.3868460
   479   6 C      480   6 C                                       1.3882110
   480   6 C      481   6 C                                       1.3882775
   477   6 C      482   6 C                                       1.3954810
   481   6 C      482   6 C                                       1.3866980
   476   6 C      483   6 C                                       1.3953363
   483   6 C      484   6 C                                       1.4519142
   484   6 C      485   6 C                                       1.3491228
   459   6 C      486   6 C                                       1.4100654
   485   6 C      486   6 C                                       1.4495273
   483   6 C      487   7 N                                       1.3621167
   486   6 C      487   7 N                                       1.3477768
   472   6 C      488   7 N                                       1.3625140
   475   6 C      488   7 N                                       1.3694915
   489   6 C      490   6 C                                       1.3954565
   490   6 C      491   6 C                                       1.3868519
   491   6 C      492   6 C                                       1.3882090
   492   6 C      493   6 C                                       1.3882781
   489   6 C      494   6 C                                       1.3954900
   493   6 C      494   6 C                                       1.3866957
   461   6 C      495   1 H                                       1.0780241
   462   6 C      496   1 H                                       1.0777271
   464   7 N      497   1 H                                       1.0145231
   467   6 C      498   1 H                                       1.0779065
   468   6 C      499   1 H                                       1.0782526
   473   6 C      500   1 H                                       1.0780215
   474   6 C      501   1 H                                       1.0777229
   478   6 C      502   1 H                                       1.0844084
   479   6 C      503   1 H                                       1.0843691
   480   6 C      504   1 H                                       1.0840822
   481   6 C      505   1 H                                       1.0843481
   482   6 C      506   1 H                                       1.0842795
   484   6 C      507   1 H                                       1.0779057
   485   6 C      508   1 H                                       1.0782529
   488   7 N      509   1 H                                       1.0145255
   490   6 C      510   1 H                                       1.0844080
   491   6 C      511   1 H                                       1.0843698
   492   6 C      512   1 H                                       1.0840829
   493   6 C      513   1 H                                       1.0843479
   494   6 C      514   1 H                                       1.0842785
   515   6 C      516   6 C                                       1.4087080
   516   6 C      517   6 C                                       1.4187815
   517   6 C      518   6 C                                       1.3682182
   518   6 C      519   6 C                                       1.4214187
   516   6 C      520   7 N                                       1.3624698
   519   6 C      520   7 N                                       1.3695924
   519   6 C      521   6 C                                       1.3998960
   521   6 C      522   6 C                                       1.3957151
   522   6 C      523   6 C                                       1.4519670
   523   6 C      524   6 C                                       1.3490996
   522   6 C      525   7 N                                       1.3616408
   524   6 C      526   6 C                                       1.4495146
   525   7 N      526   6 C                                       1.3483070
   526   6 C      527   6 C                                       1.4095298
   527   6 C      528   6 C                                       1.4084189
   528   6 C      529   6 C                                       1.4187822
   529   6 C      530   6 C                                       1.3682589
   530   6 C      531   6 C                                       1.4213723
   531   6 C      532   6 C                                       1.4002176
   533   6 C      534   6 C                                       1.3954781
   534   6 C      535   6 C                                       1.3868399
   535   6 C      536   6 C                                       1.3882143
   536   6 C      537   6 C                                       1.3882792
   533   6 C      538   6 C                                       1.3954860
   537   6 C      538   6 C                                       1.3867053
   532   6 C      539   6 C                                       1.3953551
   539   6 C      540   6 C                                       1.4519789
   540   6 C      541   6 C                                       1.3491126
   515   6 C      542   6 C                                       1.4100677
   541   6 C      542   6 C                                       1.4495619
   539   6 C      543   7 N                                       1.3620993
   542   6 C      543   7 N                                       1.3477552
   528   6 C      544   7 N                                       1.3627432
   531   6 C      544   7 N                                       1.3693422
   545   6 C      546   6 C                                       1.3954623
   546   6 C      547   6 C                                       1.3868519
   547   6 C      548   6 C                                       1.3882106
   548   6 C      549   6 C                                       1.3882828
   545   6 C      550   6 C                                       1.3955167
   549   6 C      550   6 C                                       1.3866812
   517   6 C      551   1 H                                       1.0780284
   518   6 C      552   1 H                                       1.0777289
   520   7 N      553   1 H                                       1.0145180
   523   6 C      554   1 H                                       1.0779068
   524   6 C      555   1 H                                       1.0782438
   529   6 C      556   1 H                                       1.0780327
   530   6 C      557   1 H                                       1.0777348
   534   6 C      558   1 H                                       1.0844122
   535   6 C      559   1 H                                       1.0843736
   536   6 C      560   1 H                                       1.0840864
   537   6 C      561   1 H                                       1.0843526
   538   6 C      562   1 H                                       1.0842797
   540   6 C      563   1 H                                       1.0779091
   541   6 C      564   1 H                                       1.0782597
   544   7 N      565   1 H                                       1.0145233
   546   6 C      566   1 H                                       1.0844100
   547   6 C      567   1 H                                       1.0843716
   548   6 C      568   1 H                                       1.0840831
   549   6 C      569   1 H                                       1.0843489
   550   6 C      570   1 H                                       1.0842814

 * 4 distinct bonds (by element types)

   Z      Z             #   av. dist./Å        max./Å        min./Å
   1 H    6 C         164     1.0815577     1.0853948     1.0777229
   6 C    6 C         318     1.3830021     1.4523142     1.2246554
   1 H    7 N          18     1.0145432     1.0147052     1.0145088
   6 C    7 N          72     1.3605100     1.3702429     1.3477552


optimized geometry written to: xtbopt.xyz


           -------------------------------------------------
          | TOTAL ENERGY             -955.082361704776 Eh   |
          | GRADIENT NORM               0.000943858844 Eh/α |
          | HOMO-LUMO GAP               0.712907253857 eV   |
           -------------------------------------------------

------------------------------------------------------------------------
 * finished run on 2022/07/30 at 01:14:25.952     
------------------------------------------------------------------------
 total:
 * wall-time:     0 d,  1 h,  0 min, 17.689 sec
 *  cpu-time:     0 d,  1 h,  0 min,  1.814 sec
 * ratio c/w:     0.996 speedup
 SCF:
 * wall-time:     0 d,  0 h,  2 min, 33.702 sec
 *  cpu-time:     0 d,  0 h,  2 min, 33.012 sec
 * ratio c/w:     0.996 speedup
 ANC optimizer:
 * wall-time:     0 d,  0 h, 57 min, 43.368 sec
 *  cpu-time:     0 d,  0 h, 57 min, 28.195 sec
 * ratio c/w:     0.996 speedup

