214
 energy: -375.293801037912 gnorm: 0.000392407724 xtb: 6.5.1 (b24c23e)
C           18.01260078194724       -0.05975968270882        0.00141095151962
C           18.63495477062209       -1.30002122999971       -0.06266075407004
C           18.01949753730801       -2.58315756344878       -0.12657974497307
C           19.01060444075526       -3.52260830399611       -0.17743348010226
C           20.26256605995599       -2.84337804871601       -0.14570872785401
N           19.98475947720052       -1.50891343596195       -0.07672474633253
C           21.53061233933211       -3.41217422844006       -0.17711964343869
C           22.75184736747803       -2.75468052567449       -0.14381316186575
C           24.02835730128135       -3.44641327712883       -0.17910074598557
C           24.98072179637343       -2.49220672781448       -0.12832923965205
N           22.94910342731118       -1.40980837899714       -0.07419516211015
C           24.28225630691817       -1.22096913838917       -0.06329623916323
C           24.94083150951734        0.02528787424919        0.00038426936744
C           24.29211762723530        1.27356525736833        0.06026158299276
C           24.90186060405962        2.55575650720443        0.12210361203505
C           23.90674994929187        3.49290418844121        0.16590705363615
C           22.65910414196848        2.80926140868329        0.13274343120888
N           22.94467557575167        1.47195012950422        0.06882580799562
C           21.39261048397563        3.37935846856112        0.16092818215660
C           20.17007053594908        2.71960516512352        0.13144447511451
C           18.88711966895049        3.40479418675532        0.16793379119712
C           17.94101380730545        2.44535577856516        0.12436566050293
C           18.64682075029205        1.17544933738183        0.06074167479952
N           19.98571409156901        1.38026294704681        0.06716670004020
H           16.92776747849371       -0.06515180997140        0.00414601591114
H           16.95406249642708       -2.75013689898594       -0.13228129253551
H           18.89853644299389       -4.59387244507340       -0.23199612183958
H           20.67970043167900       -0.77074070536219       -0.04076131956038
H           21.55951093771161       -4.49570727550156       -0.23324242276736
H           24.14579670292072       -4.51728010082921       -0.23484819052021
H           26.05306743601250       -2.60641261490988       -0.13338544053253
H           25.96647504184875        2.72627258529458        0.13094666677975
H           24.01525626183844        4.56455917019197        0.21696195690306
H           22.25232339814919        0.73099373197503        0.03304126256891
H           21.36525980335166        4.46306395167733        0.21284114883551
H           18.76369703935262        4.47535017917092        0.22003722422855
H           16.86743067752813        2.55189048289256        0.13257215483497
C           99.86908468135292        0.05135075175942       -0.02432819510321
C           99.24635619322018        1.27489416463145       -0.23605288634805
C           99.86134881393667        2.54008743540816       -0.46051288892148
C           98.86992483808366        3.46778187651561       -0.61513170028588
C           97.61822383342174        2.79873417496035       -0.49107052054762
N           97.89649980560706        1.48205422364781       -0.26384479836006
C           96.34999501923659        3.36060697492272       -0.58237475007730
C           95.12896907637092        2.71189541444132       -0.46792877978056
C           93.85227659943776        3.39413674561642       -0.58547165217482
C           92.90017189397111        2.45170728170958       -0.42611879833762
N           94.93207397292366        1.38461151111878       -0.23994726333819
C           93.59896672140088        1.19744855753370       -0.21009716782957
C           92.94066351863279       -0.03275479636503        0.00018181842135
C           93.58969888298182       -1.26258716044943        0.22109616262724
C           92.98045479516475       -2.52642684708204        0.44726989243652
C           93.97592759049056       -3.44865272184902        0.61740540896886
C           95.22332171948442       -2.77409870188530        0.49865933914166
N           94.93722765396738       -1.45676498832745        0.26033848309825
C           96.49002752808025       -3.33536921763587        0.59994191535226
C           97.71237554222007       -2.68576303742044        0.47893829280832
C           98.99550782837200       -3.36180651105222        0.59442615536950
C           99.94134274988744       -2.41744569715381        0.41804124805227
C           99.23520501930149       -1.16558471844467        0.19649246508530
N           97.89637882736763       -1.36631039697825        0.23991475872386
H          100.95389823677718        0.05565206555036       -0.03192633736782
H          100.92670366673929        2.70386622828860       -0.49602273878013
H           98.98160223316404        4.52448806565904       -0.79964252229264
H           97.20186321898792        0.75443203065063       -0.13275515949468
H           96.32072687213173        4.42983347271177       -0.76657147399205
H           93.73454924361675        4.45106993765706       -0.76625858423301
H           91.82780062590656        2.56389383358682       -0.44667577076835
H           91.91590823106482       -2.69538041201508        0.47478087879712
H           93.86784295270270       -4.50446901600799        0.80818273199972
H           95.62926211832109       -0.72610711679357        0.13041715642197
H           96.51774784575946       -4.40297801764560        0.79309139234096
H           99.11923239668246       -4.41664382126374        0.78429072264813
H          101.01494166507160       -2.52334965912815        0.43095514563021
C           26.34472951209499        0.03560723786341        0.00468642979568
C           27.56984559517190        0.04622071317999        0.00848117225656
C           28.91223180175956        0.05361121190551        0.01151905675021
C           30.14352357965849        0.05783408740828        0.01193970295039
C           31.48115307572854        0.06004840547091        0.01233164862254
C           32.71255133170958        0.06114150548056        0.01180246514514
C           34.05472386720916        0.06118212952178        0.00825015873407
C           35.28012479221588        0.05785210985134        0.00365588905587
C           45.09395455858463        0.00051438746321        0.00255449345091
C           46.31957590653428       -0.00387056329007        0.00243890460083
C           47.66180576227188       -0.00544695068506        0.00218579240646
C           48.89349823426049       -0.00738194872554       -0.00068114664440
C           50.23109204939036       -0.00775885472236       -0.00316254452955
C           51.46273451755480       -0.00745111241266       -0.00606460118361
C           52.80497459680531       -0.00533341250748       -0.00847219687770
C           54.03067521879171       -0.00351183128325       -0.01059884956528
C           63.85074047369979       -0.00488315155656       -0.01605989171909
C           65.07632669873287       -0.00350500534734       -0.02634004155160
C           66.41854917438916       -0.00177951579981       -0.03463235841421
C           67.65023040066450       -0.00193669311628       -0.04028354784386
C           68.98784360061055       -0.00190490268245       -0.04097810561907
C           70.21952631920885       -0.00299014724212       -0.03704269744481
C           71.56174234065026       -0.00477516213212       -0.02927710692506
C           72.78733216136064       -0.00869004643996       -0.01903889240686
C           82.60141961188602       -0.06525127840647       -0.02228761086029
C           83.82680396592434       -0.06951513411813       -0.03161460390964
C           85.16900893603959       -0.07036092760658       -0.03741472423718
C           86.40041777628920       -0.07049229630036       -0.03877596433391
C           87.73808136105687       -0.06809444031047       -0.03531280280272
C           88.96935292771840       -0.06291718580194       -0.02793914403721
C           90.31173804864842       -0.05586175769608       -0.01824925688783
C           91.53677134537185       -0.04476422104485       -0.00765962982147
C           36.68297450416426        0.05400715578801        0.00001843046160
C           37.33115143967623        1.30480735977841       -0.01355309198693
C           36.72696741834407        2.58958705463338       -0.02706669282378
C           37.72762426663746        3.52321188691811       -0.03945594412520
C           38.97095627498248        2.83304337977659       -0.03315156143317
N           38.67968290955390        1.49658027558492       -0.01759637393219
C           40.24003451745842        3.40257467467109       -0.04037909630196
C           41.46836040689806        2.75958954582528       -0.03232972097039
C           42.73547608042427        3.46945405869687       -0.03922449785710
C           43.70113268161386        2.52720763154554       -0.02688393881168
N           41.68441725122270        1.41589163338556       -0.01645815787386
C           43.02025080134911        1.24564301853075       -0.01277338155029
C           43.69104688984968        0.00419320250431        0.00162471879408
C           43.04245437354766       -1.24656855842484        0.01335111068448
C           43.64632759244127       -2.53160837063750        0.02639667370007
C           42.64554604013806       -3.46505067225495        0.03286812507524
C           41.40224380617045       -2.77474277007118        0.02408596114710
N           41.69391626143932       -1.43811775090709        0.01265119794360
C           40.13345173384374       -3.34447636214764        0.02686555994626
C           38.90482768132181       -2.70163856170424        0.02066436849782
C           37.63765853548217       -3.41135813218985        0.02651778044171
C           36.67213038611279       -2.46887629629776        0.02011363027273
C           37.35324033962380       -1.18748370980421        0.00956237407162
N           38.68920733079205       -1.35805448009638        0.01018260688662
H           35.66320478352660        2.76542953897043       -0.02758487962323
H           37.62393165109365        4.59647911420345       -0.05174180776955
H           39.36465289907147        0.74787059221102       -0.01019373691872
H           40.26088970164926        4.48796239180971       -0.05320365024353
H           42.83825095785411        4.54320406658602       -0.05164906357968
H           44.77185422871976        2.65588631708717       -0.02692995934505
H           44.71002820708959       -2.70767242382328        0.03022684197679
H           42.74889883588376       -4.53837251163057        0.04288780807057
H           41.00900125168435       -0.68935327063913        0.00426558085827
H           40.11265788009602       -4.42990384562215        0.03583306289811
H           37.53457119955720       -4.48511600383564        0.03461181963055
H           35.60138177723567       -2.59733680357160        0.02161340085468
C           55.43357833714536        0.00041609059782       -0.00882790637485
C           56.07560618676808        1.25461193875143       -0.02308884905914
C           55.46561451148140        2.53662911077135       -0.04008214868601
C           56.46202384996561        3.47480490666723       -0.04751069942765
C           57.70862090920313        2.79047366888793       -0.03576512739189
N           57.42327559006284        1.45262790117480       -0.02157596221242
C           58.97458579061860        3.36684564279155       -0.03825667804315
C           60.20722911519083        2.73190125820254       -0.03026983267437
C           61.46958721212732        3.45026777164460       -0.03711081333685
C           62.44163088290056        2.51450048402866       -0.03052653271553
N           60.43235362010032        1.38979810353901       -0.01793094944951
C           61.76942438378327        1.22845179192660       -0.01847517560050
C           62.44786390168177       -0.00881163734228       -0.00747616192354
C           61.80584645395950       -1.26294565452764        0.01248615825558
C           62.41582167027752       -2.54492933530996        0.03205384504013
C           61.41939633528254       -3.48296523138415        0.04893781096244
C           60.17279973545717       -2.79860177081358        0.03934963810707
N           60.45816594207543       -1.46085463792097        0.01806388102883
C           58.90682578809642       -3.37491852325512        0.04703388211634
C           57.67418114458903       -2.74005536948802        0.03444495008613
C           56.41183064009498       -3.45844436158468        0.04050922464645
C           55.43978590718717       -2.52279859286166        0.02402995754474
C           56.11198851103691       -1.23678401695466        0.00858978750998
N           57.44905283817734       -1.39804047180771        0.01469174721498
H           54.40109269274770        2.70765278698009       -0.04565500640760
H           56.35349465607847        4.54758778883049       -0.06032577880321
H           58.11124003115961        0.70667069200993       -0.01057658067728
H           58.98900200086208        4.45238857598474       -0.04894756952243
H           61.56521584766816        4.52470984070124       -0.04610074349737
H           63.51147566783253        2.65033861104671       -0.03256696127152
H           63.48034532600602       -2.71601769102771        0.03343158435049
H           61.52791248032003       -4.55568234305201        0.06635672456105
H           59.77020342803721       -0.71489268266349        0.00715339600895
H           58.89240978580046       -4.46038651393935        0.06360036032922
H           56.31620619357578       -4.53282750425095        0.05506420024265
H           54.36994948308034       -2.65869951981565        0.02215882233910
C           74.19020601450087       -0.01201484638301       -0.00834797729270
C           74.83871345666316        1.23873613462830       -0.02478869485915
C           74.23484537693142        2.52369588115625       -0.04426120728902
C           75.23561825370538        3.45714350918096       -0.05112403073371
C           76.47892810763750        2.76690457251084       -0.03774776567956
N           76.18724520479968        1.43033767272419       -0.02148453174522
C           77.74770250821780        3.33665037246241       -0.04411919633975
C           78.97640677461473        2.69393419879649       -0.03961247104303
C           80.24345983774460        3.40371908946938       -0.05586619261756
C           81.20910732623574        2.46135707631235       -0.05069795900216
N           79.19222341222091        1.35046463010453       -0.02306806576786
C           80.52820683750518        1.18000133713435       -0.02905013031677
C           81.19857623066308       -0.06132054615268       -0.01213312763419
C           80.55045814903994       -1.31184849795876        0.01911096304003
C           81.15465651325631       -2.59641616700578        0.04623101777422
C           80.15404237819310       -3.52971946979328        0.07491007273696
C           78.91070070629193       -2.83960060361860        0.06480732246003
N           79.20194617615658       -1.50346629180822        0.03130321171279
C           77.64166142252708       -3.40901523486109        0.08180497212037
C           76.41324909502788       -2.76635946364141        0.06476590613602
C           75.14623654485597       -3.47634022208304        0.07709967134392
C           74.18046006514189       -2.53456890679086        0.04853432953209
C           74.86115151375741       -1.25312298649265        0.02118338620089
N           76.19699639173571       -1.42302336318259        0.03128782603618
H           73.17115264849355        2.69972007555285       -0.05110877559573
H           75.13226011180871        4.53042380252034       -0.06488216306064
H           76.87211018819367        0.68158775825482       -0.00865143630531
H           77.76841772464350        4.42203914124832       -0.05724631887385
H           80.34639020267792        4.47742657480088       -0.07012289544596
H           82.27981710047986        2.58988658568329       -0.05928981267648
H           82.21840274914310       -2.77233253063057        0.04425541924870
H           80.25775479054948       -4.60275401291506        0.10030247189088
H           78.51700747019653       -0.75481677548194        0.01744575946614
H           77.62091039009948       -4.49414415546418        0.10876115291500
H           75.04360722029689       -4.54985486434989        0.10332425948442
H           73.10976890395847       -2.66347807093867        0.04662685418343
