      -----------------------------------------------------------      
     |                   =====================                   |     
     |                           x T B                           |     
     |                   =====================                   |     
     |                         S. Grimme                         |     
     |          Mulliken Center for Theoretical Chemistry        |     
     |                    University of Bonn                     |     
      -----------------------------------------------------------      

   * xtb version 6.5.1 (b24c23e) compiled by 'conda@728c89f4b128' on 2022-07-12

   xtb is free software: you can redistribute it and/or modify it under
   the terms of the GNU Lesser General Public License as published by
   the Free Software Foundation, either version 3 of the License, or
   (at your option) any later version.
   
   xtb is distributed in the hope that it will be useful,
   but WITHOUT ANY WARRANTY; without even the implied warranty of
   MERCHANTABILITY or FITNESS FOR A PARTICULAR PURPOSE.  See the
   GNU Lesser General Public License for more details.
   
   Cite this work as:
   * C. Bannwarth, E. Caldeweyher, S. Ehlert, A. Hansen, P. Pracht,
     J. Seibert, S. Spicher, S. Grimme, WIREs Comput. Mol. Sci., 2020, 11,
     e01493. DOI: 10.1002/wcms.1493
   
   for GFN2-xTB:
   * C. Bannwarth, S. Ehlert and S. Grimme., J. Chem. Theory Comput., 2019,
     15, 1652-1671. DOI: 10.1021/acs.jctc.8b01176
   for GFN1-xTB:
   * S. Grimme, C. Bannwarth, P. Shushkov, J. Chem. Theory Comput., 2017,
     13, 1989-2009. DOI: 10.1021/acs.jctc.7b00118
   for GFN0-xTB:
   * P. Pracht, E. Caldeweyher, S. Ehlert, S. Grimme, ChemRxiv, 2019, preprint.
     DOI: 10.26434/chemrxiv.8326202.v1
   for GFN-FF:
   * S. Spicher and S. Grimme, Angew. Chem. Int. Ed., 2020, 59, 15665-15673.
     DOI: 10.1002/anie.202004239
   
   for ALPB and GBSA implicit solvation:
   * S. Ehlert, M. Stahn, S. Spicher, S. Grimme, J. Chem. Theory Comput.,
     2021, 17, 4250-4261. DOI: 10.1021/acs.jctc.1c00471
   
   for DFT-D4:
   * E. Caldeweyher, C. Bannwarth and S. Grimme, J. Chem. Phys., 2017,
     147, 034112. DOI: 10.1063/1.4993215
   * E. Caldeweyher, S. Ehlert, A. Hansen, H. Neugebauer, S. Spicher,
     C. Bannwarth and S. Grimme, J. Chem. Phys., 2019, 150, 154122.
     DOI: 10.1063/1.5090222
   * E. Caldeweyher, J.-M. Mewes, S. Ehlert and S. Grimme, Phys. Chem. Chem. Phys.
     2020, 22, 8499-8512. DOI: 10.1039/D0CP00502A
   
   for sTDA-xTB:
   * S. Grimme and C. Bannwarth, J. Chem. Phys., 2016, 145, 054103.
     DOI: 10.1063/1.4959605
   
   in the mass-spec context:
   * V. Asgeirsson, C. Bauer and S. Grimme, Chem. Sci., 2017, 8, 4879.
     DOI: 10.1039/c7sc00601b
   * J. Koopman and S. Grimme, ACS Omega 2019, 4, 12, 15120-15133.
     DOI: 10.1021/acsomega.9b02011
   
   for metadynamics refer to:
   * S. Grimme, J. Chem. Theory Comput., 2019, 155, 2847-2862
     DOI: 10.1021/acs.jctc.9b00143
   
   for SPH calculations refer to:
   * S. Spicher and S. Grimme, J. Chem. Theory Comput., 2021, 17, 1701-1714
     DOI: 10.1021/acs.jctc.0c01306
   
   with help from (in alphabetical order)
   P. Atkinson, C. Bannwarth, F. Bohle, G. Brandenburg, E. Caldeweyher
   M. Checinski, S. Dohm, S. Ehlert, S. Ehrlich, I. Gerasimov, C. Hölzer
   A. Katbashev, J. Koopman, C. Lavigne, S. Lehtola, F. März, M. Müller,
   F. Musil, H. Neugebauer, J. Pisarek, C. Plett, P. Pracht, F. Pultar,
   J. Seibert, P. Shushkov, S. Spicher, M. Stahn, M. Steiner, T. Strunk,
   J. Stückrath, T. Rose, and J. Unsleber
   
 * started run on 2022/07/30 at 05:53:28.066     

           -------------------------------------------------
          |                Calculation Setup                |
           -------------------------------------------------

          program call               : xtb Ni_PhOH_C2_4.xyz --gfn 1 --opt -T 48
          hostname                   : cx3-15-15.cx3.hpc.ic.ac.uk
          coordinate file            : Ni_PhOH_C2_4.xyz
          omp threads                :                     1

   ID    Z sym.   atoms
    1   28 Ni     1, 59, 123, 180
    2    6 C      2-6, 8-12, 14-18, 20-25, 27-31, 33-38, 60-64, 66-70, 72-76,
                  78-83, 85-89, 91-96, 117-122, 124-128, 130-134, 136-140,
                  142-147, 149-153, 155-160, 181-185, 187-191, 193-197,
                  199-204, 206-210, 212-217
    3    7 N      7, 19, 26, 39, 65, 77, 84, 97, 129, 141, 148, 161, 186,
                  198, 205, 218
    4    8 O      13, 32, 71, 90, 135, 154, 192, 211
    5    1 H      40-58, 98-116, 162-179, 219-236
########################################################################
[WARNING] Please study the warnings concerning your input carefully
-1- prog_main_parseArguments: Unknown option '-T' provided
########################################################################

           -------------------------------------------------
          |                 G F N 1 - x T B                 |
           -------------------------------------------------

        Reference                      10.1021/acs.jctc.7b00118
      * Hamiltonian:
        H0-scaling (s, p, d)           1.850000    2.250000    2.000000
        zeta-weighting                 0.000000
      * Dispersion:
        s8                             2.400000
        a1                             0.630000
        a2                             5.000000
        s9                             0.000000
      * Repulsion:
        kExp                           1.500000
        rExp                           1.000000
      * Coulomb:
        alpha                          2.000000
        third order                    atomic
        anisotropic                    false
      * Halogen bond correction:
        rad-scale                      1.300000
        damping                        0.440000


          ...................................................
          :                      SETUP                      :
          :.................................................:
          :  # basis functions                 820          :
          :  # atomic orbitals                 816          :
          :  # shells                          476          :
          :  # electrons                       778          :
          :  # halogen bonds                     0          :
          :  max. iterations                   250          :
          :  Hamiltonian                  GFN1-xTB          :
          :  restarted?                      false          :
          :  GBSA solvation                  false          :
          :  PC potential                    false          :
          :  electronic temp.          300.0000000     K    :
          :  accuracy                    1.0000000          :
          :  -> integral cutoff          0.2500000E+02      :
          :  -> integral neglect         0.1000000E-07      :
          :  -> SCF convergence          0.1000000E-05 Eh   :
          :  -> wf. convergence          0.2000000E-04 e    :
          :  Broyden damping             0.4000000          :
          ...................................................

 iter      E             dE          RMSdq      gap      omega  full diag
   1   -433.0602676 -0.433060E+03  0.107E+01    0.14       0.0  T
   2   -377.1910288  0.558692E+02  0.980E+00    0.04       1.0  T
   3   -323.7179383  0.534731E+02  0.101E+01    0.13       1.0  T
   4   -141.7965585  0.181921E+03  0.102E+01    0.02       1.0  T
   5   2030.0883287  0.217188E+04  0.183E+01    0.03       1.0  T
   6   2237.6789727  0.207591E+03  0.179E+01    0.00       1.0  T
   7    121.7351166 -0.211594E+04  0.114E+01    0.01       1.0  T
   8   -346.5353617 -0.468270E+03  0.627E+00    0.08       1.0  T
   9   -413.4547058 -0.669193E+02  0.466E+00    0.11       1.0  T
  10   -424.5475731 -0.110929E+02  0.383E+00    0.02       1.0  T
  11   -427.1295358 -0.258196E+01  0.352E+00    0.03       1.0  T
  12   -429.1425177 -0.201298E+01  0.334E+00    0.08       1.0  T
  13   -429.8421325 -0.699615E+00  0.317E+00    0.07       1.0  T
  14   -430.9885738 -0.114644E+01  0.296E+00    0.03       1.0  T
  15   -431.1254747 -0.136901E+00  0.275E+00    0.02       1.0  T
  16   -432.5387144 -0.141324E+01  0.244E+00    0.02       1.0  T
  17   -433.0578326 -0.519118E+00  0.220E+00    0.01       1.0  T
  18   -433.2113523 -0.153520E+00  0.217E+00    0.09       1.0  T
  19   -433.3284908 -0.117138E+00  0.212E+00    0.06       1.0  T
  20   -433.2783653  0.501256E-01  0.210E+00    0.04       1.0  T
  21   -433.5617725 -0.283407E+00  0.191E+00    0.06       1.0  T
  22   -433.6663721 -0.104600E+00  0.168E+00    0.10       1.0  T
  23   -433.8454961 -0.179124E+00  0.116E+00    0.18       1.0  T
  24   -434.0519490 -0.206453E+00  0.763E-01    0.17       1.0  T
  25   -434.1550804 -0.103131E+00  0.468E-01    0.38       1.0  T
  26   -434.1510915  0.398894E-02  0.486E-01    0.40       1.0  T
  27   -434.1800484 -0.289569E-01  0.313E-01    0.43       1.0  T
  28   -434.1958531 -0.158048E-01  0.194E-01    0.25       1.0  T
  29   -434.0841501  0.111703E+00  0.280E-01    0.06       1.0  T
  30   -434.1913336 -0.107183E+00  0.173E-01    0.16       1.0  T
  31   -434.1700508  0.212828E-01  0.221E-01    0.11       1.0  T
  32   -434.1864592 -0.164084E-01  0.207E-01    0.13       1.0  T
  33   -434.1840613  0.239787E-02  0.262E-01    0.13       1.0  T
  34   -434.1867361 -0.267478E-02  0.252E-01    0.14       1.0  T
  35   -434.2164583 -0.297222E-01  0.126E-01    0.26       1.0  T
  36   -434.2220481 -0.558977E-02  0.850E-02    0.41       1.0  T
  37   -434.2275673 -0.551920E-02  0.645E-02    0.41       1.0  T
  38   -434.2293734 -0.180610E-02  0.520E-02    0.40       1.0  T
  39   -434.2308281 -0.145470E-02  0.381E-02    0.39       1.0  T
  40   -434.2312212 -0.393107E-03  0.322E-02    0.39       1.0  T
  41   -434.2315826 -0.361428E-03  0.304E-02    0.39       1.0  T
  42   -434.2317250 -0.142424E-03  0.296E-02    0.39       1.0  T
  43   -434.2321373 -0.412242E-03  0.280E-02    0.39       1.0  T
  44   -434.2323727 -0.235438E-03  0.252E-02    0.39       1.0  T
  45   -434.2329930 -0.620293E-03  0.191E-02    0.39       1.0  T
  46   -434.2331615 -0.168466E-03  0.163E-02    0.38       1.0  T
  47   -434.2334977 -0.336235E-03  0.929E-03    0.38       1.0  T
  48   -434.2335855 -0.877801E-04  0.689E-03    0.37       1.0  T
  49   -434.2336070 -0.215101E-04  0.607E-03    0.37       1.1  T
  50   -434.2336292 -0.222339E-04  0.526E-03    0.37       1.2  T
  51   -434.2336352 -0.601274E-05  0.545E-03    0.37       1.2  T
  52   -434.2336430 -0.773264E-05  0.491E-03    0.37       1.3  T
  53   -434.2336501 -0.715464E-05  0.301E-03    0.37       2.2  T
  54   -434.2336512 -0.103397E-05  0.255E-03    0.37       2.6  T
  55   -434.2336528 -0.164424E-05  0.149E-03    0.37       4.4  T
  56   -434.2336540 -0.120379E-05  0.522E-04    0.37      12.5  T
  57   -434.2336542 -0.237479E-06  0.413E-04    0.37      15.8  T
  58   -434.2336543 -0.447373E-07  0.227E-04    0.37      28.7  T
  59   -434.2336543 -0.161040E-07  0.134E-04    0.37      48.6  T
  60   -434.2336543 -0.676442E-08  0.835E-05    0.37      77.9  T

   *** convergence criteria satisfied after 60 iterations ***

         #    Occupation            Energy/Eh            Energy/eV
      -------------------------------------------------------------
         1        2.0000           -0.7950983             -21.6357
       ...           ...                  ...                  ...
       383        2.0000           -0.3905062             -10.6262
       384        2.0000           -0.3896142             -10.6019
       385        2.0000           -0.3881890             -10.5632
       386        2.0000           -0.3842152             -10.4550
       387        2.0000           -0.3830371             -10.4230
       388        2.0000           -0.3780036             -10.2860
       389        1.9984           -0.3669346              -9.9848 (HOMO)
       390        0.0016           -0.3534314              -9.6174 (LUMO)
       391                         -0.3420424              -9.3074
       392                         -0.3372169              -9.1761
       393                         -0.3348088              -9.1106
       394                         -0.3336757              -9.0798
       ...                                ...                  ...
       816                          3.5050195              95.3764
      -------------------------------------------------------------
                  HL-Gap            0.0135032 Eh            0.3674 eV
             Fermi-level           -0.3601830 Eh           -9.8011 eV

 SCC (total)                   0 d,  0 h,  0 min, 14.163 sec
 SCC setup                      ...        0 min,  0.016 sec (  0.116%)
 Dispersion                     ...        0 min,  0.011 sec (  0.076%)
 classical contributions        ...        0 min,  0.004 sec (  0.026%)
 integral evaluation            ...        0 min,  0.294 sec (  2.079%)
 iterations                     ...        0 min, 13.076 sec ( 92.325%)
 molecular gradient             ...        0 min,  0.716 sec (  5.057%)
 printout                       ...        0 min,  0.045 sec (  0.320%)

         :::::::::::::::::::::::::::::::::::::::::::::::::::::
         ::                     SUMMARY                     ::
         :::::::::::::::::::::::::::::::::::::::::::::::::::::
         :: total energy            -426.964845378401 Eh    ::
         :: gradient norm              2.643244836769 Eh/a0 ::
         :: HOMO-LUMO gap              0.367439560659 eV    ::
         ::.................................................::
         :: SCC energy              -434.233654303243 Eh    ::
         :: -> electrostatic           0.527890791639 Eh    ::
         :: repulsion energy           7.489879253249 Eh    ::
         :: dispersion energy         -0.221070328406 Eh    ::
         :: halogen bond corr.         0.000000000000 Eh    ::
         :: add. restraining           0.000000000000 Eh    ::
         :: total charge               0.000000000006 e     ::
         :::::::::::::::::::::::::::::::::::::::::::::::::::::

      ----------------------------------------------------------- 
     |                   =====================                   |
     |                        A N C O P T                        |
     |                   =====================                   |
     |               Approximate Normal Coordinate               |
     |                Rational Function Optimizer                |
      ----------------------------------------------------------- 

          ...................................................
          :                      SETUP                      :
          :.................................................:
          :   optimization level            normal          :
          :   max. optcycles                   708          :
          :   ANC micro-cycles                  20          :
          :   degrees of freedom               702          :
          :.................................................:
          :   RF solver                   davidson          :
          :   write xtbopt.log                true          :
          :   linear?                        false          :
          :   energy convergence         0.5000000E-05 Eh   :
          :   grad. convergence          0.1000000E-02 Eh/α :
          :   maximium RF displ.         1.0000000          :
          :   Hlow (freq-cutoff)         0.1000000E-01      :
          :   Hmax (freq-cutoff)         5.0000000          :
          :   S6 in model hess.         20.0000000          :
          ...................................................

generating ANC from model Hessian ...
Using Lindh-Hessian (1995)
 Shifting diagonal of input Hessian by    1.0073703590154415E-002
 Lowest  eigenvalues of input Hessian
    0.010000    0.010064    0.010066    0.010067    0.010070    0.010071
    0.000000    0.000000    0.000000    0.000000    0.000000    0.000000
    0.010074    0.010080    0.010107    0.010139    0.010202    0.010205
 Highest eigenvalues
    2.584068    2.952161    3.296963    3.725618    3.915958    4.211540


........................................................................
.............................. CYCLE    1 ..............................
........................................................................
   1   -434.2336543 -0.434234E+03  0.586E-05    0.37       0.0  T
   2   -434.2336543  0.127102E-08  0.883E-05    0.37      73.8  T
   3   -434.2336543 -0.426445E-08  0.433E-05    0.37     150.4  T
     SCC iter.                  ...        0 min,  0.670 sec
     gradient                   ...        0 min,  0.717 sec
 * total energy  :  -426.9648454 Eh     change       -0.6754533E-08 Eh
   gradient norm :     2.6432430 Eh/α   predicted     0.0000000E+00 (-100.00%)
   displ. norm   :     0.6013895 α      lambda       -0.1488206E+01
   maximum displ.:     0.2962838 α      in ANC's #702, #701, #700, ...

........................................................................
.............................. CYCLE    2 ..............................
........................................................................
   1   -434.3542624 -0.434354E+03  0.176E-01    0.75       0.0  T
   2   -434.3593974 -0.513498E-02  0.102E-01    0.74       1.0  T
   3   -434.3627484 -0.335093E-02  0.370E-02    0.76       1.0  T
   4   -434.3629926 -0.244283E-03  0.280E-02    0.75       1.0  T
   5   -434.3632041 -0.211460E-03  0.128E-02    0.76       1.0  T
   6   -434.3632853 -0.811664E-04  0.367E-03    0.75       1.8  T
   7   -434.3632960 -0.107775E-04  0.128E-03    0.75       5.1  T
   8   -434.3632973 -0.128966E-05  0.469E-04    0.75      13.9  T
   9   -434.3632975 -0.144414E-06  0.170E-04    0.75      38.2  T
  10   -434.3632975 -0.164092E-07  0.736E-05    0.75      88.5  T
     SCC iter.                  ...        0 min,  2.195 sec
     gradient                   ...        0 min,  0.716 sec
 * total energy  :  -427.7929546 Eh     change       -0.8281092E+00 Eh
   gradient norm :     0.6978328 Eh/α   predicted    -0.1013228E+01 (  22.35%)
   displ. norm   :     0.5850138 α      lambda       -0.3486784E+00
   maximum displ.:     0.1921077 α      in ANC's #537, #444, #248, ...

........................................................................
.............................. CYCLE    3 ..............................
........................................................................
   1   -434.3473502 -0.434347E+03  0.124E-01    0.72       0.0  T
   2   -434.3502433 -0.289309E-02  0.815E-02    0.73       1.0  T
   3   -434.3527358 -0.249253E-02  0.322E-02    0.73       1.0  T
   4   -434.3528219 -0.861270E-04  0.246E-02    0.72       1.0  T
   5   -434.3530333 -0.211348E-03  0.966E-03    0.73       1.0  T
   6   -434.3530815 -0.482150E-04  0.253E-03    0.73       2.6  T
   7   -434.3530868 -0.527195E-05  0.881E-04    0.73       7.4  T
   8   -434.3530874 -0.589533E-06  0.343E-04    0.73      19.0  T
   9   -434.3530874 -0.628419E-07  0.172E-04    0.73      37.8  T
  10   -434.3530875 -0.236740E-07  0.684E-05    0.73      95.2  T
     SCC iter.                  ...        0 min,  2.203 sec
     gradient                   ...        0 min,  0.718 sec
 * total energy  :  -428.0407338 Eh     change       -0.2477792E+00 Eh
   gradient norm :     0.4429780 Eh/α   predicted    -0.2340063E+00 (  -5.56%)
   displ. norm   :     0.5916295 α      lambda       -0.1848841E+00
   maximum displ.:     0.1469665 α      in ANC's #248, #444, #226, ...

........................................................................
.............................. CYCLE    4 ..............................
........................................................................
   1   -434.4507424 -0.434451E+03  0.133E-01    0.77       0.0  T
   2   -434.4532046 -0.246218E-02  0.871E-02    0.77       1.0  T
   3   -434.4567538 -0.354916E-02  0.309E-02    0.78       1.0  T
   4   -434.4570842 -0.330484E-03  0.224E-02    0.78       1.0  T
   5   -434.4572921 -0.207853E-03  0.966E-03    0.78       1.0  T
   6   -434.4573285 -0.363813E-04  0.330E-03    0.78       2.0  T
   7   -434.4573393 -0.108512E-04  0.105E-03    0.78       6.2  T
   8   -434.4573404 -0.102949E-05  0.478E-04    0.78      13.6  T
   9   -434.4573405 -0.155474E-06  0.195E-04    0.78      33.4  T
  10   -434.4573405 -0.242205E-07  0.874E-05    0.78      74.5  T
     SCC iter.                  ...        0 min,  2.201 sec
     gradient                   ...        0 min,  0.717 sec
 * total energy  :  -428.1703941 Eh     change       -0.1296603E+00 Eh
   gradient norm :     0.1802030 Eh/α   predicted    -0.1247993E+00 (  -3.75%)
   displ. norm   :     0.6420244 α      lambda       -0.7499187E-01
   maximum displ.:     0.1922616 α      in ANC's #248, #74, #226, ...

........................................................................
.............................. CYCLE    5 ..............................
........................................................................
   1   -434.5548579 -0.434555E+03  0.729E-02    0.83       0.0  T
   2   -434.5553743 -0.516364E-03  0.470E-02    0.83       1.0  T
   3   -434.5564811 -0.110677E-02  0.189E-02    0.83       1.0  T
   4   -434.5566681 -0.187075E-03  0.128E-02    0.83       1.0  T
   5   -434.5567488 -0.807089E-04  0.567E-03    0.83       1.1  T
   6   -434.5567643 -0.154972E-04  0.215E-03    0.83       3.0  T
   7   -434.5567685 -0.420483E-05  0.744E-04    0.83       8.7  T
   8   -434.5567691 -0.525491E-06  0.294E-04    0.83      22.1  T
   9   -434.5567691 -0.439170E-07  0.121E-04    0.83      54.0  T
  10   -434.5567691 -0.890361E-08  0.531E-05    0.83     122.5  T
     SCC iter.                  ...        0 min,  2.201 sec
     gradient                   ...        0 min,  0.716 sec
 * total energy  :  -428.2276037 Eh     change       -0.5720962E-01 Eh
   gradient norm :     0.0886289 Eh/α   predicted    -0.5295160E-01 (  -7.44%)
   displ. norm   :     0.6842974 α      lambda       -0.4159881E-01
   maximum displ.:     0.2550670 α      in ANC's #74, #248, #135, ...

........................................................................
.............................. CYCLE    6 ..............................
........................................................................
   1   -434.6119171 -0.434612E+03  0.440E-02    0.88       0.0  T
   2   -434.6120707 -0.153576E-03  0.271E-02    0.88       1.0  T
   3   -434.6123776 -0.306927E-03  0.130E-02    0.88       1.0  T
   4   -434.6124558 -0.782175E-04  0.910E-03    0.88       1.0  T
   5   -434.6124987 -0.429100E-04  0.340E-03    0.88       1.9  T
   6   -434.6125057 -0.691639E-05  0.129E-03    0.88       5.1  T
   7   -434.6125071 -0.147368E-05  0.469E-04    0.88      13.9  T
   8   -434.6125073 -0.176616E-06  0.152E-04    0.88      42.8  T
   9   -434.6125073 -0.898564E-08  0.717E-05    0.88      90.8  T
     SCC iter.                  ...        0 min,  1.985 sec
     gradient                   ...        0 min,  0.713 sec
 * total energy  :  -428.2598773 Eh     change       -0.3227360E-01 Eh
   gradient norm :     0.0518887 Eh/α   predicted    -0.3053902E-01 (  -5.37%)
   displ. norm   :     0.7116200 α      lambda       -0.2435846E-01
   maximum displ.:     0.3259414 α      in ANC's #74, #53, #135, ...

........................................................................
.............................. CYCLE    7 ..............................
........................................................................
   1   -434.6434837 -0.434643E+03  0.265E-02    0.91       0.0  T
   2   -434.6435519 -0.682158E-04  0.147E-02    0.91       1.0  T
   3   -434.6436182 -0.662551E-04  0.773E-03    0.91       1.0  T
   4   -434.6436232 -0.506453E-05  0.586E-03    0.91       1.1  T
   5   -434.6436444 -0.212097E-04  0.173E-03    0.91       3.8  T
   6   -434.6436473 -0.281400E-05  0.548E-04    0.91      11.9  T
   7   -434.6436475 -0.239618E-06  0.237E-04    0.91      27.5  T
   8   -434.6436475 -0.410818E-07  0.688E-05    0.91      94.6  T
   9   -434.6436475 -0.218944E-08  0.259E-05    0.91     251.6  T
     SCC iter.                  ...        0 min,  1.986 sec
     gradient                   ...        0 min,  0.720 sec
 * total energy  :  -428.2794529 Eh     change       -0.1957566E-01 Eh
   gradient norm :     0.0377264 Eh/α   predicted    -0.1834686E-01 (  -6.28%)
   displ. norm   :     0.7234580 α      lambda       -0.1604718E-01
   maximum displ.:     0.3484907 α      in ANC's #74, #53, #71, ...

........................................................................
.............................. CYCLE    8 ..............................
........................................................................
   1   -434.6671311 -0.434667E+03  0.183E-02    0.94       0.0  T
   2   -434.6671731 -0.420315E-04  0.904E-03    0.94       1.0  T
   3   -434.6671985 -0.254474E-04  0.540E-03    0.94       1.2  T
   4   -434.6672029 -0.439674E-05  0.321E-03    0.94       2.0  T
   5   -434.6672060 -0.303135E-05  0.137E-03    0.94       4.8  T
   6   -434.6672080 -0.202870E-05  0.355E-04    0.94      18.4  T
   7   -434.6672081 -0.105569E-06  0.139E-04    0.94      46.7  T
   8   -434.6672081 -0.168029E-07  0.448E-05    0.94     145.2  T
     SCC iter.                  ...        0 min,  1.768 sec
     gradient                   ...        0 min,  0.715 sec
 * total energy  :  -428.2924324 Eh     change       -0.1297949E-01 Eh
   gradient norm :     0.0251120 Eh/α   predicted    -0.1222314E-01 (  -5.83%)
   displ. norm   :     0.7172567 α      lambda       -0.1045374E-01
   maximum displ.:     0.3388977 α      in ANC's #74, #53, #71, ...

........................................................................
.............................. CYCLE    9 ..............................
........................................................................
   1   -434.6861179 -0.434686E+03  0.137E-02    0.95       0.0  T
   2   -434.6861416 -0.237151E-04  0.687E-03    0.95       1.0  T
   3   -434.6861567 -0.151026E-04  0.431E-03    0.95       1.5  T
   4   -434.6861632 -0.654708E-05  0.232E-03    0.95       2.8  T
   5   -434.6861644 -0.120851E-05  0.101E-03    0.95       6.5  T
   6   -434.6861652 -0.805153E-06  0.238E-04    0.95      27.3  T
   7   -434.6861653 -0.386184E-07  0.938E-05    0.95      69.4  T
   8   -434.6861653 -0.696724E-08  0.334E-05    0.95     195.0  T
     SCC iter.                  ...        0 min,  1.763 sec
     gradient                   ...        0 min,  0.711 sec
 * total energy  :  -428.3007922 Eh     change       -0.8359756E-02 Eh
   gradient norm :     0.0177050 Eh/α   predicted    -0.7915916E-02 (  -5.31%)
   displ. norm   :     0.6949587 α      lambda       -0.6585611E-02
   maximum displ.:     0.2896462 α      in ANC's #74, #53, #31, ...

........................................................................
.............................. CYCLE   10 ..............................
........................................................................
   1   -434.7014612 -0.434701E+03  0.933E-03    0.96       0.0  T
   2   -434.7014718 -0.105215E-04  0.480E-03    0.97       1.4  T
   3   -434.7014784 -0.659733E-05  0.291E-03    0.96       2.2  T
   4   -434.7014813 -0.299118E-05  0.159E-03    0.96       4.1  T
   5   -434.7014821 -0.716737E-06  0.675E-04    0.96       9.6  T
   6   -434.7014824 -0.318050E-06  0.152E-04    0.96      42.9  T
   7   -434.7014824 -0.160580E-07  0.678E-05    0.96      96.1  T
     SCC iter.                  ...        0 min,  1.551 sec
     gradient                   ...        0 min,  0.716 sec
 * total energy  :  -428.3060114 Eh     change       -0.5219242E-02 Eh
   gradient norm :     0.0157016 Eh/α   predicted    -0.4883134E-02 (  -6.44%)
   displ. norm   :     0.6859203 α      lambda       -0.4435505E-02
   maximum displ.:     0.2704690 α      in ANC's #53, #74, #31, ...

........................................................................
.............................. CYCLE   11 ..............................
........................................................................
   1   -434.7115013 -0.434712E+03  0.651E-03    0.97       0.0  T
   2   -434.7115070 -0.574031E-05  0.308E-03    0.97       2.1  T
   3   -434.7115084 -0.140789E-05  0.181E-03    0.97       3.6  T
   4   -434.7115088 -0.346855E-06  0.126E-03    0.97       5.2  T
   5   -434.7115097 -0.866434E-06  0.330E-04    0.97      19.7  T
   6   -434.7115097 -0.738195E-07  0.111E-04    0.97      58.8  T
   7   -434.7115097 -0.101925E-07  0.455E-05    0.97     143.0  T
     SCC iter.                  ...        0 min,  1.544 sec
     gradient                   ...        0 min,  0.714 sec
 * total energy  :  -428.3093522 Eh     change       -0.3340763E-02 Eh
   gradient norm :     0.0147002 Eh/α   predicted    -0.3261179E-02 (  -2.38%)
   displ. norm   :     0.6884735 α      lambda       -0.3551983E-02
   maximum displ.:     0.2587157 α      in ANC's #53, #31, #33, ...

........................................................................
.............................. CYCLE   12 ..............................
........................................................................
   1   -434.7180905 -0.434718E+03  0.596E-03    0.97       0.0  T
   2   -434.7180955 -0.500637E-05  0.276E-03    0.97       2.4  T
   3   -434.7180965 -0.102280E-05  0.134E-03    0.97       4.8  T
   4   -434.7180965  0.304263E-07  0.141E-03    0.97       4.6  T
   5   -434.7180976 -0.114020E-05  0.312E-04    0.97      20.9  T
   6   -434.7180977 -0.620059E-07  0.165E-04    0.97      39.5  T
   7   -434.7180977 -0.269849E-07  0.374E-05    0.97     174.3  T
     SCC iter.                  ...        0 min,  1.548 sec
     gradient                   ...        0 min,  0.716 sec
 * total energy  :  -428.3116652 Eh     change       -0.2312971E-02 Eh
   gradient norm :     0.0125195 Eh/α   predicted    -0.2617808E-02 (  13.18%)
   displ. norm   :     0.5901836 α      lambda       -0.2306359E-02
   maximum displ.:     0.2394868 α      in ANC's #31, #33, #14, ...

........................................................................
.............................. CYCLE   13 ..............................
........................................................................
   1   -434.7191916 -0.434719E+03  0.413E-03    0.97       0.0  T
   2   -434.7191940 -0.237419E-05  0.213E-03    0.97       3.1  T
   3   -434.7191949 -0.942993E-06  0.947E-04    0.97       6.9  T
   4   -434.7191951 -0.177448E-06  0.101E-03    0.97       6.5  T
   5   -434.7191957 -0.657032E-06  0.258E-04    0.97      25.2  T
   6   -434.7191958 -0.248609E-07  0.118E-04    0.97      54.9  T
   7   -434.7191958 -0.123845E-07  0.312E-05    0.97     208.9  T
     SCC iter.                  ...        0 min,  1.550 sec
     gradient                   ...        0 min,  0.713 sec
 * total energy  :  -428.3134987 Eh     change       -0.1833533E-02 Eh
   gradient norm :     0.0096790 Eh/α   predicted    -0.1554852E-02 ( -15.20%)
   displ. norm   :     0.6297958 α      lambda       -0.1925755E-02
   maximum displ.:     0.2730045 α      in ANC's #31, #33, #14, ...

........................................................................
.............................. CYCLE   14 ..............................
........................................................................
   1   -434.7162591 -0.434716E+03  0.399E-03    0.96       0.0  T
   2   -434.7162606 -0.150857E-05  0.244E-03    0.96       2.7  T
   3   -434.7162630 -0.239043E-05  0.110E-03    0.96       5.9  T
   4   -434.7162637 -0.775473E-06  0.884E-04    0.96       7.4  T
   5   -434.7162642 -0.423839E-06  0.313E-04    0.96      20.8  T
   6   -434.7162642 -0.474190E-07  0.130E-04    0.96      50.3  T
   7   -434.7162642 -0.154140E-07  0.339E-05    0.96     191.9  T
     SCC iter.                  ...        0 min,  1.545 sec
     gradient                   ...        0 min,  0.719 sec
 * total energy  :  -428.3151136 Eh     change       -0.1614860E-02 Eh
   gradient norm :     0.0096481 Eh/α   predicted    -0.1344803E-02 ( -16.72%)
   displ. norm   :     0.6755992 α      lambda       -0.1752008E-02
   maximum displ.:     0.2955007 α      in ANC's #31, #33, #14, ...

........................................................................
.............................. CYCLE   15 ..............................
........................................................................
   1   -434.7093863 -0.434709E+03  0.335E-03    0.96       0.0  T
   2   -434.7093876 -0.126098E-05  0.196E-03    0.96       3.3  T
   3   -434.7093887 -0.110739E-05  0.112E-03    0.96       5.8  T
   4   -434.7093892 -0.526921E-06  0.769E-04    0.96       8.5  T
   5   -434.7093895 -0.347512E-06  0.273E-04    0.96      23.8  T
   6   -434.7093896 -0.447632E-07  0.967E-05    0.96      67.3  T
   7   -434.7093896 -0.849701E-08  0.338E-05    0.96     192.6  T
     SCC iter.                  ...        0 min,  1.549 sec
     gradient                   ...        0 min,  0.713 sec
 * total energy  :  -428.3165858 Eh     change       -0.1472264E-02 Eh
   gradient norm :     0.0103716 Eh/α   predicted    -0.1275861E-02 ( -13.34%)
   displ. norm   :     0.6995916 α      lambda       -0.1543873E-02
   maximum displ.:     0.3190649 α      in ANC's #14, #31, #33, ...

........................................................................
.............................. CYCLE   16 ..............................
........................................................................
   1   -434.7012778 -0.434701E+03  0.314E-03    0.96       0.0  T
   2   -434.7012790 -0.118726E-05  0.170E-03    0.96       3.8  T
   3   -434.7012795 -0.541530E-06  0.102E-03    0.96       6.4  T
   4   -434.7012797 -0.199922E-06  0.736E-04    0.96       8.8  T
   5   -434.7012801 -0.414164E-06  0.220E-04    0.96      29.6  T
   6   -434.7012801 -0.231109E-07  0.813E-05    0.96      80.0  T
   7   -434.7012802 -0.593974E-08  0.261E-05    0.96     249.4  T
     SCC iter.                  ...        0 min,  1.550 sec
     gradient                   ...        0 min,  0.714 sec
 * total energy  :  -428.3178401 Eh     change       -0.1254314E-02 Eh
   gradient norm :     0.0100754 Eh/α   predicted    -0.1149743E-02 (  -8.34%)
   displ. norm   :     0.7059544 α      lambda       -0.1396976E-02
   maximum displ.:     0.3353461 α      in ANC's #14, #31, #33, ...

........................................................................
.............................. CYCLE   17 ..............................
........................................................................
   1   -434.6934997 -0.434693E+03  0.325E-03    0.96       0.0  T
   2   -434.6935009 -0.113940E-05  0.179E-03    0.96       3.6  T
   3   -434.6935018 -0.966853E-06  0.108E-03    0.96       6.0  T
   4   -434.6935024 -0.567273E-06  0.647E-04    0.96      10.1  T
   5   -434.6935025 -0.144763E-06  0.224E-04    0.96      29.0  T
   6   -434.6935026 -0.238547E-07  0.963E-05    0.96      67.6  T
   7   -434.6935026 -0.101504E-07  0.247E-05    0.96     263.2  T
     SCC iter.                  ...        0 min,  1.546 sec
     gradient                   ...        0 min,  0.716 sec
 * total energy  :  -428.3188969 Eh     change       -0.1056788E-02 Eh
   gradient norm :     0.0090211 Eh/α   predicted    -0.1046597E-02 (  -0.96%)
   displ. norm   :     0.6620187 α      lambda       -0.1096889E-02
   maximum displ.:     0.3296129 α      in ANC's #14, #31, #33, ...

........................................................................
.............................. CYCLE   18 ..............................
........................................................................
   1   -434.6887853 -0.434689E+03  0.295E-03    0.96       0.0  T
   2   -434.6887858 -0.550634E-06  0.183E-03    0.96       3.6  T
   3   -434.6887872 -0.139693E-05  0.100E-03    0.96       6.5  T
   4   -434.6887878 -0.579806E-06  0.589E-04    0.96      11.1  T
   5   -434.6887879 -0.946127E-07  0.199E-04    0.96      32.8  T
   6   -434.6887879 -0.218415E-07  0.724E-05    0.96      89.9  T
     SCC iter.                  ...        0 min,  1.326 sec
     gradient                   ...        0 min,  0.711 sec
 * total energy  :  -428.3197700 Eh     change       -0.8731133E-03 Eh
   gradient norm :     0.0078340 Eh/α   predicted    -0.7888126E-03 (  -9.66%)
   displ. norm   :     0.6438120 α      lambda       -0.9192375E-03
   maximum displ.:     0.3355052 α      in ANC's #14, #31, #33, ...

........................................................................
.............................. CYCLE   19 ..............................
........................................................................
   1   -434.6864675 -0.434686E+03  0.285E-03    0.97       0.0  T
   2   -434.6864685 -0.991277E-06  0.170E-03    0.97       3.8  T
   3   -434.6864696 -0.115951E-05  0.854E-04    0.97       7.6  T
   4   -434.6864699 -0.314498E-06  0.581E-04    0.97      11.2  T
   5   -434.6864701 -0.133036E-06  0.232E-04    0.97      28.1  T
   6   -434.6864701 -0.335382E-07  0.849E-05    0.97      76.7  T
   7   -434.6864701 -0.728721E-08  0.297E-05    0.97     219.4  T
     SCC iter.                  ...        0 min,  1.551 sec
     gradient                   ...        0 min,  0.710 sec
 * total energy  :  -428.3204328 Eh     change       -0.6627472E-03 Eh
   gradient norm :     0.0074411 Eh/α   predicted    -0.6501287E-03 (  -1.90%)
   displ. norm   :     0.5858894 α      lambda       -0.7447033E-03
   maximum displ.:     0.3197993 α      in ANC's #14, #31, #33, ...

........................................................................
.............................. CYCLE   20 ..............................
........................................................................
   1   -434.6845468 -0.434685E+03  0.264E-03    0.97       0.0  T
   2   -434.6845479 -0.104030E-05  0.168E-03    0.97       3.9  T
   3   -434.6845491 -0.121697E-05  0.724E-04    0.97       9.0  T
   4   -434.6845492 -0.151878E-06  0.604E-04    0.97      10.8  T
   5   -434.6845495 -0.211098E-06  0.210E-04    0.97      31.0  T
   6   -434.6845495 -0.182914E-07  0.839E-05    0.97      77.5  T
   7   -434.6845495 -0.723639E-08  0.293E-05    0.97     221.9  T
     SCC iter.                  ...        0 min,  1.547 sec
     gradient                   ...        0 min,  0.715 sec
 * total energy  :  -428.3209609 Eh     change       -0.5280735E-03 Eh
   gradient norm :     0.0072243 Eh/α   predicted    -0.5001686E-03 (  -5.28%)
   displ. norm   :     0.4876572 α      lambda       -0.4274454E-03
   maximum displ.:     0.2789682 α      in ANC's #14, #31, #33, ...
 * RMSD in coord.:     0.5870494 α      energy gain  -0.1356115E+01 Eh

generating ANC from model Hessian ...
Using Lindh-Hessian (1995)
 Shifting diagonal of input Hessian by    1.0017855678690213E-002
 Lowest  eigenvalues of input Hessian
    0.010000    0.010006    0.010009    0.010011    0.010012    0.010014
    0.010016    0.000000    0.000000    0.000000    0.000000    0.000000
    0.000000    0.010024    0.010041    0.010093    0.010131    0.010144
 Highest eigenvalues
    2.114336    2.145618    2.145633    2.638920    2.643035    2.655782


........................................................................
.............................. CYCLE   21 ..............................
........................................................................
   1   -434.6826270 -0.434683E+03  0.187E-03    0.97       0.0  T
   2   -434.6826276 -0.552600E-06  0.117E-03    0.97       5.6  T
   3   -434.6826279 -0.283713E-06  0.556E-04    0.97      11.7  T
   4   -434.6826278  0.977676E-07  0.524E-04    0.97      12.4  T
   5   -434.6826280 -0.206509E-06  0.149E-04    0.97      43.8  T
   6   -434.6826280 -0.126767E-07  0.451E-05    0.97     144.4  T
     SCC iter.                  ...        0 min,  1.329 sec
     gradient                   ...        0 min,  0.711 sec
 * total energy  :  -428.3213101 Eh     change       -0.3492676E-03 Eh
   gradient norm :     0.0065416 Eh/α   predicted     0.0000000E+00 (-100.00%)
   displ. norm   :     0.0953547 α      lambda       -0.1441471E-03
   maximum displ.:     0.0564610 α      in ANC's #14, #33, #39, ...

........................................................................
.............................. CYCLE   22 ..............................
........................................................................
   1   -434.6836123 -0.434684E+03  0.105E-03    0.97       0.0  T
   2   -434.6836124 -0.142443E-06  0.713E-04    0.97       9.1  T
   3   -434.6836126 -0.207109E-06  0.307E-04    0.97      21.2  T
   4   -434.6836126 -0.169445E-07  0.271E-04    0.97      24.0  T
   5   -434.6836127 -0.375863E-07  0.870E-05    0.97      74.8  T
   6   -434.6836127 -0.382403E-08  0.422E-05    0.97     154.4  T
     SCC iter.                  ...        0 min,  1.327 sec
     gradient                   ...        0 min,  0.711 sec
 * total energy  :  -428.3214547 Eh     change       -0.1446231E-03 Eh
   gradient norm :     0.0038831 Eh/α   predicted    -0.8546779E-04 ( -40.90%)
   displ. norm   :     0.3393531 α      lambda       -0.4344014E-03
   maximum displ.:     0.1893309 α      in ANC's #14, #33, #39, ...

........................................................................
.............................. CYCLE   23 ..............................
........................................................................
   1   -434.6852808 -0.434685E+03  0.292E-03    0.96       0.0  T
   2   -434.6852818 -0.990980E-06  0.195E-03    0.96       3.3  T
   3   -434.6852836 -0.178656E-05  0.842E-04    0.96       7.7  T
   4   -434.6852839 -0.311094E-06  0.679E-04    0.96       9.6  T
   5   -434.6852841 -0.205536E-06  0.233E-04    0.96      28.0  T
   6   -434.6852841 -0.247866E-07  0.120E-04    0.96      54.1  T
   7   -434.6852841 -0.147657E-07  0.312E-05    0.96     208.4  T
     SCC iter.                  ...        0 min,  1.550 sec
     gradient                   ...        0 min,  0.710 sec
 * total energy  :  -428.3217629 Eh     change       -0.3081561E-03 Eh
   gradient norm :     0.0052659 Eh/α   predicted    -0.2422321E-03 ( -21.39%)
   displ. norm   :     0.3537017 α      lambda       -0.2849082E-03
   maximum displ.:     0.1985695 α      in ANC's #14, #39, #33, ...

........................................................................
.............................. CYCLE   24 ..............................
........................................................................
   1   -434.6854530 -0.434685E+03  0.183E-03    0.96       0.0  T
   2   -434.6854533 -0.279092E-06  0.111E-03    0.96       5.9  T
   3   -434.6854538 -0.589948E-06  0.564E-04    0.96      11.5  T
   4   -434.6854541 -0.245028E-06  0.346E-04    0.96      18.8  T
   5   -434.6854541 -0.387824E-07  0.119E-04    0.96      54.6  T
   6   -434.6854541 -0.606047E-08  0.642E-05    0.96     101.4  T
     SCC iter.                  ...        0 min,  1.333 sec
     gradient                   ...        0 min,  0.709 sec
 * total energy  :  -428.3219908 Eh     change       -0.2278829E-03 Eh
   gradient norm :     0.0080219 Eh/α   predicted    -0.1602826E-03 ( -29.66%)
   displ. norm   :     0.4399954 α      lambda       -0.3311932E-03
   maximum displ.:     0.2426899 α      in ANC's #14, #39, #44, ...

........................................................................
.............................. CYCLE   25 ..............................
........................................................................
   1   -434.6853267 -0.434685E+03  0.138E-03    0.96       0.0  T
   2   -434.6853268 -0.161924E-06  0.721E-04    0.96       9.0  T
   3   -434.6853270 -0.123880E-06  0.472E-04    0.96      13.8  T
   4   -434.6853271 -0.150967E-06  0.249E-04    0.96      26.1  T
   5   -434.6853271 -0.205296E-07  0.766E-05    0.96      84.9  T
   6   -434.6853271 -0.251873E-08  0.338E-05    0.96     192.8  T
     SCC iter.                  ...        0 min,  1.328 sec
     gradient                   ...        0 min,  0.714 sec
 * total energy  :  -428.3222787 Eh     change       -0.2878976E-03 Eh
   gradient norm :     0.0082644 Eh/α   predicted    -0.1976569E-03 ( -31.34%)
   displ. norm   :     0.5608773 α      lambda       -0.4467054E-03
   maximum displ.:     0.3079790 α      in ANC's #14, #39, #44, ...

........................................................................
.............................. CYCLE   26 ..............................
........................................................................
   1   -434.6850170 -0.434685E+03  0.168E-03    0.96       0.0  T
   2   -434.6850175 -0.461927E-06  0.101E-03    0.96       6.4  T
   3   -434.6850177 -0.245788E-06  0.513E-04    0.96      12.7  T
   4   -434.6850177  0.429799E-08  0.411E-04    0.96      15.9  T
   5   -434.6850178 -0.108980E-06  0.126E-04    0.96      51.6  T
   6   -434.6850178 -0.793347E-08  0.576E-05    0.96     113.0  T
     SCC iter.                  ...        0 min,  1.326 sec
     gradient                   ...        0 min,  0.710 sec
 * total energy  :  -428.3226606 Eh     change       -0.3818808E-03 Eh
   gradient norm :     0.0061666 Eh/α   predicted    -0.2936169E-03 ( -23.11%)
   displ. norm   :     0.6146998 α      lambda       -0.4579815E-03
   maximum displ.:     0.3405007 α      in ANC's #14, #39, #44, ...

........................................................................
.............................. CYCLE   27 ..............................
........................................................................
   1   -434.6847722 -0.434685E+03  0.209E-03    0.96       0.0  T
   2   -434.6847729 -0.690695E-06  0.134E-03    0.96       4.9  T
   3   -434.6847735 -0.679730E-06  0.609E-04    0.96      10.7  T
   4   -434.6847736 -0.774887E-07  0.489E-04    0.96      13.3  T
   5   -434.6847737 -0.122084E-06  0.155E-04    0.96      41.9  T
   6   -434.6847737 -0.963519E-08  0.784E-05    0.96      83.0  T
     SCC iter.                  ...        0 min,  1.327 sec
     gradient                   ...        0 min,  0.709 sec
 * total energy  :  -428.3230407 Eh     change       -0.3801155E-03 Eh
   gradient norm :     0.0054204 Eh/α   predicted    -0.3155166E-03 ( -16.99%)
   displ. norm   :     0.6045074 α      lambda       -0.3968522E-03
   maximum displ.:     0.3388100 α      in ANC's #14, #39, #44, ...

........................................................................
.............................. CYCLE   28 ..............................
........................................................................
   1   -434.6848589 -0.434685E+03  0.207E-03    0.96       0.0  T
   2   -434.6848595 -0.563895E-06  0.127E-03    0.96       5.1  T
   3   -434.6848602 -0.694175E-06  0.583E-04    0.96      11.2  T
   4   -434.6848603 -0.155372E-06  0.423E-04    0.96      15.4  T
   5   -434.6848604 -0.789698E-07  0.132E-04    0.96      49.1  T
   6   -434.6848604 -0.533021E-08  0.657E-05    0.96      99.1  T
     SCC iter.                  ...        0 min,  1.330 sec
     gradient                   ...        0 min,  0.710 sec
 * total energy  :  -428.3233679 Eh     change       -0.3272154E-03 Eh
   gradient norm :     0.0065089 Eh/α   predicted    -0.2709380E-03 ( -17.20%)
   displ. norm   :     0.5839843 α      lambda       -0.3564868E-03
   maximum displ.:     0.3301955 α      in ANC's #14, #39, #20, ...

........................................................................
.............................. CYCLE   29 ..............................
........................................................................
   1   -434.6854512 -0.434685E+03  0.184E-03    0.96       0.0  T
   2   -434.6854517 -0.430962E-06  0.105E-03    0.96       6.2  T
   3   -434.6854521 -0.442891E-06  0.505E-04    0.96      12.9  T
   4   -434.6854522 -0.133402E-06  0.345E-04    0.96      18.9  T
   5   -434.6854523 -0.504270E-07  0.102E-04    0.96      63.9  T
   6   -434.6854523 -0.236230E-08  0.472E-05    0.96     138.0  T
     SCC iter.                  ...        0 min,  1.329 sec
     gradient                   ...        0 min,  0.711 sec
 * total energy  :  -428.3236627 Eh     change       -0.2947593E-03 Eh
   gradient norm :     0.0067610 Eh/α   predicted    -0.2390328E-03 ( -18.91%)
   displ. norm   :     0.5818690 α      lambda       -0.3436098E-03
   maximum displ.:     0.3295509 α      in ANC's #14, #39, #20, ...

........................................................................
.............................. CYCLE   30 ..............................
........................................................................
   1   -434.6859357 -0.434686E+03  0.171E-03    0.96       0.0  T
   2   -434.6859362 -0.458177E-06  0.982E-04    0.96       6.6  T
   3   -434.6859365 -0.317978E-06  0.461E-04    0.96      14.1  T
   4   -434.6859366 -0.732533E-07  0.364E-04    0.96      17.9  T
   5   -434.6859366 -0.681357E-07  0.129E-04    0.96      50.6  T
   6   -434.6859366 -0.594355E-08  0.706E-05    0.96      92.2  T
     SCC iter.                  ...        0 min,  1.328 sec
     gradient                   ...        0 min,  0.709 sec
 * total energy  :  -428.3239443 Eh     change       -0.2816894E-03 Eh
   gradient norm :     0.0057090 Eh/α   predicted    -0.2299774E-03 ( -18.36%)
   displ. norm   :     0.5860460 α      lambda       -0.3251558E-03
   maximum displ.:     0.3278179 α      in ANC's #14, #39, #29, ...

........................................................................
.............................. CYCLE   31 ..............................
........................................................................
   1   -434.6853749 -0.434685E+03  0.174E-03    0.95       0.0  T
   2   -434.6853753 -0.486771E-06  0.106E-03    0.95       6.1  T
   3   -434.6853757 -0.381947E-06  0.506E-04    0.95      12.9  T
   4   -434.6853758 -0.859515E-07  0.417E-04    0.95      15.6  T
   5   -434.6853759 -0.100884E-06  0.144E-04    0.95      45.3  T
   6   -434.6853759 -0.697963E-08  0.742E-05    0.95      87.7  T
     SCC iter.                  ...        0 min,  1.327 sec
     gradient                   ...        0 min,  0.707 sec
 * total energy  :  -428.3242056 Eh     change       -0.2612751E-03 Eh
   gradient norm :     0.0046779 Eh/α   predicted    -0.2184177E-03 ( -16.40%)
   displ. norm   :     0.5543986 α      lambda       -0.2836310E-03
   maximum displ.:     0.3016139 α      in ANC's #14, #39, #29, ...

........................................................................
.............................. CYCLE   32 ..............................
........................................................................
   1   -434.6845441 -0.434685E+03  0.177E-03    0.95       0.0  T
   2   -434.6845445 -0.408980E-06  0.103E-03    0.95       6.3  T
   3   -434.6845448 -0.362528E-06  0.552E-04    0.95      11.8  T
   4   -434.6845450 -0.188864E-06  0.389E-04    0.95      16.7  T
   5   -434.6845451 -0.745933E-07  0.139E-04    0.95      46.8  T
   6   -434.6845451 -0.682178E-08  0.728E-05    0.95      89.5  T
     SCC iter.                  ...        0 min,  1.333 sec
     gradient                   ...        0 min,  0.716 sec
 * total energy  :  -428.3244282 Eh     change       -0.2225670E-03 Eh
   gradient norm :     0.0047633 Eh/α   predicted    -0.1854219E-03 ( -16.69%)
   displ. norm   :     0.5029902 α      lambda       -0.2288892E-03
   maximum displ.:     0.2610374 α      in ANC's #14, #39, #29, ...

........................................................................
.............................. CYCLE   33 ..............................
........................................................................
   1   -434.6823040 -0.434682E+03  0.171E-03    0.95       0.0  T
   2   -434.6823043 -0.299227E-06  0.888E-04    0.95       7.3  T
   3   -434.6823045 -0.168996E-06  0.581E-04    0.95      11.2  T
   4   -434.6823048 -0.253417E-06  0.334E-04    0.95      19.5  T
   5   -434.6823048 -0.389975E-07  0.119E-04    0.95      54.7  T
   6   -434.6823048 -0.606661E-08  0.616E-05    0.95     105.6  T
     SCC iter.                  ...        0 min,  1.328 sec
     gradient                   ...        0 min,  0.712 sec
 * total energy  :  -428.3246060 Eh     change       -0.1778341E-03 Eh
   gradient norm :     0.0050076 Eh/α   predicted    -0.1433994E-03 ( -19.36%)
   displ. norm   :     0.4143488 α      lambda       -0.1984447E-03
   maximum displ.:     0.1829585 α      in ANC's #14, #39, #29, ...

........................................................................
.............................. CYCLE   34 ..............................
........................................................................
   1   -434.6834573 -0.434683E+03  0.174E-03    0.95       0.0  T
   2   -434.6834576 -0.359859E-06  0.882E-04    0.95       7.4  T
   3   -434.6834577 -0.114721E-06  0.554E-04    0.95      11.8  T
   4   -434.6834579 -0.125348E-06  0.366E-04    0.95      17.8  T
   5   -434.6834579 -0.588433E-07  0.103E-04    0.95      63.4  T
   6   -434.6834579 -0.474375E-08  0.429E-05    0.95     151.9  T
     SCC iter.                  ...        0 min,  1.328 sec
     gradient                   ...        0 min,  0.714 sec
 * total energy  :  -428.3247447 Eh     change       -0.1387193E-03 Eh
   gradient norm :     0.0045129 Eh/α   predicted    -0.1162612E-03 ( -16.19%)
   displ. norm   :     0.5135578 α      lambda       -0.1809380E-03
   maximum displ.:     0.2458562 α      in ANC's #14, #39, #29, ...

........................................................................
.............................. CYCLE   35 ..............................
........................................................................
   1   -434.6724602 -0.434672E+03  0.361E-03    0.95       0.0  T
   2   -434.6724609 -0.736347E-06  0.192E-03    0.95       3.4  T
   3   -434.6724603  0.610169E-06  0.133E-03    0.95       4.9  T
   4   -434.6724609 -0.608459E-06  0.760E-04    0.95       8.6  T
   5   -434.6724613 -0.452234E-06  0.160E-04    0.95      40.7  T
   6   -434.6724614 -0.125813E-07  0.831E-05    0.95      78.3  T
     SCC iter.                  ...        0 min,  1.328 sec
     gradient                   ...        0 min,  0.708 sec
 * total energy  :  -428.3248021 Eh     change       -0.5731946E-04 Eh
   gradient norm :     0.0074495 Eh/α   predicted    -0.1143451E-03 (  99.49%)
   displ. norm   :     0.1917107 α      lambda       -0.1746038E-03
   maximum displ.:     0.0789092 α      in ANC's #33, #44, #23, ...

........................................................................
.............................. CYCLE   36 ..............................
........................................................................
   1   -434.6789819 -0.434679E+03  0.273E-03    0.95       0.0  T
   2   -434.6789824 -0.478017E-06  0.145E-03    0.95       4.5  T
   3   -434.6789822  0.216914E-06  0.992E-04    0.95       6.6  T
   4   -434.6789824 -0.160223E-06  0.599E-04    0.95      10.9  T
   5   -434.6789827 -0.305123E-06  0.184E-04    0.95      35.3  T
   6   -434.6789827 -0.282978E-07  0.652E-05    0.95      99.9  T
     SCC iter.                  ...        0 min,  1.329 sec
     gradient                   ...        0 min,  0.710 sec
 * total energy  :  -428.3249064 Eh     change       -0.1043279E-03 Eh
   gradient norm :     0.0037512 Eh/α   predicted    -0.9051207E-04 ( -13.24%)
   displ. norm   :     0.1441116 α      lambda       -0.6834070E-04
   maximum displ.:     0.0587890 α      in ANC's #27, #29, #33, ...

........................................................................
.............................. CYCLE   37 ..............................
........................................................................
   1   -434.6795435 -0.434680E+03  0.113E-03    0.95       0.0  T
   2   -434.6795436 -0.124350E-06  0.588E-04    0.95      11.1  T
   3   -434.6795436 -0.416193E-07  0.381E-04    0.95      17.1  T
   4   -434.6795437 -0.636411E-07  0.240E-04    0.95      27.2  T
   5   -434.6795437 -0.266539E-07  0.836E-05    0.95      77.8  T
   6   -434.6795437 -0.488524E-08  0.327E-05    0.95     199.0  T
     SCC iter.                  ...        0 min,  1.332 sec
     gradient                   ...        0 min,  0.710 sec
 * total energy  :  -428.3249614 Eh     change       -0.5497827E-04 Eh
   gradient norm :     0.0033041 Eh/α   predicted    -0.3488112E-04 ( -36.55%)
   displ. norm   :     0.3188414 α      lambda       -0.1426230E-03
   maximum displ.:     0.1352098 α      in ANC's #27, #29, #34, ...

........................................................................
.............................. CYCLE   38 ..............................
........................................................................
   1   -434.6788231 -0.434679E+03  0.215E-03    0.95       0.0  T
   2   -434.6788237 -0.601368E-06  0.987E-04    0.95       6.6  T
   3   -434.6788239 -0.199491E-06  0.616E-04    0.95      10.6  T
   4   -434.6788242 -0.256138E-06  0.377E-04    0.95      17.3  T
   5   -434.6788242 -0.561584E-07  0.138E-04    0.95      47.0  T
   6   -434.6788243 -0.871376E-08  0.672E-05    0.95      96.9  T
     SCC iter.                  ...        0 min,  1.332 sec
     gradient                   ...        0 min,  0.710 sec
 * total energy  :  -428.3250557 Eh     change       -0.9437484E-04 Eh
   gradient norm :     0.0038228 Eh/α   predicted    -0.7856397E-04 ( -16.75%)
   displ. norm   :     0.2766099 α      lambda       -0.9078417E-04
   maximum displ.:     0.1237683 α      in ANC's #27, #29, #34, ...

........................................................................
.............................. CYCLE   39 ..............................
........................................................................
   1   -434.6756729 -0.434676E+03  0.191E-03    0.95       0.0  T
   2   -434.6756732 -0.316147E-06  0.936E-04    0.95       7.0  T
   3   -434.6756732  0.505793E-07  0.623E-04    0.95      10.4  T
   4   -434.6756733 -0.122252E-06  0.385E-04    0.95      16.9  T
   5   -434.6756734 -0.853168E-07  0.771E-05    0.95      84.4  T
   6   -434.6756734 -0.154688E-08  0.314E-05    0.95     207.4  T
     SCC iter.                  ...        0 min,  1.328 sec
     gradient                   ...        0 min,  0.709 sec
 * total energy  :  -428.3251116 Eh     change       -0.5584782E-04 Eh
   gradient norm :     0.0050563 Eh/α   predicted    -0.4886632E-04 ( -12.50%)
   displ. norm   :     0.2465632 α      lambda       -0.8277110E-04
   maximum displ.:     0.1080860 α      in ANC's #27, #29, #34, ...

........................................................................
.............................. CYCLE   40 ..............................
........................................................................
   1   -434.6743233 -0.434674E+03  0.139E-03    0.95       0.0  T
   2   -434.6743235 -0.198263E-06  0.736E-04    0.95       8.8  T
   3   -434.6743235 -0.113517E-07  0.464E-04    0.95      14.0  T
   4   -434.6743235 -0.113546E-07  0.315E-04    0.95      20.7  T
   5   -434.6743236 -0.799429E-07  0.714E-05    0.95      91.1  T
   6   -434.6743236 -0.167518E-08  0.296E-05    0.95     220.0  T
     SCC iter.                  ...        0 min,  1.329 sec
     gradient                   ...        0 min,  0.711 sec
 * total energy  :  -428.3251704 Eh     change       -0.5883163E-04 Eh
   gradient norm :     0.0040799 Eh/α   predicted    -0.4390447E-04 ( -25.37%)
   displ. norm   :     0.2634243 α      lambda       -0.9603787E-04
   maximum displ.:     0.1125524 α      in ANC's #29, #27, #38, ...

........................................................................
.............................. CYCLE   41 ..............................
........................................................................
   1   -434.6749162 -0.434675E+03  0.138E-03    0.95       0.0  T
   2   -434.6749165 -0.301441E-06  0.747E-04    0.95       8.7  T
   3   -434.6749167 -0.207001E-06  0.413E-04    0.95      15.7  T
   4   -434.6749168 -0.818402E-07  0.241E-04    0.95      27.0  T
   5   -434.6749168 -0.211971E-07  0.107E-04    0.95      60.8  T
   6   -434.6749168 -0.485301E-08  0.445E-05    0.95     146.4  T
     SCC iter.                  ...        0 min,  1.328 sec
     gradient                   ...        0 min,  0.709 sec
 * total energy  :  -428.3252402 Eh     change       -0.6976686E-04 Eh
   gradient norm :     0.0035083 Eh/α   predicted    -0.5135583E-04 ( -26.39%)
   displ. norm   :     0.2622186 α      lambda       -0.8053998E-04
   maximum displ.:     0.1177511 α      in ANC's #29, #27, #31, ...

........................................................................
.............................. CYCLE   42 ..............................
........................................................................
   1   -434.6760777 -0.434676E+03  0.141E-03    0.95       0.0  T
   2   -434.6760780 -0.281768E-06  0.622E-04    0.95      10.5  T
   3   -434.6760781 -0.993052E-07  0.414E-04    0.95      15.7  T
   4   -434.6760782 -0.120928E-06  0.211E-04    0.95      30.8  T
   5   -434.6760782 -0.130182E-07  0.990E-05    0.95      65.8  T
   6   -434.6760782 -0.451951E-08  0.437E-05    0.95     149.1  T
     SCC iter.                  ...        0 min,  1.328 sec
     gradient                   ...        0 min,  0.709 sec
 * total energy  :  -428.3252985 Eh     change       -0.5826671E-04 Eh
   gradient norm :     0.0034092 Eh/α   predicted    -0.4304226E-04 ( -26.13%)
   displ. norm   :     0.2762935 α      lambda       -0.7179074E-04
   maximum displ.:     0.1281771 α      in ANC's #29, #27, #30, ...
 * RMSD in coord.:     0.4515472 α      energy gain  -0.4337597E-02 Eh

generating ANC from model Hessian ...
Using Lindh-Hessian (1995)
 Shifting diagonal of input Hessian by    1.0018988112590792E-002
 Lowest  eigenvalues of input Hessian
    0.010000    0.010007    0.010008    0.010009    0.010012    0.010014
    0.010017    0.000000    0.000000    0.000000    0.000000    0.000000
    0.000000    0.010031    0.010034    0.010089    0.010129    0.010144
 Highest eigenvalues
    2.112303    2.149200    2.149266    2.635553    2.640196    2.641522


........................................................................
.............................. CYCLE   43 ..............................
........................................................................
   1   -434.6774739 -0.434677E+03  0.108E-03    0.95       0.0  T
   2   -434.6774741 -0.171592E-06  0.468E-04    0.95      13.9  T
   3   -434.6774742 -0.393416E-07  0.306E-04    0.95      21.3  T
   4   -434.6774742 -0.541637E-07  0.183E-04    0.95      35.5  T
   5   -434.6774742 -0.119454E-07  0.721E-05    0.95      90.3  T
     SCC iter.                  ...        0 min,  1.109 sec
     gradient                   ...        0 min,  0.709 sec
 * total energy  :  -428.3253515 Eh     change       -0.5306155E-04 Eh
   gradient norm :     0.0036540 Eh/α   predicted     0.0000000E+00 (-100.00%)
   displ. norm   :     0.0369217 α      lambda       -0.2923842E-04
   maximum displ.:     0.0148466 α      in ANC's #31, #14, #28, ...

........................................................................
.............................. CYCLE   44 ..............................
........................................................................
   1   -434.6785206 -0.434679E+03  0.774E-04    0.95       0.0  T
   2   -434.6785207 -0.810331E-07  0.403E-04    0.95      16.2  T
   3   -434.6785207 -0.316755E-07  0.249E-04    0.95      26.2  T
   4   -434.6785207 -0.124385E-07  0.155E-04    0.95      42.0  T
   5   -434.6785208 -0.123160E-07  0.618E-05    0.95     105.3  T
     SCC iter.                  ...        0 min,  1.114 sec
     gradient                   ...        0 min,  0.714 sec
 * total energy  :  -428.3253801 Eh     change       -0.2863383E-04 Eh
   gradient norm :     0.0019599 Eh/α   predicted    -0.1751563E-04 ( -38.83%)
   displ. norm   :     0.1734647 α      lambda       -0.6493949E-04
   maximum displ.:     0.0751448 α      in ANC's #31, #14, #28, ...

........................................................................
.............................. CYCLE   45 ..............................
........................................................................
   1   -434.6803456 -0.434680E+03  0.232E-03    0.95       0.0  T
   2   -434.6803465 -0.814579E-06  0.114E-03    0.95       5.7  T
   3   -434.6803468 -0.356940E-06  0.695E-04    0.95       9.4  T
   4   -434.6803470 -0.187850E-06  0.400E-04    0.95      16.3  T
   5   -434.6803471 -0.614289E-07  0.159E-04    0.95      40.9  T
   6   -434.6803471 -0.129684E-07  0.487E-05    0.95     133.6  T
     SCC iter.                  ...        0 min,  1.334 sec
     gradient                   ...        0 min,  0.707 sec
 * total energy  :  -428.3254199 Eh     change       -0.3980169E-04 Eh
   gradient norm :     0.0037466 Eh/α   predicted    -0.3290416E-04 ( -17.33%)
   displ. norm   :     0.0386908 α      lambda       -0.2247204E-04
   maximum displ.:     0.0181728 α      in ANC's #31, #28, #14, ...

........................................................................
.............................. CYCLE   46 ..............................
........................................................................
   1   -434.6798445 -0.434680E+03  0.393E-04    0.95       0.0  T
   2   -434.6798445 -0.177915E-07  0.235E-04    0.95      27.7  T
   3   -434.6798446 -0.773883E-08  0.130E-04    0.95      50.1  T
   4   -434.6798445  0.319096E-08  0.993E-05    0.95      65.5  T
     SCC iter.                  ...        0 min,  0.894 sec
     gradient                   ...        0 min,  0.709 sec
 * total energy  :  -428.3254375 Eh     change       -0.1757354E-04 Eh
   gradient norm :     0.0027788 Eh/α   predicted    -0.1125463E-04 ( -35.96%)
   displ. norm   :     0.1132370 α      lambda       -0.4826015E-04
   maximum displ.:     0.0535762 α      in ANC's #31, #28, #14, ...

........................................................................
.............................. CYCLE   47 ..............................
........................................................................
   1   -434.6787932 -0.434679E+03  0.117E-03    0.95       0.0  T
   2   -434.6787933 -0.183316E-06  0.659E-04    0.95       9.9  T
   3   -434.6787934 -0.754899E-07  0.369E-04    0.95      17.6  T
   4   -434.6787934  0.716454E-08  0.255E-04    0.95      25.5  T
   5   -434.6787935 -0.385831E-07  0.880E-05    0.95      73.9  T
   6   -434.6787935 -0.591683E-08  0.182E-05    0.95     357.0  T
     SCC iter.                  ...        0 min,  1.334 sec
     gradient                   ...        0 min,  0.711 sec
 * total energy  :  -428.3254714 Eh     change       -0.3391106E-04 Eh
   gradient norm :     0.0016004 Eh/α   predicted    -0.2444006E-04 ( -27.93%)
   displ. norm   :     0.2230870 α      lambda       -0.3278236E-04
   maximum displ.:     0.1063027 α      in ANC's #31, #28, #14, ...

........................................................................
.............................. CYCLE   48 ..............................
........................................................................
   1   -434.6785839 -0.434679E+03  0.991E-04    0.95       0.0  T
   2   -434.6785841 -0.135121E-06  0.554E-04    0.95      11.7  T
   3   -434.6785842 -0.777149E-07  0.309E-04    0.95      21.1  T
   4   -434.6785842 -0.926025E-08  0.207E-04    0.95      31.5  T
   5   -434.6785842 -0.211243E-07  0.836E-05    0.95      77.8  T
   6   -434.6785842 -0.525080E-08  0.229E-05    0.95     284.1  T
     SCC iter.                  ...        0 min,  1.329 sec
     gradient                   ...        0 min,  0.708 sec
 * total energy  :  -428.3255064 Eh     change       -0.3499525E-04 Eh
   gradient norm :     0.0031013 Eh/α   predicted    -0.1675733E-04 ( -52.12%)
   displ. norm   :     0.1582598 α      lambda       -0.3279786E-04
   maximum displ.:     0.0758968 α      in ANC's #31, #28, #14, ...

........................................................................
.............................. CYCLE   49 ..............................
........................................................................
   1   -434.6794760 -0.434679E+03  0.383E-04    0.95       0.0  T
   2   -434.6794760 -0.177494E-07  0.228E-04    0.95      28.6  T
   3   -434.6794760 -0.707155E-08  0.129E-04    0.95      50.5  T
   4   -434.6794760 -0.902958E-09  0.105E-04    0.95      61.7  T
     SCC iter.                  ...        0 min,  0.888 sec
     gradient                   ...        0 min,  0.708 sec
 * total energy  :  -428.3255352 Eh     change       -0.2878794E-04 Eh
   gradient norm :     0.0024754 Eh/α   predicted    -0.1681800E-04 ( -41.58%)
   displ. norm   :     0.2991873 α      lambda       -0.5820513E-04
   maximum displ.:     0.1438200 α      in ANC's #31, #28, #14, ...

........................................................................
.............................. CYCLE   50 ..............................
........................................................................
   1   -434.6811193 -0.434681E+03  0.774E-04    0.95       0.0  T
   2   -434.6811194 -0.800260E-07  0.442E-04    0.95      14.7  T
   3   -434.6811194 -0.182549E-07  0.246E-04    0.95      26.4  T
   4   -434.6811194  0.886337E-08  0.214E-04    0.95      30.4  T
   5   -434.6811194 -0.318428E-07  0.594E-05    0.95     109.6  T
   6   -434.6811194 -0.249622E-08  0.227E-05    0.95     286.7  T
     SCC iter.                  ...        0 min,  1.331 sec
     gradient                   ...        0 min,  0.709 sec
 * total energy  :  -428.3255806 Eh     change       -0.4533913E-04 Eh
   gradient norm :     0.0013178 Eh/α   predicted    -0.3171269E-04 ( -30.05%)
   displ. norm   :     0.4709424 α      lambda       -0.4519730E-04
   maximum displ.:     0.2269730 α      in ANC's #31, #28, #14, ...

........................................................................
.............................. CYCLE   51 ..............................
........................................................................
   1   -434.6823908 -0.434682E+03  0.953E-04    0.95       0.0  T
   2   -434.6823909 -0.137784E-06  0.518E-04    0.95      12.6  T
   3   -434.6823910 -0.352478E-07  0.284E-04    0.95      22.9  T
   4   -434.6823910  0.230159E-08  0.232E-04    0.95      28.1  T
   5   -434.6823910 -0.328670E-07  0.601E-05    0.95     108.4  T
   6   -434.6823910 -0.152863E-08  0.255E-05    0.95     255.7  T
     SCC iter.                  ...        0 min,  1.327 sec
     gradient                   ...        0 min,  0.711 sec
 * total energy  :  -428.3256270 Eh     change       -0.4643443E-04 Eh
   gradient norm :     0.0022204 Eh/α   predicted    -0.2482667E-04 ( -46.53%)
   displ. norm   :     0.2098573 α      lambda       -0.3151155E-04
   maximum displ.:     0.1002000 α      in ANC's #28, #31, #14, ...

........................................................................
.............................. CYCLE   52 ..............................
........................................................................
   1   -434.6830636 -0.434683E+03  0.295E-04    0.95       0.0  T
   2   -434.6830636 -0.101402E-07  0.161E-04    0.95      40.5  T
   3   -434.6830637 -0.500819E-08  0.977E-05    0.95      66.6  T
     SCC iter.                  ...        0 min,  0.674 sec
     gradient                   ...        0 min,  0.713 sec
 * total energy  :  -428.3256547 Eh     change       -0.2770411E-04 Eh
   gradient norm :     0.0021092 Eh/α   predicted    -0.1645409E-04 ( -40.61%)
   displ. norm   :     0.3863654 α      lambda       -0.7161985E-04
   maximum displ.:     0.1865988 α      in ANC's #28, #31, #14, ...

........................................................................
.............................. CYCLE   53 ..............................
........................................................................
   1   -434.6837521 -0.434684E+03  0.665E-04    0.95       0.0  T
   2   -434.6837522 -0.582350E-07  0.352E-04    0.95      18.5  T
   3   -434.6837522 -0.223134E-07  0.195E-04    0.95      33.3  T
   4   -434.6837522 -0.563773E-08  0.156E-04    0.95      41.6  T
     SCC iter.                  ...        0 min,  0.893 sec
     gradient                   ...        0 min,  0.712 sec
 * total energy  :  -428.3257135 Eh     change       -0.5877778E-04 Eh
   gradient norm :     0.0014979 Eh/α   predicted    -0.4116813E-04 ( -29.96%)
   displ. norm   :     0.6558348 α      lambda       -0.6923806E-04
   maximum displ.:     0.3213899 α      in ANC's #28, #31, #14, ...

........................................................................
.............................. CYCLE   54 ..............................
........................................................................
   1   -434.6811161 -0.434681E+03  0.117E-03    0.95       0.0  T
   2   -434.6811162 -0.137038E-06  0.670E-04    0.95       9.7  T
   3   -434.6811163 -0.962124E-07  0.383E-04    0.95      17.0  T
   4   -434.6811163 -0.466920E-07  0.280E-04    0.95      23.2  T
   5   -434.6811164 -0.434753E-07  0.910E-05    0.95      71.5  T
   6   -434.6811164 -0.586624E-08  0.331E-05    0.95     196.6  T
     SCC iter.                  ...        0 min,  1.332 sec
     gradient                   ...        0 min,  0.714 sec
 * total energy  :  -428.3257811 Eh     change       -0.6767048E-04 Eh
   gradient norm :     0.0019982 Eh/α   predicted    -0.4123764E-04 ( -39.06%)
   displ. norm   :     0.2891609 α      lambda       -0.3007829E-04
   maximum displ.:     0.1454895 α      in ANC's #28, #31, #14, ...

........................................................................
.............................. CYCLE   55 ..............................
........................................................................
   1   -434.6819711 -0.434682E+03  0.537E-04    0.95       0.0  T
   2   -434.6819711 -0.342746E-07  0.270E-04    0.95      24.1  T
   3   -434.6819711 -0.391776E-08  0.160E-04    0.95      40.7  T
   4   -434.6819711 -0.132673E-09  0.130E-04    0.95      50.3  T
     SCC iter.                  ...        0 min,  0.893 sec
     gradient                   ...        0 min,  0.710 sec
 * total energy  :  -428.3258180 Eh     change       -0.3682812E-04 Eh
   gradient norm :     0.0018768 Eh/α   predicted    -0.1559850E-04 ( -57.65%)
   displ. norm   :     0.4149692 α      lambda       -0.5221928E-04
   maximum displ.:     0.2105347 α      in ANC's #28, #31, #33, ...

........................................................................
.............................. CYCLE   56 ..............................
........................................................................
   1   -434.6824772 -0.434682E+03  0.837E-04    0.95       0.0  T
   2   -434.6824773 -0.904929E-07  0.443E-04    0.95      14.7  T
   3   -434.6824773 -0.450741E-07  0.259E-04    0.95      25.1  T
   4   -434.6824773 -0.154428E-07  0.173E-04    0.95      37.5  T
   5   -434.6824774 -0.175298E-07  0.442E-05    0.95     147.2  T
     SCC iter.                  ...        0 min,  1.109 sec
     gradient                   ...        0 min,  0.709 sec
 * total energy  :  -428.3258752 Eh     change       -0.5727274E-04 Eh
   gradient norm :     0.0018023 Eh/α   predicted    -0.2811102E-04 ( -50.92%)
   displ. norm   :     0.4726986 α      lambda       -0.4950384E-04
   maximum displ.:     0.2440865 α      in ANC's #28, #31, #33, ...

........................................................................
.............................. CYCLE   57 ..............................
........................................................................
   1   -434.6797679 -0.434680E+03  0.928E-04    0.95       0.0  T
   2   -434.6797679 -0.823247E-07  0.553E-04    0.95      11.8  T
   3   -434.6797680 -0.809304E-07  0.308E-04    0.95      21.1  T
   4   -434.6797680 -0.187952E-07  0.213E-04    0.95      30.6  T
   5   -434.6797681 -0.261103E-07  0.571E-05    0.95     114.1  T
   6   -434.6797681 -0.146281E-08  0.257E-05    0.95     253.6  T
     SCC iter.                  ...        0 min,  1.334 sec
     gradient                   ...        0 min,  0.712 sec
 * total energy  :  -428.3259174 Eh     change       -0.4212971E-04 Eh
   gradient norm :     0.0019991 Eh/α   predicted    -0.2721296E-04 ( -35.41%)
   displ. norm   :     0.2527919 α      lambda       -0.2487935E-04
   maximum displ.:     0.1336582 α      in ANC's #28, #31, #7, ...

........................................................................
.............................. CYCLE   58 ..............................
........................................................................
   1   -434.6801778 -0.434680E+03  0.477E-04    0.95       0.0  T
   2   -434.6801778 -0.197114E-07  0.252E-04    0.95      25.8  T
   3   -434.6801778 -0.434625E-08  0.167E-04    0.95      39.0  T
   4   -434.6801778 -0.105151E-07  0.106E-04    0.95      61.4  T
     SCC iter.                  ...        0 min,  0.890 sec
     gradient                   ...        0 min,  0.711 sec
 * total energy  :  -428.3259417 Eh     change       -0.2436065E-04 Eh
   gradient norm :     0.0014983 Eh/α   predicted    -0.1279695E-04 ( -47.47%)
   displ. norm   :     0.2269041 α      lambda       -0.2197926E-04
   maximum displ.:     0.1228305 α      in ANC's #28, #31, #7, ...

........................................................................
.............................. CYCLE   59 ..............................
........................................................................
   1   -434.6813828 -0.434681E+03  0.573E-04    0.95       0.0  T
   2   -434.6813829 -0.367992E-07  0.269E-04    0.95      24.2  T
   3   -434.6813829 -0.641592E-08  0.179E-04    0.95      36.3  T
   4   -434.6813829 -0.564791E-08  0.116E-04    0.95      56.1  T
     SCC iter.                  ...        0 min,  0.892 sec
     gradient                   ...        0 min,  0.857 sec
 * total energy  :  -428.3259633 Eh     change       -0.2161034E-04 Eh
   gradient norm :     0.0011633 Eh/α   predicted    -0.1124412E-04 ( -47.97%)
   displ. norm   :     0.2482331 α      lambda       -0.2087815E-04
   maximum displ.:     0.1349639 α      in ANC's #28, #31, #7, ...

........................................................................
.............................. CYCLE   60 ..............................
........................................................................
   1   -434.6807004 -0.434681E+03  0.612E-04    0.95       0.0  T
   2   -434.6807004 -0.365968E-07  0.301E-04    0.95      21.7  T
   3   -434.6807004 -0.184215E-07  0.199E-04    0.95      32.7  T
   4   -434.6807004 -0.259588E-07  0.112E-04    0.95      58.1  T
     SCC iter.                  ...        0 min,  0.891 sec
     gradient                   ...        0 min,  0.714 sec
 * total energy  :  -428.3259854 Eh     change       -0.2207323E-04 Eh
   gradient norm :     0.0011991 Eh/α   predicted    -0.1072833E-04 ( -51.40%)
   displ. norm   :     0.2148936 α      lambda       -0.1731255E-04
   maximum displ.:     0.1186202 α      in ANC's #28, #29, #7, ...

........................................................................
.............................. CYCLE   61 ..............................
[...]
     3   6 C        4   6 C                                       1.4306660
     4   6 C        5   6 C                                       1.3539240
     5   6 C        6   6 C                                       1.4337276
     3   6 C        7   7 N                                       1.3719097
     6   6 C        7   7 N                                       1.3734234
     6   6 C        8   6 C                                       1.3890156
     9   6 C       10   6 C                                       1.3950621
    10   6 C       11   6 C                                       1.3864111
    11   6 C       12   6 C                                       1.3928925
    12   6 C       13   8 O                                       1.3580192
    12   6 C       14   6 C                                       1.3937910
     9   6 C       15   6 C                                       1.3972766
    14   6 C       15   6 C                                       1.3833654
     8   6 C       16   6 C                                       1.3897743
    16   6 C       17   6 C                                       1.4312677
    17   6 C       18   6 C                                       1.3549378
    16   6 C       19   7 N                                       1.3756207
    18   6 C       20   6 C                                       1.4282391
    19   7 N       20   6 C                                       1.3688260
    20   6 C       21   6 C                                       1.3966375
    21   6 C       22   6 C                                       1.3967770
    22   6 C       23   6 C                                       1.4280916
    23   6 C       24   6 C                                       1.3546351
    24   6 C       25   6 C                                       1.4316187
    22   6 C       26   7 N                                       1.3681664
    25   6 C       26   7 N                                       1.3766094
    25   6 C       27   6 C                                       1.3886382
    28   6 C       29   6 C                                       1.3963289
    29   6 C       30   6 C                                       1.3838097
    30   6 C       31   6 C                                       1.3936097
    31   6 C       32   8 O                                       1.3583002
    31   6 C       33   6 C                                       1.3927983
    28   6 C       34   6 C                                       1.3944972
    33   6 C       34   6 C                                       1.3865809
    27   6 C       35   6 C                                       1.3888782
    35   6 C       36   6 C                                       1.4337338
    36   6 C       37   6 C                                       1.3535542
     2   6 C       38   6 C                                       1.3793972
    37   6 C       38   6 C                                       1.4311935
    35   6 C       39   7 N                                       1.3726285
    38   6 C       39   7 N                                       1.3726777
     2   6 C       40   1 H                                       1.0838209
     4   6 C       41   1 H                                       1.0784593
     5   6 C       42   1 H                                       1.0778876
    10   6 C       43   1 H                                       1.0843494
    11   6 C       44   1 H                                       1.0847826
    13   8 O       45   1 H                                       0.9666530
    14   6 C       46   1 H                                       1.0830051
    15   6 C       47   1 H                                       1.0842977
    17   6 C       48   1 H                                       1.0777829
    18   6 C       49   1 H                                       1.0780087
    23   6 C       50   1 H                                       1.0779548
    24   6 C       51   1 H                                       1.0777513
    29   6 C       52   1 H                                       1.0842257
    30   6 C       53   1 H                                       1.0829877
    32   8 O       54   1 H                                       0.9666124
    33   6 C       55   1 H                                       1.0847330
    34   6 C       56   1 H                                       1.0843205
    36   6 C       57   1 H                                       1.0779085
    37   6 C       58   1 H                                       1.0784591
    60   6 C       61   6 C                                       1.3793862
    61   6 C       62   6 C                                       1.4307643
    62   6 C       63   6 C                                       1.3535588
    63   6 C       64   6 C                                       1.4337595 (max)
    61   6 C       65   7 N                                       1.3720387
    64   6 C       65   7 N                                       1.3731292
    64   6 C       66   6 C                                       1.3885525
    67   6 C       68   6 C                                       1.3949423
    68   6 C       69   6 C                                       1.3863844
    69   6 C       70   6 C                                       1.3928586
    70   6 C       71   8 O                                       1.3580173
    70   6 C       72   6 C                                       1.3937421
    67   6 C       73   6 C                                       1.3968640
    72   6 C       73   6 C                                       1.3835434
    66   6 C       74   6 C                                       1.3890844
    74   6 C       75   6 C                                       1.4312018
    75   6 C       76   6 C                                       1.3544785
    74   6 C       77   7 N                                       1.3761921
    76   6 C       78   6 C                                       1.4279812
    77   7 N       78   6 C                                       1.3688558
    78   6 C       79   6 C                                       1.3964200
    79   6 C       80   6 C                                       1.3966987
    80   6 C       81   6 C                                       1.4280662
    81   6 C       82   6 C                                       1.3544269
    82   6 C       83   6 C                                       1.4314035
    80   6 C       84   7 N                                       1.3684607
    83   6 C       84   7 N                                       1.3765319
    83   6 C       85   6 C                                       1.3884720
    86   6 C       87   6 C                                       1.3964376
    87   6 C       88   6 C                                       1.3837260
    88   6 C       89   6 C                                       1.3936536
    89   6 C       90   8 O                                       1.3581505
    89   6 C       91   6 C                                       1.3927596
    86   6 C       92   6 C                                       1.3945181
    91   6 C       92   6 C                                       1.3865926
    85   6 C       93   6 C                                       1.3885306
    93   6 C       94   6 C                                       1.4336267
    94   6 C       95   6 C                                       1.3533993
    60   6 C       96   6 C                                       1.3791802
    95   6 C       96   6 C                                       1.4309758
    93   6 C       97   7 N                                       1.3728591
    96   6 C       97   7 N                                       1.3723575
    60   6 C       98   1 H                                       1.0838152
    62   6 C       99   1 H                                       1.0784538
    63   6 C      100   1 H                                       1.0778690
    68   6 C      101   1 H                                       1.0843466
    69   6 C      102   1 H                                       1.0847627
    71   8 O      103   1 H                                       0.9666249
    72   6 C      104   1 H                                       1.0829718
    73   6 C      105   1 H                                       1.0842624
    75   6 C      106   1 H                                       1.0777152
    76   6 C      107   1 H                                       1.0777749
    81   6 C      108   1 H                                       1.0778738
    82   6 C      109   1 H                                       1.0777151
    87   6 C      110   1 H                                       1.0842208
    88   6 C      111   1 H                                       1.0829598
    90   8 O      112   1 H                                       0.9665978 (min)
    91   6 C      113   1 H                                       1.0847264
    92   6 C      114   1 H                                       1.0843009
    94   6 C      115   1 H                                       1.0778531
    95   6 C      116   1 H                                       1.0784302
   117   6 C      118   6 C                                       1.2158436
   119   6 C      120   6 C                                       1.2162303
   121   6 C      122   6 C                                       1.2160466
   124   6 C      125   6 C                                       1.3969126
   125   6 C      126   6 C                                       1.4276375
   126   6 C      127   6 C                                       1.3555050
   127   6 C      128   6 C                                       1.4308553
   125   6 C      129   7 N                                       1.3684587
   128   6 C      129   7 N                                       1.3762203
   128   6 C      130   6 C                                       1.3895145
   131   6 C      132   6 C                                       1.3972639
   132   6 C      133   6 C                                       1.3834119
   133   6 C      134   6 C                                       1.3937728
   134   6 C      135   8 O                                       1.3577126
   134   6 C      136   6 C                                       1.3930635
   131   6 C      137   6 C                                       1.3954932
   136   6 C      137   6 C                                       1.3860540
   130   6 C      138   6 C                                       1.3893393
   138   6 C      139   6 C                                       1.4308321
   139   6 C      140   6 C                                       1.3555782
   138   6 C      141   7 N                                       1.3766125
   140   6 C      142   6 C                                       1.4276203
   141   7 N      142   6 C                                       1.3681274
   142   6 C      143   6 C                                       1.3975487
   143   6 C      144   6 C                                       1.3973780
   144   6 C      145   6 C                                       1.4276116
   145   6 C      146   6 C                                       1.3555729
   146   6 C      147   6 C                                       1.4308829
   144   6 C      148   7 N                                       1.3681867
   147   6 C      148   7 N                                       1.3762953
   147   6 C      149   6 C                                       1.3894068
   150   6 C      151   6 C                                       1.3953936
   151   6 C      152   6 C                                       1.3861293
   152   6 C      153   6 C                                       1.3929733
   153   6 C      154   8 O                                       1.3578230
   153   6 C      155   6 C                                       1.3938330
   150   6 C      156   6 C                                       1.3973265
   155   6 C      156   6 C                                       1.3833798
   149   6 C      157   6 C                                       1.3894317
   157   6 C      158   6 C                                       1.4308613
   158   6 C      159   6 C                                       1.3555663
   124   6 C      160   6 C                                       1.3971132
   159   6 C      160   6 C                                       1.4277084
   157   6 C      161   7 N                                       1.3764733
   160   6 C      161   7 N                                       1.3682353
   126   6 C      162   1 H                                       1.0779810
   127   6 C      163   1 H                                       1.0777750
   132   6 C      164   1 H                                       1.0842649
   133   6 C      165   1 H                                       1.0829861
   135   8 O      166   1 H                                       0.9666758
   136   6 C      167   1 H                                       1.0847322
   137   6 C      168   1 H                                       1.0843338
   139   6 C      169   1 H                                       1.0777776
   140   6 C      170   1 H                                       1.0779958
   145   6 C      171   1 H                                       1.0779954
   146   6 C      172   1 H                                       1.0777900
   151   6 C      173   1 H                                       1.0843313
   152   6 C      174   1 H                                       1.0847429
   154   8 O      175   1 H                                       0.9666762
   155   6 C      176   1 H                                       1.0829901
   156   6 C      177   1 H                                       1.0842759
   158   6 C      178   1 H                                       1.0777948
   159   6 C      179   1 H                                       1.0780263
   181   6 C      182   6 C                                       1.3976037
   182   6 C      183   6 C                                       1.4277107
   183   6 C      184   6 C                                       1.3555806
   184   6 C      185   6 C                                       1.4309492
   182   6 C      186   7 N                                       1.3678994
   185   6 C      186   7 N                                       1.3766726
   185   6 C      187   6 C                                       1.3889710
   188   6 C      189   6 C                                       1.3972644
   189   6 C      190   6 C                                       1.3833398
   190   6 C      191   6 C                                       1.3938803
   191   6 C      192   8 O                                       1.3575539
   191   6 C      193   6 C                                       1.3930771
   188   6 C      194   6 C                                       1.3953272
   193   6 C      194   6 C                                       1.3861469
   187   6 C      195   6 C                                       1.3896757
   195   6 C      196   6 C                                       1.4306505
   196   6 C      197   6 C                                       1.3554066
   195   6 C      198   7 N                                       1.3760123
   197   6 C      199   6 C                                       1.4276947
   198   7 N      199   6 C                                       1.3689511
   199   6 C      200   6 C                                       1.3974033
   200   6 C      201   6 C                                       1.3975036
   201   6 C      202   6 C                                       1.4277621
   202   6 C      203   6 C                                       1.3554495
   203   6 C      204   6 C                                       1.4308520
   201   6 C      205   7 N                                       1.3685137
   204   6 C      205   7 N                                       1.3761953
   204   6 C      206   6 C                                       1.3895981
   207   6 C      208   6 C                                       1.3953847
   208   6 C      209   6 C                                       1.3861520
   209   6 C      210   6 C                                       1.3930083
   210   6 C      211   8 O                                       1.3576933
   210   6 C      212   6 C                                       1.3938453
   207   6 C      213   6 C                                       1.3973241
   212   6 C      213   6 C                                       1.3833303
   206   6 C      214   6 C                                       1.3893619
   214   6 C      215   6 C                                       1.4309470
   215   6 C      216   6 C                                       1.3555852
   181   6 C      217   6 C                                       1.3974566
   216   6 C      217   6 C                                       1.4276362
   214   6 C      218   7 N                                       1.3764088
   217   6 C      218   7 N                                       1.3681704
   183   6 C      219   1 H                                       1.0780140
   184   6 C      220   1 H                                       1.0777894
   189   6 C      221   1 H                                       1.0843141
   190   6 C      222   1 H                                       1.0830193
   192   8 O      223   1 H                                       0.9668441
   193   6 C      224   1 H                                       1.0847851
   194   6 C      225   1 H                                       1.0843791
   196   6 C      226   1 H                                       1.0777599
   197   6 C      227   1 H                                       1.0777996
   202   6 C      228   1 H                                       1.0778942
   203   6 C      229   1 H                                       1.0777652
   208   6 C      230   1 H                                       1.0843448
   209   6 C      231   1 H                                       1.0847379
   211   8 O      232   1 H                                       0.9666532
   212   6 C      233   1 H                                       1.0829857
   213   6 C      234   1 H                                       1.0842731
   215   6 C      235   1 H                                       1.0777833
   216   6 C      236   1 H                                       1.0780077

 * 5 distinct bonds (by element types)

   Z      Z             #   av. dist./Å        max./Å        min./Å
   1 H    6 C          66     1.0810944     1.0847851     1.0777151
   6 C    6 C         131     1.3922751     1.4337595     1.2158436
   6 C    7 N          32     1.3724288     1.3766726     1.3678994
   1 H    8 O           8     0.9666672     0.9668441     0.9665978
   6 C    8 O           8     1.3579088     1.3583002     1.3575539


optimized geometry written to: xtbopt.xyz


           -------------------------------------------------
          | TOTAL ENERGY             -428.326445732646 Eh   |
          | GRADIENT NORM               0.000886860420 Eh/α |
          | HOMO-LUMO GAP               0.944014659705 eV   |
           -------------------------------------------------

------------------------------------------------------------------------
 * finished run on 2022/07/30 at 05:57:23.267     
------------------------------------------------------------------------
 total:
 * wall-time:     0 d,  0 h,  3 min, 55.201 sec
 *  cpu-time:     0 d,  0 h,  3 min, 54.159 sec
 * ratio c/w:     0.996 speedup
 SCF:
 * wall-time:     0 d,  0 h,  0 min, 14.165 sec
 *  cpu-time:     0 d,  0 h,  0 min, 14.096 sec
 * ratio c/w:     0.995 speedup
 ANC optimizer:
 * wall-time:     0 d,  0 h,  3 min, 40.741 sec
 *  cpu-time:     0 d,  0 h,  3 min, 39.773 sec
 * ratio c/w:     0.996 speedup

