      -----------------------------------------------------------      
     |                   =====================                   |     
     |                           x T B                           |     
     |                   =====================                   |     
     |                         S. Grimme                         |     
     |          Mulliken Center for Theoretical Chemistry        |     
     |                    University of Bonn                     |     
      -----------------------------------------------------------      

   * xtb version 6.5.1 (b24c23e) compiled by 'conda@728c89f4b128' on 2022-07-12

   xtb is free software: you can redistribute it and/or modify it under
   the terms of the GNU Lesser General Public License as published by
   the Free Software Foundation, either version 3 of the License, or
   (at your option) any later version.
   
   xtb is distributed in the hope that it will be useful,
   but WITHOUT ANY WARRANTY; without even the implied warranty of
   MERCHANTABILITY or FITNESS FOR A PARTICULAR PURPOSE.  See the
   GNU Lesser General Public License for more details.
   
   Cite this work as:
   * C. Bannwarth, E. Caldeweyher, S. Ehlert, A. Hansen, P. Pracht,
     J. Seibert, S. Spicher, S. Grimme, WIREs Comput. Mol. Sci., 2020, 11,
     e01493. DOI: 10.1002/wcms.1493
   
   for GFN2-xTB:
   * C. Bannwarth, S. Ehlert and S. Grimme., J. Chem. Theory Comput., 2019,
     15, 1652-1671. DOI: 10.1021/acs.jctc.8b01176
   for GFN1-xTB:
   * S. Grimme, C. Bannwarth, P. Shushkov, J. Chem. Theory Comput., 2017,
     13, 1989-2009. DOI: 10.1021/acs.jctc.7b00118
   for GFN0-xTB:
   * P. Pracht, E. Caldeweyher, S. Ehlert, S. Grimme, ChemRxiv, 2019, preprint.
     DOI: 10.26434/chemrxiv.8326202.v1
   for GFN-FF:
   * S. Spicher and S. Grimme, Angew. Chem. Int. Ed., 2020, 59, 15665-15673.
     DOI: 10.1002/anie.202004239
   
   for ALPB and GBSA implicit solvation:
   * S. Ehlert, M. Stahn, S. Spicher, S. Grimme, J. Chem. Theory Comput.,
     2021, 17, 4250-4261. DOI: 10.1021/acs.jctc.1c00471
   
   for DFT-D4:
   * E. Caldeweyher, C. Bannwarth and S. Grimme, J. Chem. Phys., 2017,
     147, 034112. DOI: 10.1063/1.4993215
   * E. Caldeweyher, S. Ehlert, A. Hansen, H. Neugebauer, S. Spicher,
     C. Bannwarth and S. Grimme, J. Chem. Phys., 2019, 150, 154122.
     DOI: 10.1063/1.5090222
   * E. Caldeweyher, J.-M. Mewes, S. Ehlert and S. Grimme, Phys. Chem. Chem. Phys.
     2020, 22, 8499-8512. DOI: 10.1039/D0CP00502A
   
   for sTDA-xTB:
   * S. Grimme and C. Bannwarth, J. Chem. Phys., 2016, 145, 054103.
     DOI: 10.1063/1.4959605
   
   in the mass-spec context:
   * V. Asgeirsson, C. Bauer and S. Grimme, Chem. Sci., 2017, 8, 4879.
     DOI: 10.1039/c7sc00601b
   * J. Koopman and S. Grimme, ACS Omega 2019, 4, 12, 15120-15133.
     DOI: 10.1021/acsomega.9b02011
   
   for metadynamics refer to:
   * S. Grimme, J. Chem. Theory Comput., 2019, 155, 2847-2862
     DOI: 10.1021/acs.jctc.9b00143
   
   for SPH calculations refer to:
   * S. Spicher and S. Grimme, J. Chem. Theory Comput., 2021, 17, 1701-1714
     DOI: 10.1021/acs.jctc.0c01306
   
   with help from (in alphabetical order)
   P. Atkinson, C. Bannwarth, F. Bohle, G. Brandenburg, E. Caldeweyher
   M. Checinski, S. Dohm, S. Ehlert, S. Ehrlich, I. Gerasimov, C. Hölzer
   A. Katbashev, J. Koopman, C. Lavigne, S. Lehtola, F. März, M. Müller,
   F. Musil, H. Neugebauer, J. Pisarek, C. Plett, P. Pracht, F. Pultar,
   J. Seibert, P. Shushkov, S. Spicher, M. Stahn, M. Steiner, T. Strunk,
   J. Stückrath, T. Rose, and J. Unsleber
   
 * started run on 2022/07/30 at 05:57:23.278     

           -------------------------------------------------
          |                Calculation Setup                |
           -------------------------------------------------

          program call               : xtb xtbopt.xyz --gfn 1 --vipea
          hostname                   : cx3-15-15.cx3.hpc.ic.ac.uk
          coordinate file            : xtbopt.xyz
          omp threads                :                     1

   ID    Z sym.   atoms
    1   28 Ni     1, 59, 123, 180
    2    6 C      2-6, 8-12, 14-18, 20-25, 27-31, 33-38, 60-64, 66-70, 72-76,
                  78-83, 85-89, 91-96, 117-122, 124-128, 130-134, 136-140,
                  142-147, 149-153, 155-160, 181-185, 187-191, 193-197,
                  199-204, 206-210, 212-217
    3    7 N      7, 19, 26, 39, 65, 77, 84, 97, 129, 141, 148, 161, 186,
                  198, 205, 218
    4    8 O      13, 32, 71, 90, 135, 154, 192, 211
    5    1 H      40-58, 98-116, 162-179, 219-236

           -------------------------------------------------
          |                 I P E A - x T B                 |
           -------------------------------------------------

        Reference                      10.1039/c7sc00601b
      * Hamiltonian:
        H0-scaling (s, p, d)           2.150000    2.300000    2.000000
        zeta-weighting                 0.000000
      * Dispersion:
        s8                             2.400000
        a1                             0.630000
        a2                             5.000000
        s9                             0.000000
      * Repulsion:
        kExp                           1.500000
        rExp                           1.000000
      * Coulomb:
        alpha                          1.000000
        third order                    atomic
        anisotropic                    false
      * Halogen bond correction:
        rad-scale                      1.300000
        damping                        0.440000


          ...................................................
          :                      SETUP                      :
          :.................................................:
          :  # basis functions                 978          :
          :  # atomic orbitals                 974          :
          :  # shells                          634          :
          :  # electrons                       778          :
          :  # halogen bonds                     0          :
          :  max. iterations                   250          :
          :  Hamiltonian                  GFN1-xTB          :
          :  restarted?                      false          :
          :  GBSA solvation                  false          :
          :  PC potential                    false          :
          :  electronic temp.          300.0000000     K    :
          :  accuracy                    1.0000000          :
          :  -> integral cutoff          0.2500000E+02      :
          :  -> integral neglect         0.1000000E-07      :
          :  -> SCF convergence          0.1000000E-05 Eh   :
          :  -> wf. convergence          0.2000000E-04 e    :
          :  Broyden damping             0.4000000          :
          ...................................................

 iter      E             dE          RMSdq      gap      omega  full diag
   1   -485.4388701 -0.485439E+03  0.103E+01    0.96       0.0  T
   2   -486.1838993 -0.745029E+00  0.637E+00    0.96       1.0  T
   3   -479.3344695  0.684943E+01  0.462E+00    0.73       1.0  T
   4   -487.1956718 -0.786120E+01  0.101E+00    1.50       1.0  T
   5   -487.7299216 -0.534250E+00  0.237E-01    1.22       1.0  T
   6   -487.7586957 -0.287742E-01  0.820E-02    1.27       1.0  T
   7   -487.7613352 -0.263945E-02  0.419E-02    1.26       1.0  T
   8   -487.7621166 -0.781424E-03  0.195E-02    1.26       1.0  T
   9   -487.7621729 -0.562339E-04  0.116E-02    1.26       1.0  T
  10   -487.7622151 -0.422229E-04  0.435E-03    1.26       1.5  T
  11   -487.7622210 -0.591204E-05  0.164E-03    1.26       4.0  T
  12   -487.7622222 -0.122870E-05  0.444E-04    1.26      14.7  T
  13   -487.7622223 -0.621915E-07  0.169E-04    1.26      38.6  T
  14   -487.7622223 -0.596464E-08  0.109E-04    1.26      59.9  T

   *** convergence criteria satisfied after 14 iterations ***

         #    Occupation            Energy/Eh            Energy/eV
      -------------------------------------------------------------
         1        2.0000           -1.0411012             -28.3298
       ...           ...                  ...                  ...
       383        2.0000           -0.3763310             -10.2405
       384        2.0000           -0.3762305             -10.2378
       385        2.0000           -0.3757798             -10.2255
       386        2.0000           -0.3755682             -10.2197
       387        2.0000           -0.3754728             -10.2171
       388        2.0000           -0.3730150             -10.1503
       389        2.0000           -0.3652515              -9.9390 (HOMO)
       390                         -0.3189617              -8.6794 (LUMO)
       391                         -0.3090372              -8.4093
       392                         -0.2997104              -8.1555
       393                         -0.2992734              -8.1436
       394                         -0.2991310              -8.1398
       ...                                ...                  ...
       974                        552.1847567           15025.7120
      -------------------------------------------------------------
                  HL-Gap            0.0462898 Eh            1.2596 eV
             Fermi-level           -0.3421066 Eh           -9.3092 eV

 SCC (total)                   0 d,  0 h,  0 min,  7.271 sec
 SCC setup                      ...        0 min,  0.007 sec (  0.098%)
 Dispersion                     ...        0 min,  0.011 sec (  0.149%)
 classical contributions        ...        0 min,  0.004 sec (  0.051%)
 integral evaluation            ...        0 min,  0.748 sec ( 10.289%)
 iterations                     ...        0 min,  4.795 sec ( 65.952%)
 molecular gradient             ...        0 min,  1.635 sec ( 22.493%)
 printout                       ...        0 min,  0.070 sec (  0.968%)

         :::::::::::::::::::::::::::::::::::::::::::::::::::::
         ::                     SUMMARY                     ::
         :::::::::::::::::::::::::::::::::::::::::::::::::::::
         :: total energy            -478.835962214952 Eh    ::
         :: gradient norm              0.081729408315 Eh/a0 ::
         :: HOMO-LUMO gap              1.259609652660 eV    ::
         ::.................................................::
         :: SCC energy              -487.762222283306 Eh    ::
         :: -> electrostatic           0.335713807185 Eh    ::
         :: repulsion energy           9.149171147728 Eh    ::
         :: dispersion energy         -0.222911079374 Eh    ::
         :: halogen bond corr.         0.000000000000 Eh    ::
         :: add. restraining           0.000000000000 Eh    ::
         :: total charge               0.000000000000 e     ::
         :::::::::::::::::::::::::::::::::::::::::::::::::::::

           ------------------------------------------------- 
          |        vertical delta SCC IP calculation        |
           ------------------------------------------------- 
   1   -487.3631940 -0.487363E+03  0.878E-02    1.26       0.0  T
   2   -487.3482915  0.149025E-01  0.195E-01    1.20       1.0  T
   3   -487.3684962 -0.202047E-01  0.669E-02    1.22       1.0  T
   4   -487.3687088 -0.212559E-03  0.530E-02    1.23       1.0  T
   5   -487.3693749 -0.666115E-03  0.442E-02    1.23       1.0  T
   6   -487.3712485 -0.187360E-02  0.273E-02    1.23       1.0  T
   7   -487.3714717 -0.223265E-03  0.155E-02    1.23       1.0  T
   8   -487.3714820 -0.102344E-04  0.115E-02    1.23       1.0  T
   9   -487.3715585 -0.765629E-04  0.715E-03    1.23       1.0  T
  10   -487.3715660 -0.748822E-05  0.516E-03    1.23       1.3  T
  11   -487.3715702 -0.415133E-05  0.340E-03    1.23       1.9  T
  12   -487.3715731 -0.295532E-05  0.190E-03    1.23       3.4  T
  13   -487.3715741 -0.957846E-06  0.868E-04    1.23       7.5  T
  14   -487.3715743 -0.168220E-06  0.334E-04    1.23      19.5  T
  15   -487.3715743 -0.475587E-07  0.823E-05    1.23      79.1  T
  16   -487.3715743 -0.213083E-08  0.446E-05    1.23     145.9  T
     SCC iter.                  ...        0 min,  5.472 sec
     gradient                   ...        0 min,  1.633 sec
------------------------------------------------------------------------
empirical IP shift (eV):    4.8455
delta SCC IP (eV):    5.7846
------------------------------------------------------------------------
           ------------------------------------------------- 
          |        vertical delta SCC EA calculation        |
           ------------------------------------------------- 
   1   -488.0259440 -0.488026E+03  0.155E-01    0.32       0.0  T
   2   -488.0401850 -0.142410E-01  0.143E-01    0.13       1.0  T
   3   -488.0524186 -0.122336E-01  0.762E-02    0.21       1.0  T
   4   -488.0523308  0.878033E-04  0.602E-02    0.19       1.0  T
   5   -488.0493914  0.293944E-02  0.611E-02    0.20       1.0  T
   6   -488.0523424 -0.295107E-02  0.396E-02    0.20       1.0  T
   7   -488.0542042 -0.186180E-02  0.109E-02    0.19       1.0  T
   8   -488.0542727 -0.684878E-04  0.451E-03    0.19       1.4  T
   9   -488.0542785 -0.581106E-05  0.215E-03    0.18       3.0  T
  10   -488.0542801 -0.156075E-05  0.107E-03    0.18       6.1  T
  11   -488.0542803 -0.212386E-06  0.626E-04    0.19      10.4  T
  12   -488.0542805 -0.165601E-06  0.276E-04    0.19      23.6  T
  13   -488.0542805 -0.311132E-07  0.942E-05    0.19      69.1  T
  14   -488.0542805 -0.259479E-08  0.552E-05    0.19     117.8  T
     SCC iter.                  ...        0 min,  4.790 sec
     gradient                   ...        0 min,  1.636 sec
------------------------------------------------------------------------
empirical EA shift (eV):    4.8455
delta SCC EA (eV):    3.1018
------------------------------------------------------------------------
           -------------------------------------------------
          |                Property Printout                |
           -------------------------------------------------

    * Orbital Energies and Occupations

         #    Occupation            Energy/Eh            Energy/eV
      -------------------------------------------------------------
         1        2.0000           -0.9927584             -27.0143
       ...           ...                  ...                  ...
       378        2.0000           -0.3295039              -8.9663
       379        2.0000           -0.3294474              -8.9647
       380        2.0000           -0.3244508              -8.8288
       381        2.0000           -0.3243720              -8.8266
       382        2.0000           -0.3232339              -8.7956
       383        2.0000           -0.3223811              -8.7724
       384        2.0000           -0.3222197              -8.7680
       385        2.0000           -0.3217596              -8.7555
       386        2.0000           -0.3216790              -8.7533
       387        2.0000           -0.3216090              -8.7514
       388        2.0000           -0.3215208              -8.7490
       389        2.0000           -0.3124810              -8.5030
       390        0.9728           -0.2657757              -7.2321 (HOMO)
       391        0.0271           -0.2589745              -7.0471 (LUMO)
       392        0.0001           -0.2533354              -6.8936
       393        0.0001           -0.2531769              -6.8893
       394        0.0000           -0.2481131              -6.7515
       395                         -0.2459756              -6.6933
       396                         -0.2457856              -6.6882
       397                         -0.2365706              -6.4374
       398                         -0.2125746              -5.7844
       399                         -0.2115540              -5.7567
       400                         -0.2104344              -5.7262
       401                         -0.2069647              -5.6318
       ...                                ...                  ...
       974                        552.2380075           15027.1611
      -------------------------------------------------------------
                  HL-Gap            0.0068012 Eh            0.1851 eV
             Fermi-level           -0.2757530 Eh           -7.5036 eV

  Mulliken/CM5 charges         n(s)   n(p)   n(d)
     1Ni    0.26708  0.64068   0.574  0.788  8.371
     2C    -0.02639 -0.06774   1.080  2.947  0.000
     3C     0.05783  0.11851   1.111  2.831  0.000
     4C    -0.04066 -0.08715   1.084  2.956  0.000
     5C    -0.03699 -0.08316   1.081  2.956  0.000
     6C     0.05734  0.12118   1.105  2.838  0.000
     7N    -0.21211 -0.46428   1.315  3.897  0.000
     8C     0.00863  0.01392   1.086  2.905  0.000
     9C    -0.00223 -0.01106   1.074  2.928  0.000
    10C    -0.02387 -0.07718   1.078  2.946  0.000
    11C    -0.04288 -0.09491   1.066  2.977  0.000
    12C     0.08614  0.09815   1.123  2.790  0.000
    13O    -0.29890 -0.49847   1.631  4.668  0.000
    14C    -0.03514 -0.08582   1.081  2.954  0.000
    15C    -0.02215 -0.07521   1.080  2.942  0.000
    16C     0.05737  0.12085   1.102  2.840  0.000
    17C    -0.03611 -0.08216   1.077  2.960  0.000
    18C    -0.03491 -0.08066   1.080  2.955  0.000
    19N    -0.20792 -0.46028   1.316  3.892  0.000
    20C     0.06249  0.12738   1.115  2.823  0.000
    21C     0.01619  0.02304   1.078  2.905  0.000
    22C     0.06259  0.12765   1.115  2.822  0.000
    23C    -0.03512 -0.08088   1.080  2.955  0.000
    24C    -0.03621 -0.08217   1.077  2.959  0.000
    25C     0.05735  0.12071   1.102  2.840  0.000
    26N    -0.20807 -0.46012   1.316  3.892  0.000
    27C     0.00908  0.01437   1.086  2.904  0.000
    28C    -0.00194 -0.01083   1.074  2.928  0.000
    29C    -0.02281 -0.07588   1.080  2.943  0.000
    30C    -0.03543 -0.08611   1.081  2.954  0.000
    31C     0.08577  0.09775   1.123  2.791  0.000
    32O    -0.29947 -0.49903   1.631  4.668  0.000
    33C    -0.04267 -0.09469   1.066  2.976  0.000
    34C    -0.02399 -0.07726   1.077  2.947  0.000
    35C     0.05757  0.12161   1.104  2.839  0.000
    36C    -0.03720 -0.08323   1.081  2.957  0.000
    37C    -0.04061 -0.08712   1.086  2.955  0.000
    38C     0.05770  0.11822   1.111  2.831  0.000
    39N    -0.21200 -0.46417   1.315  3.897  0.000
    40H     0.02021  0.07921   0.980  0.000  0.000
    41H     0.02575  0.08237   0.974  0.000  0.000
    42H     0.01819  0.07715   0.982  0.000  0.000
    43H     0.02103  0.07898   0.979  0.000  0.000
    44H     0.03445  0.09270   0.966  0.000  0.000
    45H     0.22506  0.39734   0.775  0.000  0.000
    46H     0.03698  0.09601   0.963  0.000  0.000
    47H     0.02217  0.08010   0.978  0.000  0.000
    48H     0.02000  0.07897   0.980  0.000  0.000
    49H     0.01960  0.07806   0.980  0.000  0.000
    50H     0.01919  0.07764   0.981  0.000  0.000
    51H     0.02038  0.07935   0.980  0.000  0.000
    52H     0.02180  0.07949   0.978  0.000  0.000
    53H     0.03633  0.09537   0.964  0.000  0.000
    54H     0.22498  0.39728   0.775  0.000  0.000
    55H     0.03453  0.09279   0.965  0.000  0.000
    56H     0.02090  0.07865   0.979  0.000  0.000
    57H     0.01872  0.07768   0.981  0.000  0.000
    58H     0.02565  0.08227   0.974  0.000  0.000
    59Ni    0.26672  0.63607   0.574  0.787  8.372
    60C    -0.02609 -0.06748   1.080  2.946  0.000
    61C     0.05797  0.11864   1.111  2.831  0.000
    62C    -0.04051 -0.08703   1.085  2.956  0.000
    63C    -0.03694 -0.08308   1.081  2.956  0.000
    64C     0.05765  0.12158   1.104  2.838  0.000
    65N    -0.21210 -0.46314   1.315  3.897  0.000
    66C     0.00884  0.01409   1.086  2.905  0.000
    67C    -0.00217 -0.01107   1.074  2.928  0.000
    68C    -0.02388 -0.07718   1.078  2.946  0.000
    69C    -0.04277 -0.09480   1.066  2.976  0.000
    70C     0.08618  0.09818   1.123  2.791  0.000
    71O    -0.29889 -0.49847   1.631  4.668  0.000
    72C    -0.03507 -0.08575   1.081  2.954  0.000
    73C    -0.02228 -0.07536   1.080  2.942  0.000
    74C     0.05766  0.12109   1.102  2.840  0.000
    75C    -0.03586 -0.08192   1.076  2.960  0.000
    76C    -0.03469 -0.08055   1.080  2.955  0.000
    77N    -0.20814 -0.45925   1.317  3.892  0.000
    78C     0.06254  0.12746   1.115  2.823  0.000
    79C     0.01638  0.02317   1.079  2.904  0.000
    80C     0.06276  0.12777   1.115  2.823  0.000
    81C    -0.03457 -0.08040   1.080  2.955  0.000
    82C    -0.03577 -0.08177   1.076  2.959  0.000
    83C     0.05760  0.12099   1.102  2.840  0.000
    84N    -0.20813 -0.45920   1.317  3.891  0.000
    85C     0.00910  0.01435   1.087  2.904  0.000
    86C    -0.00210 -0.01103   1.074  2.928  0.000
    87C    -0.02275 -0.07582   1.080  2.943  0.000
    88C    -0.03533 -0.08601   1.081  2.954  0.000
    89C     0.08595  0.09794   1.123  2.791  0.000
    90O    -0.29924 -0.49882   1.631  4.668  0.000
    91C    -0.04265 -0.09468   1.066  2.976  0.000
    92C    -0.02398 -0.07728   1.077  2.947  0.000
    93C     0.05778  0.12179   1.104  2.838  0.000
    94C    -0.03702 -0.08309   1.081  2.956  0.000
    95C    -0.04047 -0.08700   1.085  2.955  0.000
    96C     0.05792  0.11852   1.111  2.831  0.000
    97N    -0.21203 -0.46317   1.315  3.897  0.000
    98H     0.02025  0.07928   0.980  0.000  0.000
    99H     0.02584  0.08247   0.974  0.000  0.000
   100H     0.01847  0.07746   0.982  0.000  0.000
   101H     0.02089  0.07879   0.979  0.000  0.000
   102H     0.03446  0.09271   0.966  0.000  0.000
   103H     0.22512  0.39742   0.775  0.000  0.000
   104H     0.03711  0.09615   0.963  0.000  0.000
   105H     0.02240  0.08023   0.978  0.000  0.000
   106H     0.02074  0.07977   0.979  0.000  0.000
   107H     0.01901  0.07751   0.981  0.000  0.000
   108H     0.01985  0.07834   0.980  0.000  0.000
   109H     0.02155  0.08055   0.978  0.000  0.000
   110H     0.02163  0.07935   0.978  0.000  0.000
   111H     0.03660  0.09563   0.963  0.000  0.000
   112H     0.22509  0.39739   0.775  0.000  0.000
   113H     0.03462  0.09288   0.965  0.000  0.000
   114H     0.02102  0.07879   0.979  0.000  0.000
   115H     0.01887  0.07789   0.981  0.000  0.000
   116H     0.02584  0.08248   0.974  0.000  0.000
   117C    -0.03081 -0.03320   1.068  2.963  0.000
   118C    -0.02628 -0.02863   1.073  2.953  0.000
   119C    -0.02898 -0.03128   1.070  2.959  0.000
   120C    -0.02903 -0.03133   1.070  2.959  0.000
   121C    -0.02593 -0.02828   1.073  2.952  0.000
   122C    -0.03033 -0.03276   1.069  2.962  0.000
   123Ni    0.26522  0.63924   0.574  0.788  8.373
   124C     0.01090  0.01783   1.074  2.915  0.000
   125C     0.06170  0.12668   1.115  2.823  0.000
   126C    -0.03778 -0.08359   1.078  2.960  0.000
   127C    -0.03658 -0.08273   1.077  2.959  0.000
   128C     0.05541  0.11873   1.101  2.844  0.000
   129N    -0.20971 -0.46191   1.316  3.894  0.000
   130C     0.01040  0.01570   1.087  2.902  0.000
   131C    -0.00159 -0.01037   1.074  2.928  0.000
   132C    -0.02161 -0.07476   1.079  2.942  0.000
   133C    -0.03536 -0.08605   1.081  2.955  0.000
   134C     0.08613  0.09815   1.123  2.791  0.000
   135O    -0.29925 -0.49883   1.631  4.668  0.000
   136C    -0.04253 -0.09454   1.066  2.976  0.000
   137C    -0.02306 -0.07626   1.078  2.945  0.000
   138C     0.05567  0.11891   1.101  2.843  0.000
   139C    -0.03630 -0.08247   1.077  2.959  0.000
   140C    -0.03654 -0.08234   1.078  2.958  0.000
   141N    -0.20896 -0.46141   1.316  3.893  0.000
   142C     0.06224  0.12728   1.115  2.823  0.000
   143C     0.01304  0.01997   1.076  2.911  0.000
   144C     0.06218  0.12722   1.115  2.823  0.000
   145C    -0.03656 -0.08235   1.078  2.958  0.000
   146C    -0.03634 -0.08248   1.077  2.959  0.000
   147C     0.05573  0.11904   1.101  2.843  0.000
   148N    -0.20907 -0.46113   1.316  3.893  0.000
   149C     0.01038  0.01568   1.088  2.902  0.000
   150C    -0.00157 -0.01036   1.074  2.927  0.000
   151C    -0.02296 -0.07616   1.078  2.945  0.000
   152C    -0.04253 -0.09454   1.066  2.976  0.000
   153C     0.08603  0.09805   1.123  2.791  0.000
   154O    -0.29942 -0.49899   1.631  4.668  0.000
   155C    -0.03543 -0.08612   1.081  2.955  0.000
   156C    -0.02173 -0.07486   1.079  2.942  0.000
   157C     0.05535  0.11863   1.101  2.844  0.000
   158C    -0.03664 -0.08279   1.078  2.959  0.000
   159C    -0.03782 -0.08361   1.078  2.960  0.000
   160C     0.06178  0.12680   1.115  2.823  0.000
   161N    -0.20971 -0.46193   1.316  3.894  0.000
   162H     0.01579  0.07411   0.984  0.000  0.000
   163H     0.01748  0.07640   0.983  0.000  0.000
   164H     0.02240  0.08044   0.978  0.000  0.000
   165H     0.03617  0.09521   0.964  0.000  0.000
   166H     0.22471  0.39698   0.775  0.000  0.000
   167H     0.03446  0.09272   0.966  0.000  0.000
   168H     0.02123  0.07923   0.979  0.000  0.000
   169H     0.01747  0.07638   0.983  0.000  0.000
   170H     0.01648  0.07486   0.984  0.000  0.000
   171H     0.01657  0.07493   0.983  0.000  0.000
   172H     0.01758  0.07649   0.982  0.000  0.000
   173H     0.02159  0.07960   0.978  0.000  0.000
   174H     0.03456  0.09281   0.965  0.000  0.000
   175H     0.22463  0.39690   0.775  0.000  0.000
   176H     0.03604  0.09507   0.964  0.000  0.000
   177H     0.02218  0.08020   0.978  0.000  0.000
   178H     0.01712  0.07603   0.983  0.000  0.000
   179H     0.01489  0.07321   0.985  0.000  0.000
   180Ni    0.26572  0.64124   0.574  0.788  8.372
   181C     0.01306  0.02001   1.076  2.911  0.000
   182C     0.06225  0.12734   1.115  2.823  0.000
   183C    -0.03651 -0.08229   1.078  2.958  0.000
   184C    -0.03627 -0.08242   1.077  2.959  0.000
   185C     0.05569  0.11892   1.101  2.843  0.000
   186N    -0.20893 -0.46155   1.316  3.893  0.000
   187C     0.01057  0.01586   1.088  2.902  0.000
   188C    -0.00164 -0.01043   1.074  2.928  0.000
   189C    -0.02194 -0.07504   1.079  2.942  0.000
   190C    -0.03550 -0.08618   1.081  2.955  0.000
   191C     0.08627  0.09832   1.123  2.790  0.000
   192O    -0.29917 -0.49869   1.631  4.668  0.000
   193C    -0.04219 -0.09420   1.066  2.976  0.000
   194C    -0.02276 -0.07595   1.078  2.945  0.000
   195C     0.05557  0.11891   1.101  2.843  0.000
   196C    -0.03629 -0.08242   1.078  2.959  0.000
   197C    -0.03755 -0.08336   1.077  2.960  0.000
   198N    -0.20942 -0.46216   1.316  3.894  0.000
   199C     0.06183  0.12674   1.115  2.823  0.000
   200C     0.01157  0.01852   1.074  2.914  0.000
   201C     0.06190  0.12689   1.115  2.823  0.000
   202C    -0.03761 -0.08340   1.078  2.960  0.000
   203C    -0.03635 -0.08250   1.078  2.959  0.000
   204C     0.05549  0.11880   1.101  2.843  0.000
   205N    -0.20956 -0.46196   1.316  3.894  0.000
   206C     0.01049  0.01579   1.088  2.902  0.000
   207C    -0.00164 -0.01042   1.074  2.928  0.000
   208C    -0.02276 -0.07596   1.078  2.944  0.000
   209C    -0.04221 -0.09423   1.066  2.976  0.000
   210C     0.08617  0.09820   1.123  2.790  0.000
   211O    -0.29936 -0.49895   1.631  4.668  0.000
   212C    -0.03562 -0.08631   1.081  2.955  0.000
   213C    -0.02193 -0.07507   1.079  2.943  0.000
   214C     0.05572  0.11900   1.101  2.843  0.000
   215C    -0.03635 -0.08250   1.077  2.959  0.000
   216C    -0.03658 -0.08237   1.078  2.958  0.000
   217C     0.06213  0.12716   1.115  2.823  0.000
   218N    -0.20895 -0.46155   1.316  3.893  0.000
   219H     0.01666  0.07502   0.983  0.000  0.000
   220H     0.01763  0.07654   0.982  0.000  0.000
   221H     0.02130  0.07930   0.979  0.000  0.000
   222H     0.03569  0.09473   0.964  0.000  0.000
   223H     0.22494  0.39713   0.775  0.000  0.000
   224H     0.03504  0.09328   0.965  0.000  0.000
   225H     0.02206  0.08003   0.978  0.000  0.000
   226H     0.01810  0.07700   0.982  0.000  0.000
   227H     0.01675  0.07517   0.983  0.000  0.000
   228H     0.01629  0.07469   0.984  0.000  0.000
   229H     0.01786  0.07677   0.982  0.000  0.000
   230H     0.02205  0.08004   0.978  0.000  0.000
   231H     0.03505  0.09330   0.965  0.000  0.000
   232H     0.22490  0.39717   0.775  0.000  0.000
   233H     0.03553  0.09457   0.964  0.000  0.000
   234H     0.02122  0.07926   0.979  0.000  0.000
   235H     0.01760  0.07652   0.982  0.000  0.000
   236H     0.01663  0.07499   0.983  0.000  0.000

Wiberg/Mayer (AO) data.
largest (>0.10) Wiberg bond orders for each atom

 ---------------------------------------------------------------------------
     #   Z sym  total        # sym  WBO       # sym  WBO       # sym  WBO
 ---------------------------------------------------------------------------
     1  28 Ni   3.337 --    19 N    0.716    26 N    0.716    39 N    0.715
                             7 N    0.714
     2   6 C    3.801 --    38 C    1.391     3 C    1.387    40 H    0.997
     3   6 C    3.947 --     2 C    1.387     7 N    1.257     4 C    1.203
     4   6 C    3.844 --     5 C    1.638     3 C    1.203    41 H    0.994
     5   6 C    3.834 --     4 C    1.638     6 C    1.210    42 H    1.000
     6   6 C    3.916 --     8 C    1.372     7 N    1.245     5 C    1.210
     7   7 N    3.007 --     3 C    1.257     6 C    1.245     1 Ni   0.714
     8   6 C    3.837 --     6 C    1.372    16 C    1.362     9 C    1.049
     9   6 C    3.878 --    10 C    1.421    15 C    1.411     8 C    1.049
    10   6 C    3.869 --    11 C    1.445     9 C    1.421    43 H    0.990
    11   6 C    3.872 --    10 C    1.445    12 C    1.396    44 H    0.982
    12   6 C    3.969 --    11 C    1.396    14 C    1.385    13 O    1.123
    13   8 O    2.169 --    12 C    1.123    45 H    0.966
    14   6 C    3.905 --    15 C    1.457    12 C    1.385    46 H    0.983
    15   6 C    3.875 --    14 C    1.457     9 C    1.411    47 H    0.990
    16   6 C    3.903 --     8 C    1.362    19 N    1.244    17 C    1.221
    17   6 C    3.822 --    18 C    1.619    16 C    1.221    48 H    0.999
    18   6 C    3.820 --    17 C    1.619    20 C    1.229    49 H    0.999
    19   7 N    3.021 --    20 C    1.275    16 C    1.244     1 Ni   0.716
    20   6 C    3.922 --    21 C    1.304    19 N    1.275    18 C    1.229
    21   6 C    3.825 --    20 C    1.304    22 C    1.303   117 C    1.204
    22   6 C    3.922 --    21 C    1.303    26 N    1.278    23 C    1.230
    23   6 C    3.823 --    24 C    1.621    22 C    1.230    50 H    0.999
    24   6 C    3.823 --    23 C    1.621    25 C    1.219    51 H    0.999
    25   6 C    3.902 --    27 C    1.368    26 N    1.240    24 C    1.219
    26   7 N    3.023 --    22 C    1.278    25 C    1.240     1 Ni   0.716
    27   6 C    3.836 --    35 C    1.371    25 C    1.368    28 C    1.041
    28   6 C    3.878 --    34 C    1.424    29 C    1.416    27 C    1.041
    29   6 C    3.876 --    30 C    1.454    28 C    1.416    52 H    0.990
    30   6 C    3.906 --    29 C    1.454    31 C    1.387    53 H    0.983
    31   6 C    3.970 --    33 C    1.397    30 C    1.387    32 O    1.122
    32   8 O    2.168 --    31 C    1.122    54 H    0.966
    33   6 C    3.873 --    34 C    1.444    31 C    1.397    55 H    0.982
    34   6 C    3.871 --    33 C    1.444    28 C    1.424    56 H    0.990
    35   6 C    3.915 --    27 C    1.371    39 N    1.247    36 C    1.210
    36   6 C    3.834 --    37 C    1.640    35 C    1.210    57 H    1.000
    37   6 C    3.845 --    36 C    1.640    38 C    1.202    58 H    0.994
    38   6 C    3.947 --     2 C    1.391    39 N    1.254    37 C    1.202
    39   7 N    3.008 --    38 C    1.254    35 C    1.247     1 Ni   0.715
    40   1 H    1.040 --     2 C    0.997
    41   1 H    1.027 --     4 C    0.994
    42   1 H    1.046 --     5 C    1.000
    43   1 H    1.053 --    10 C    0.990
    44   1 H    1.014 --    11 C    0.982
    45   1 H    1.007 --    13 O    0.966
    46   1 H    1.025 --    14 C    0.983
    47   1 H    1.054 --    15 C    0.990
    48   1 H    1.044 --    17 C    0.999
    49   1 H    1.045 --    18 C    0.999
    50   1 H    1.045 --    23 C    0.999
    51   1 H    1.043 --    24 C    0.999
    52   1 H    1.054 --    29 C    0.990
    53   1 H    1.025 --    30 C    0.983
    54   1 H    1.007 --    32 O    0.966
    55   1 H    1.014 --    33 C    0.982
    56   1 H    1.054 --    34 C    0.990
    57   1 H    1.044 --    36 C    1.000
    58   1 H    1.027 --    37 C    0.994
    59  28 Ni   3.327 --    84 N    0.715    77 N    0.715    97 N    0.713
                            65 N    0.713
    60   6 C    3.803 --    96 C    1.390    61 C    1.388    98 H    0.997
    61   6 C    3.947 --    60 C    1.388    65 N    1.257    62 C    1.203
    62   6 C    3.844 --    63 C    1.639    61 C    1.203    99 H    0.994
    63   6 C    3.833 --    62 C    1.639    64 C    1.210   100 H    1.000
    64   6 C    3.916 --    66 C    1.372    65 N    1.247    63 C    1.210
    65   7 N    3.008 --    61 C    1.257    64 C    1.247    59 Ni   0.713
    66   6 C    3.836 --    64 C    1.372    74 C    1.364    67 C    1.047
    67   6 C    3.878 --    68 C    1.422    73 C    1.413    66 C    1.047
    68   6 C    3.870 --    69 C    1.445    67 C    1.422   101 H    0.990
    69   6 C    3.872 --    68 C    1.445    70 C    1.396   102 H    0.982
    70   6 C    3.969 --    69 C    1.396    72 C    1.386    71 O    1.123
    71   8 O    2.169 --    70 C    1.123   103 H    0.966
    72   6 C    3.905 --    73 C    1.456    70 C    1.386   104 H    0.983
    73   6 C    3.875 --    72 C    1.456    67 C    1.413   105 H    0.990
    74   6 C    3.903 --    66 C    1.364    77 N    1.244    75 C    1.221
    75   6 C    3.820 --    76 C    1.620    74 C    1.221   106 H    0.999
    76   6 C    3.822 --    75 C    1.620    78 C    1.230   107 H    0.998
    77   7 N    3.023 --    78 C    1.276    74 C    1.244    59 Ni   0.715
    78   6 C    3.923 --    79 C    1.305    77 N    1.276    76 C    1.230
    79   6 C    3.827 --    78 C    1.305    80 C    1.303   122 C    1.203
    80   6 C    3.922 --    79 C    1.303    84 N    1.277    81 C    1.229
    81   6 C    3.822 --    82 C    1.621    80 C    1.229   108 H    0.998
    82   6 C    3.822 --    81 C    1.621    83 C    1.220   109 H    0.999
    83   6 C    3.904 --    85 C    1.367    84 N    1.242    82 C    1.220
    84   7 N    3.023 --    80 C    1.277    83 C    1.242    59 Ni   0.715
    85   6 C    3.836 --    93 C    1.372    83 C    1.367    86 C    1.042
    86   6 C    3.878 --    92 C    1.424    87 C    1.415    85 C    1.042
    87   6 C    3.876 --    88 C    1.454    86 C    1.415   110 H    0.990
    88   6 C    3.906 --    87 C    1.454    89 C    1.386   111 H    0.983
    89   6 C    3.970 --    91 C    1.397    88 C    1.386    90 O    1.122
    90   8 O    2.167 --    89 C    1.122   112 H    0.966
    91   6 C    3.872 --    92 C    1.444    89 C    1.397   113 H    0.982
    92   6 C    3.870 --    91 C    1.444    86 C    1.424   114 H    0.990
    93   6 C    3.916 --    85 C    1.372    97 N    1.247    94 C    1.210
    94   6 C    3.833 --    95 C    1.639    93 C    1.210   115 H    1.000
    95   6 C    3.845 --    94 C    1.639    96 C    1.202   116 H    0.994
    96   6 C    3.947 --    60 C    1.390    97 N    1.256    95 C    1.202
    97   7 N    3.008 --    96 C    1.256    93 C    1.247    59 Ni   0.713
    98   1 H    1.041 --    60 C    0.997
    99   1 H    1.027 --    62 C    0.994
   100   1 H    1.046 --    63 C    1.000
   101   1 H    1.053 --    68 C    0.990
   102   1 H    1.014 --    69 C    0.982
   103   1 H    1.007 --    71 O    0.966
   104   1 H    1.025 --    72 C    0.983
   105   1 H    1.054 --    73 C    0.990
   106   1 H    1.043 --    75 C    0.999
   107   1 H    1.047 --    76 C    0.998
   108   1 H    1.045 --    81 C    0.998
   109   1 H    1.041 --    82 C    0.999
   110   1 H    1.054 --    87 C    0.990
   111   1 H    1.025 --    88 C    0.983
   112   1 H    1.007 --    90 O    0.966
   113   1 H    1.014 --    91 C    0.982
   114   1 H    1.052 --    92 C    0.990
   115   1 H    1.044 --    94 C    1.000
   116   1 H    1.027 --    95 C    0.994
   117   6 C    3.763 --   118 C    2.622    21 C    1.204
   118   6 C    3.767 --   117 C    2.622   124 C    1.205
   119   6 C    3.765 --   120 C    2.615   143 C    1.212
   120   6 C    3.764 --   119 C    2.615   181 C    1.212
   121   6 C    3.766 --   122 C    2.623   200 C    1.204
   122   6 C    3.765 --   121 C    2.623    79 C    1.203
   123  28 Ni   3.325 --   141 N    0.714   148 N    0.713   161 N    0.713
                           129 N    0.713
   124   6 C    3.813 --   125 C    1.299   160 C    1.299   118 C    1.205
   125   6 C    3.924 --   124 C    1.299   129 N    1.279   126 C    1.231
   126   6 C    3.817 --   127 C    1.617   125 C    1.231   162 H    0.999
   127   6 C    3.823 --   126 C    1.617   128 C    1.223   163 H    1.000
   128   6 C    3.903 --   130 C    1.367   129 N    1.238   127 C    1.223
   129   7 N    3.005 --   125 C    1.279   128 C    1.238   123 Ni   0.713
   130   6 C    3.832 --   128 C    1.367   138 C    1.366   131 C    1.053
   131   6 C    3.877 --   137 C    1.419   132 C    1.411   130 C    1.053
   132   6 C    3.871 --   133 C    1.456   131 C    1.411   164 H    0.991
   133   6 C    3.905 --   132 C    1.456   134 C    1.386   165 H    0.983
   134   6 C    3.968 --   136 C    1.395   133 C    1.386   135 O    1.123
   135   8 O    2.169 --   134 C    1.123   166 H    0.966
   136   6 C    3.873 --   137 C    1.447   134 C    1.395   167 H    0.982
   137   6 C    3.870 --   136 C    1.447   131 C    1.419   168 H    0.990
   138   6 C    3.902 --   130 C    1.366   141 N    1.238   139 C    1.224
   139   6 C    3.822 --   140 C    1.616   138 C    1.224   169 H    0.999
   140   6 C    3.817 --   139 C    1.616   142 C    1.232   170 H    0.999
   141   7 N    3.007 --   142 C    1.280   138 C    1.238   123 Ni   0.714
   142   6 C    3.922 --   143 C    1.296   141 N    1.280   140 C    1.232
   143   6 C    3.814 --   144 C    1.297   142 C    1.296   119 C    1.212
   144   6 C    3.922 --   143 C    1.297   148 N    1.279   145 C    1.232
   145   6 C    3.817 --   146 C    1.616   144 C    1.232   171 H    0.999
   146   6 C    3.822 --   145 C    1.616   147 C    1.224   172 H    1.000
   147   6 C    3.902 --   149 C    1.366   148 N    1.238   146 C    1.224
   148   7 N    3.007 --   144 C    1.279   147 C    1.238   123 Ni   0.713
   149   6 C    3.832 --   157 C    1.368   147 C    1.366   150 C    1.053
   150   6 C    3.878 --   151 C    1.420   156 C    1.411   149 C    1.053
   151   6 C    3.870 --   152 C    1.446   150 C    1.420   173 H    0.990
   152   6 C    3.873 --   151 C    1.446   153 C    1.395   174 H    0.982
   153   6 C    3.968 --   152 C    1.395   155 C    1.385   154 O    1.123
   154   8 O    2.169 --   153 C    1.123   175 H    0.966
   155   6 C    3.905 --   156 C    1.456   153 C    1.385   176 H    0.983
   156   6 C    3.872 --   155 C    1.456   150 C    1.411   177 H    0.991
   157   6 C    3.903 --   149 C    1.368   161 N    1.237   158 C    1.223
   158   6 C    3.823 --   159 C    1.617   157 C    1.223   178 H    1.000
   159   6 C    3.817 --   158 C    1.617   160 C    1.231   179 H    0.999
   160   6 C    3.924 --   124 C    1.299   161 N    1.279   159 C    1.231
   161   7 N    3.006 --   160 C    1.279   157 C    1.237   123 Ni   0.713
   162   1 H    1.047 --   126 C    0.999
   163   1 H    1.046 --   127 C    1.000
   164   1 H    1.053 --   132 C    0.991
   165   1 H    1.025 --   133 C    0.983
   166   1 H    1.008 --   135 O    0.966
   167   1 H    1.014 --   136 C    0.982
   168   1 H    1.053 --   137 C    0.990
   169   1 H    1.046 --   139 C    0.999
   170   1 H    1.047 --   140 C    0.999
   171   1 H    1.047 --   145 C    0.999
   172   1 H    1.046 --   146 C    1.000
   173   1 H    1.052 --   151 C    0.990
   174   1 H    1.014 --   152 C    0.982
   175   1 H    1.008 --   154 O    0.966
   176   1 H    1.025 --   155 C    0.983
   177   1 H    1.053 --   156 C    0.991
   178   1 H    1.047 --   158 C    1.000
   179   1 H    1.048 --   159 C    0.999
   180  28 Ni   3.329 --   198 N    0.715   218 N    0.714   186 N    0.714
                           205 N    0.714
   181   6 C    3.815 --   217 C    1.297   182 C    1.296   120 C    1.212
   182   6 C    3.923 --   181 C    1.296   186 N    1.280   183 C    1.232
   183   6 C    3.817 --   184 C    1.616   182 C    1.232   219 H    0.999
   184   6 C    3.822 --   183 C    1.616   185 C    1.223   220 H    1.000
   185   6 C    3.902 --   187 C    1.367   186 N    1.237   184 C    1.223
   186   7 N    3.008 --   182 C    1.280   185 C    1.237   180 Ni   0.714
   187   6 C    3.832 --   185 C    1.367   195 C    1.367   188 C    1.052
   188   6 C    3.877 --   194 C    1.420   189 C    1.411   187 C    1.052
   189   6 C    3.872 --   190 C    1.456   188 C    1.411   221 H    0.991
   190   6 C    3.905 --   189 C    1.456   191 C    1.385   222 H    0.983
   191   6 C    3.968 --   193 C    1.395   190 C    1.385   192 O    1.123
   192   8 O    2.169 --   191 C    1.123   223 H    0.966
   193   6 C    3.873 --   194 C    1.446   191 C    1.395   224 H    0.982
   194   6 C    3.870 --   193 C    1.446   188 C    1.420   225 H    0.990
   195   6 C    3.902 --   187 C    1.367   198 N    1.238   196 C    1.223
   196   6 C    3.825 --   197 C    1.618   195 C    1.223   226 H    1.000
   197   6 C    3.815 --   196 C    1.618   199 C    1.231   227 H    0.999
   198   7 N    3.006 --   199 C    1.277   195 C    1.238   180 Ni   0.715
   199   6 C    3.924 --   200 C    1.300   198 N    1.277   197 C    1.231
   200   6 C    3.813 --   199 C    1.300   201 C    1.299   121 C    1.204
   201   6 C    3.924 --   200 C    1.299   205 N    1.279   202 C    1.231
   202   6 C    3.817 --   203 C    1.618   201 C    1.231   228 H    0.999
   203   6 C    3.825 --   202 C    1.618   204 C    1.222   229 H    1.000
   204   6 C    3.902 --   206 C    1.368   205 N    1.238   203 C    1.222
   205   7 N    3.006 --   201 C    1.279   204 C    1.238   180 Ni   0.714
   206   6 C    3.832 --   204 C    1.368   214 C    1.366   207 C    1.053
   207   6 C    3.877 --   208 C    1.420   213 C    1.411   206 C    1.053
   208   6 C    3.870 --   209 C    1.447   207 C    1.420   230 H    0.990
   209   6 C    3.873 --   208 C    1.447   210 C    1.395   231 H    0.982
   210   6 C    3.968 --   209 C    1.395   212 C    1.385   211 O    1.123
   211   8 O    2.170 --   210 C    1.123   232 H    0.966
   212   6 C    3.905 --   213 C    1.456   210 C    1.385   233 H    0.983
   213   6 C    3.871 --   212 C    1.456   207 C    1.411   234 H    0.991
   214   6 C    3.902 --   206 C    1.366   218 N    1.238   215 C    1.223
   215   6 C    3.822 --   216 C    1.616   214 C    1.223   235 H    1.000
   216   6 C    3.817 --   215 C    1.616   217 C    1.232   236 H    0.999
   217   6 C    3.923 --   181 C    1.297   218 N    1.279   216 C    1.232
   218   7 N    3.007 --   217 C    1.279   214 C    1.238   180 Ni   0.714
   219   1 H    1.048 --   183 C    0.999
   220   1 H    1.047 --   184 C    1.000
   221   1 H    1.054 --   189 C    0.991
   222   1 H    1.025 --   190 C    0.983
   223   1 H    1.007 --   192 O    0.966
   224   1 H    1.014 --   193 C    0.982
   225   1 H    1.052 --   194 C    0.990
   226   1 H    1.045 --   196 C    1.000
   227   1 H    1.044 --   197 C    0.999
   228   1 H    1.044 --   202 C    0.999
   229   1 H    1.047 --   203 C    1.000
   230   1 H    1.052 --   208 C    0.990
   231   1 H    1.014 --   209 C    0.982
   232   1 H    1.007 --   211 O    0.966
   233   1 H    1.025 --   212 C    0.983
   234   1 H    1.054 --   213 C    0.991
   235   1 H    1.046 --   215 C    1.000
   236   1 H    1.047 --   216 C    0.999
 ---------------------------------------------------------------------------

Topologies differ in total number of bonds
Writing topology from bond orders to xtbtopo.mol

 dipole moment from electron density (au)
     X       Y       Z   
-127.7308  -0.1200  -2.0328  total (Debye):  324.701


           -------------------------------------------------
          | TOTAL ENERGY             -479.128020447932 Eh   |
          | GRADIENT NORM               0.084780337504 Eh/α |
          | HOMO-LUMO GAP               0.185069448810 eV   |
           -------------------------------------------------
########################################################################
[WARNING] Runtime exception occurred
-1- restart_readRestart: Dimension missmatch in restart file.
########################################################################

------------------------------------------------------------------------
 * finished run on 2022/07/30 at 05:57:46.487     
------------------------------------------------------------------------
 total:
 * wall-time:     0 d,  0 h,  0 min, 23.209 sec
 *  cpu-time:     0 d,  0 h,  0 min, 23.102 sec
 * ratio c/w:     0.995 speedup
 SCF:
 * wall-time:     0 d,  0 h,  0 min, 22.485 sec
 *  cpu-time:     0 d,  0 h,  0 min, 22.384 sec
 * ratio c/w:     0.996 speedup

