      -----------------------------------------------------------      
     |                   =====================                   |     
     |                           x T B                           |     
     |                   =====================                   |     
     |                         S. Grimme                         |     
     |          Mulliken Center for Theoretical Chemistry        |     
     |                    University of Bonn                     |     
      -----------------------------------------------------------      

   * xtb version 6.5.1 (b24c23e) compiled by 'conda@728c89f4b128' on 2022-07-12

   xtb is free software: you can redistribute it and/or modify it under
   the terms of the GNU Lesser General Public License as published by
   the Free Software Foundation, either version 3 of the License, or
   (at your option) any later version.
   
   xtb is distributed in the hope that it will be useful,
   but WITHOUT ANY WARRANTY; without even the implied warranty of
   MERCHANTABILITY or FITNESS FOR A PARTICULAR PURPOSE.  See the
   GNU Lesser General Public License for more details.
   
   Cite this work as:
   * C. Bannwarth, E. Caldeweyher, S. Ehlert, A. Hansen, P. Pracht,
     J. Seibert, S. Spicher, S. Grimme, WIREs Comput. Mol. Sci., 2020, 11,
     e01493. DOI: 10.1002/wcms.1493
   
   for GFN2-xTB:
   * C. Bannwarth, S. Ehlert and S. Grimme., J. Chem. Theory Comput., 2019,
     15, 1652-1671. DOI: 10.1021/acs.jctc.8b01176
   for GFN1-xTB:
   * S. Grimme, C. Bannwarth, P. Shushkov, J. Chem. Theory Comput., 2017,
     13, 1989-2009. DOI: 10.1021/acs.jctc.7b00118
   for GFN0-xTB:
   * P. Pracht, E. Caldeweyher, S. Ehlert, S. Grimme, ChemRxiv, 2019, preprint.
     DOI: 10.26434/chemrxiv.8326202.v1
   for GFN-FF:
   * S. Spicher and S. Grimme, Angew. Chem. Int. Ed., 2020, 59, 15665-15673.
     DOI: 10.1002/anie.202004239
   
   for ALPB and GBSA implicit solvation:
   * S. Ehlert, M. Stahn, S. Spicher, S. Grimme, J. Chem. Theory Comput.,
     2021, 17, 4250-4261. DOI: 10.1021/acs.jctc.1c00471
   
   for DFT-D4:
   * E. Caldeweyher, C. Bannwarth and S. Grimme, J. Chem. Phys., 2017,
     147, 034112. DOI: 10.1063/1.4993215
   * E. Caldeweyher, S. Ehlert, A. Hansen, H. Neugebauer, S. Spicher,
     C. Bannwarth and S. Grimme, J. Chem. Phys., 2019, 150, 154122.
     DOI: 10.1063/1.5090222
   * E. Caldeweyher, J.-M. Mewes, S. Ehlert and S. Grimme, Phys. Chem. Chem. Phys.
     2020, 22, 8499-8512. DOI: 10.1039/D0CP00502A
   
   for sTDA-xTB:
   * S. Grimme and C. Bannwarth, J. Chem. Phys., 2016, 145, 054103.
     DOI: 10.1063/1.4959605
   
   in the mass-spec context:
   * V. Asgeirsson, C. Bauer and S. Grimme, Chem. Sci., 2017, 8, 4879.
     DOI: 10.1039/c7sc00601b
   * J. Koopman and S. Grimme, ACS Omega 2019, 4, 12, 15120-15133.
     DOI: 10.1021/acsomega.9b02011
   
   for metadynamics refer to:
   * S. Grimme, J. Chem. Theory Comput., 2019, 155, 2847-2862
     DOI: 10.1021/acs.jctc.9b00143
   
   for SPH calculations refer to:
   * S. Spicher and S. Grimme, J. Chem. Theory Comput., 2021, 17, 1701-1714
     DOI: 10.1021/acs.jctc.0c01306
   
   with help from (in alphabetical order)
   P. Atkinson, C. Bannwarth, F. Bohle, G. Brandenburg, E. Caldeweyher
   M. Checinski, S. Dohm, S. Ehlert, S. Ehrlich, I. Gerasimov, C. Hölzer
   A. Katbashev, J. Koopman, C. Lavigne, S. Lehtola, F. März, M. Müller,
   F. Musil, H. Neugebauer, J. Pisarek, C. Plett, P. Pracht, F. Pultar,
   J. Seibert, P. Shushkov, S. Spicher, M. Stahn, M. Steiner, T. Strunk,
   J. Stückrath, T. Rose, and J. Unsleber
   
 * started run on 2022/07/29 at 19:01:45.912     

           -------------------------------------------------
          |                Calculation Setup                |
           -------------------------------------------------

          program call               : xtb Fe_DHP_C4_3.xyz --gfn 1 --opt -T 48
          hostname                   : cx3-14-19.cx3.hpc.ic.ac.uk
          coordinate file            : Fe_DHP_C4_3.xyz
          omp threads                :                     1

   ID    Z sym.   atoms
    1   26 Fe     1, 59, 125
    2    6 C      2-6, 8-11, 13-17, 19-24, 26-29, 31-36, 60-64, 66-69, 71-75,
                  77-82, 84-87, 89-94, 117-124, 126-130, 132-135, 137-141,
                  143-148, 150-153, 155-160
    3    7 N      7, 12, 18, 25, 30, 37, 65, 70, 76, 83, 88, 95, 131, 136,
                  142, 149, 154, 161
    4    1 H      38-58, 96-116, 162-181
########################################################################
[WARNING] Please study the warnings concerning your input carefully
-1- prog_main_parseArguments: Unknown option '-T' provided
########################################################################

           -------------------------------------------------
          |                 G F N 1 - x T B                 |
           -------------------------------------------------

        Reference                      10.1021/acs.jctc.7b00118
      * Hamiltonian:
        H0-scaling (s, p, d)           1.850000    2.250000    2.000000
        zeta-weighting                 0.000000
      * Dispersion:
        s8                             2.400000
        a1                             0.630000
        a2                             5.000000
        s9                             0.000000
      * Repulsion:
        kExp                           1.500000
        rExp                           1.000000
      * Coulomb:
        alpha                          2.000000
        third order                    atomic
        anisotropic                    false
      * Halogen bond correction:
        rad-scale                      1.300000
        damping                        0.440000


          ...................................................
          :                      SETUP                      :
          :.................................................:
          :  # basis functions                 618          :
          :  # atomic orbitals                 615          :
          :  # shells                          365          :
          :  # electrons                       568          :
          :  # halogen bonds                     0          :
          :  max. iterations                   250          :
          :  Hamiltonian                  GFN1-xTB          :
          :  restarted?                      false          :
          :  GBSA solvation                  false          :
          :  PC potential                    false          :
          :  electronic temp.          300.0000000     K    :
          :  accuracy                    1.0000000          :
          :  -> integral cutoff          0.2500000E+02      :
          :  -> integral neglect         0.1000000E-07      :
          :  -> SCF convergence          0.1000000E-05 Eh   :
          :  -> wf. convergence          0.2000000E-04 e    :
          :  Broyden damping             0.4000000          :
          ...................................................

 iter      E             dE          RMSdq      gap      omega  full diag
   1   -276.5784252 -0.276578E+03  0.119E+01    0.00       0.0  T
   2   -127.5525565  0.149026E+03  0.141E+01    0.01       1.0  T
   3   -191.2890212 -0.637365E+02  0.963E+00    0.05       1.0  T
   4    383.1454284  0.574434E+03  0.150E+01    0.02       1.0  T
   5    799.2806299  0.416135E+03  0.169E+01    0.06       1.0  T
   6    -39.5935417 -0.838874E+03  0.110E+01    0.02       1.0  T
   7   -110.6162348 -0.710227E+02  0.908E+00    0.05       1.0  T
   8    -43.0171280  0.675991E+02  0.997E+00    0.04       1.0  T
   9   -295.2451927 -0.252228E+03  0.495E+00    0.06       1.0  T
  10   -297.3891965 -0.214400E+01  0.454E+00    0.11       1.0  T
  11   -301.9186596 -0.452946E+01  0.353E+00    0.10       1.0  T
  12   -277.0367676  0.248819E+02  0.546E+00    0.11       1.0  T
  13   -273.0479499  0.398882E+01  0.587E+00    0.20       1.0  T
  14   -278.8999833 -0.585203E+01  0.556E+00    0.03       1.0  T
  15   -278.7913882  0.108595E+00  0.554E+00    0.07       1.0  T
  16   -261.7442819  0.170471E+02  0.656E+00    0.08       1.0  T
  17   -272.6951639 -0.109509E+02  0.497E+00    0.20       1.0  T
  18   -277.8145278 -0.511936E+01  0.583E+00    0.13       1.0  T
  19   -281.0151832 -0.320066E+01  0.551E+00    0.14       1.0  T
  20   -281.0297166 -0.145334E-01  0.551E+00    0.13       1.0  T
  21   -280.7741038  0.255613E+00  0.549E+00    0.06       1.0  T
  22   -280.3360748  0.438029E+00  0.549E+00    0.12       1.0  T
  23   -280.0925434  0.243531E+00  0.544E+00    0.20       1.0  T
  24   -280.4685512 -0.376008E+00  0.537E+00    0.15       1.0  T
  25   -281.4702339 -0.100168E+01  0.524E+00    0.02       1.0  T
  26   -280.8270203  0.643214E+00  0.519E+00    0.04       1.0  T
  27   -280.3606262  0.466394E+00  0.531E+00    0.04       1.0  T
  28   -283.0782257 -0.271760E+01  0.500E+00    0.11       1.0  T
  29   -273.3078138  0.977041E+01  0.607E+00    0.02       1.0  T
  30   -271.6370847  0.167073E+01  0.621E+00    0.03       1.0  T
  31   -284.5049235 -0.128678E+02  0.510E+00    0.02       1.0  T
  32   -301.5095127 -0.170046E+02  0.322E+00    0.02       1.0  T
  33   -299.0504214  0.245909E+01  0.337E+00    0.03       1.0  T
  34   -300.1712892 -0.112087E+01  0.343E+00    0.03       1.0  T
  35   -306.3763829 -0.620509E+01  0.223E+00    0.03       1.0  T
  36   -302.6809671  0.369542E+01  0.302E+00    0.01       1.0  T
  37   -300.9013616  0.177961E+01  0.329E+00    0.02       1.0  T
  38   -305.8315461 -0.493018E+01  0.237E+00    0.02       1.0  T
  39   -308.1594446 -0.232790E+01  0.179E+00    0.04       1.0  T
  40   -307.8069055  0.352539E+00  0.182E+00    0.02       1.0  T
  41   -298.7288132  0.907809E+01  0.354E+00    0.06       1.0  T
  42   -304.3794693 -0.565066E+01  0.267E+00    0.03       1.0  T
  43   -303.1894316  0.119004E+01  0.288E+00    0.01       1.0  T
  44   -304.6398286 -0.145040E+01  0.259E+00    0.03       1.0  T
  45   -307.4746818 -0.283485E+01  0.191E+00    0.10       1.0  T
  46   -309.2165328 -0.174185E+01  0.130E+00    0.04       1.0  T
  47   -309.0597663  0.156767E+00  0.134E+00    0.06       1.0  T
  48   -309.0568215  0.294481E-02  0.131E+00    0.02       1.0  T
  49   -309.3273861 -0.270565E+00  0.120E+00    0.00       1.0  T
  50   -308.2056533  0.112173E+01  0.161E+00    0.02       1.0  T
  51   -309.3141828 -0.110853E+01  0.120E+00    0.02       1.0  T
  52   -309.5501407 -0.235958E+00  0.109E+00    0.01       1.0  T
  53   -309.8877789 -0.337638E+00  0.877E-01    0.03       1.0  T
  54   -310.5001416 -0.612363E+00  0.314E-01    0.01       1.0  T
  55   -310.2308043  0.269337E+00  0.628E-01    0.02       1.0  T
  56   -310.3965046 -0.165700E+00  0.424E-01    0.03       1.0  T
  57   -310.4514123 -0.549077E-01  0.402E-01    0.01       1.0  T
  58   -310.3030564  0.148356E+00  0.525E-01    0.05       1.0  T
  59   -310.3071839 -0.412753E-02  0.570E-01    0.01       1.0  T
  60   -309.9512622  0.355922E+00  0.820E-01    0.04       1.0  T
  61   -309.9937120 -0.424498E-01  0.791E-01    0.04       1.0  T
  62   -309.8391940  0.154518E+00  0.910E-01    0.02       1.0  T
  63   -309.9726473 -0.133453E+00  0.817E-01    0.03       1.0  T
  64   -309.9116430  0.610043E-01  0.859E-01    0.03       1.0  T
  65   -310.1219821 -0.210339E+00  0.705E-01    0.03       1.0  T
  66   -310.3291043 -0.207122E+00  0.522E-01    0.02       1.0  T
  67   -310.4652459 -0.136142E+00  0.355E-01    0.02       1.0  T
  68   -310.5251289 -0.598831E-01  0.242E-01    0.03       1.0  T
  69   -310.5526268 -0.274979E-01  0.168E-01    0.02       1.0  T
  70   -310.5569574 -0.433061E-02  0.153E-01    0.02       1.0  T
  71   -310.5683227 -0.113653E-01  0.107E-01    0.02       1.0  T
  72   -310.5771963 -0.887358E-02  0.382E-02    0.01       1.0  T
  73   -310.5751935  0.200279E-02  0.614E-02    0.02       1.0  T
  74   -310.5769622 -0.176875E-02  0.398E-02    0.01       1.0  T
  75   -310.5774378 -0.475539E-03  0.326E-02    0.01       1.0  T
  76   -310.5780930 -0.655200E-03  0.158E-02    0.01       1.0  T
  77   -310.5782319 -0.138952E-03  0.962E-03    0.01       1.0  T
  78   -310.5782341 -0.216211E-05  0.956E-03    0.01       1.0  T
  79   -310.5781500  0.840734E-04  0.134E-02    0.01       1.0  T
  80   -310.5780707  0.792962E-04  0.162E-02    0.01       1.0  T
  81   -310.5782272 -0.156476E-03  0.965E-03    0.01       1.0  T
  82   -310.5782356 -0.839110E-05  0.907E-03    0.01       1.0  T
  83   -310.5783010 -0.653889E-04  0.278E-03    0.01       2.7  T
  84   -310.5782945  0.651511E-05  0.379E-03    0.01       2.0  T
  85   -310.5783033 -0.885405E-05  0.213E-03    0.01       3.5  T
  86   -310.5783063 -0.302250E-05  0.108E-03    0.01       6.9  T
  87   -310.5783057  0.687584E-06  0.139E-03    0.01       5.4  T
  88   -310.5783068 -0.113108E-05  0.751E-04    0.01       9.9  T
  89   -310.5783068 -0.576721E-07  0.670E-04    0.01      11.1  T
  90   -310.5783071 -0.294228E-06  0.333E-04    0.01      22.3  T
  91   -310.5783072 -0.688872E-07  0.188E-04    0.01      39.5  T
  92   -310.5783072 -0.157497E-07  0.134E-04    0.01      55.5  T

   *** convergence criteria satisfied after 92 iterations ***

         #    Occupation            Energy/Eh            Energy/eV
      -------------------------------------------------------------
         1        2.0000           -0.7776925             -21.1621
       ...           ...                  ...                  ...
       278        1.9959           -0.3637406              -9.8979
       279        1.9956           -0.3636577              -9.8956
       280        1.9870           -0.3626352              -9.8678
       281        1.9124           -0.3607852              -9.8175
       282        1.8281           -0.3601020              -9.7989
       283        1.4787           -0.3588466              -9.7647
       284        1.3737           -0.3586022              -9.7581 (HOMO)
       285        1.1243           -0.3580934              -9.7442 (LUMO)
       286        0.2657           -0.3560736              -9.6893
       287        0.0351           -0.3540333              -9.6337
       288        0.0086           -0.3526778              -9.5969
       289        0.0000           -0.3463705              -9.4252
       ...           ...                  ...                  ...
       615                          1.3880292              37.7702
      -------------------------------------------------------------
                  HL-Gap            0.0005088 Eh            0.0138 eV
             Fermi-level           -0.3578560 Eh           -9.7378 eV

 SCC (total)                   0 d,  0 h,  0 min, 15.607 sec
 SCC setup                      ...        0 min,  0.014 sec (  0.088%)
 Dispersion                     ...        0 min,  0.011 sec (  0.068%)
 classical contributions        ...        0 min,  0.004 sec (  0.023%)
 integral evaluation            ...        0 min,  0.329 sec (  2.107%)
 iterations                     ...        0 min, 14.413 sec ( 92.346%)
 molecular gradient             ...        0 min,  0.801 sec (  5.133%)
 printout                       ...        0 min,  0.037 sec (  0.235%)

         :::::::::::::::::::::::::::::::::::::::::::::::::::::
         ::                     SUMMARY                     ::
         :::::::::::::::::::::::::::::::::::::::::::::::::::::
         :: total energy            -305.896236735695 Eh    ::
         :: gradient norm              0.743298246904 Eh/a0 ::
         :: HOMO-LUMO gap              0.013846363034 eV    ::
         ::.................................................::
         :: SCC energy              -310.578307224013 Eh    ::
         :: -> electrostatic           0.259726527150 Eh    ::
         :: repulsion energy           4.844525147508 Eh    ::
         :: dispersion energy         -0.162454659190 Eh    ::
         :: halogen bond corr.         0.000000000000 Eh    ::
         :: add. restraining           0.000000000000 Eh    ::
         :: total charge               0.000000000775 e     ::
         :::::::::::::::::::::::::::::::::::::::::::::::::::::

      ----------------------------------------------------------- 
     |                   =====================                   |
     |                        A N C O P T                        |
     |                   =====================                   |
     |               Approximate Normal Coordinate               |
     |                Rational Function Optimizer                |
      ----------------------------------------------------------- 

          ...................................................
          :                      SETUP                      :
          :.................................................:
          :   optimization level            normal          :
          :   max. optcycles                   543          :
          :   ANC micro-cycles                  20          :
          :   degrees of freedom               537          :
          :.................................................:
          :   RF solver                   davidson          :
          :   write xtbopt.log                true          :
          :   linear?                        false          :
          :   energy convergence         0.5000000E-05 Eh   :
          :   grad. convergence          0.1000000E-02 Eh/α :
          :   maximium RF displ.         1.0000000          :
          :   Hlow (freq-cutoff)         0.1000000E-01      :
          :   Hmax (freq-cutoff)         5.0000000          :
          :   S6 in model hess.         20.0000000          :
          ...................................................

generating ANC from model Hessian ...
Using Lindh-Hessian (1995)
 Shifting diagonal of input Hessian by    1.0019317498016971E-002
 Lowest  eigenvalues of input Hessian
    0.010000    0.010009    0.010011    0.010012    0.010013    0.000000
    0.000000    0.000000    0.000000    0.000000    0.000000    0.010022
    0.010040    0.010046    0.010115    0.010182    0.010183    0.010253
 Highest eigenvalues
    2.177289    2.186775    2.264448    2.439948    2.643304    2.805791


........................................................................
.............................. CYCLE    1 ..............................
........................................................................
   1   -310.5783072 -0.310578E+03  0.625E-05    0.01       0.0  T
   2   -310.5781684  0.138801E-03  0.122E-02    0.01       1.0  T
   3   -310.5783052 -0.136810E-03  0.144E-03    0.01       5.2  T
   4   -310.5783028  0.245342E-05  0.221E-03    0.01       3.4  T
   5   -310.5783012  0.155948E-05  0.264E-03    0.01       2.8  T
   6   -310.5783064 -0.516856E-05  0.905E-04    0.01       8.2  T
   7   -310.5783072 -0.819510E-06  0.144E-04    0.01      51.6  T
   8   -310.5783069  0.366809E-06  0.630E-04    0.01      11.8  T
   9   -310.5783072 -0.301379E-06  0.295E-04    0.01      25.2  T
  10   -310.5783072 -0.548551E-07  0.177E-04    0.01      42.0  T
     SCC iter.                  ...        0 min,  1.578 sec
     gradient                   ...        0 min,  0.803 sec
 * total energy  :  -305.8962367 Eh     change        0.1402958E-07 Eh
   gradient norm :     0.7432987 Eh/α   predicted     0.0000000E+00 (-100.00%)
   displ. norm   :     0.5231439 α      lambda       -0.3236259E+00
   maximum displ.:     0.1105207 α      in ANC's #355, #366, #374, ...

........................................................................
.............................. CYCLE    2 ..............................
........................................................................
   1   -309.6083753 -0.309608E+03  0.113E+00    0.01       0.0  T
   2   -233.8529061  0.757555E+02  0.796E+00    0.31       1.0  T
   3   -297.9423118 -0.640894E+02  0.380E+00    0.03       1.0  T
   4   -284.2691543  0.136732E+02  0.486E+00    0.06       1.0  T
   5   -268.3459057  0.159232E+02  0.635E+00    0.07       1.0  T
   6   -285.7536912 -0.174078E+02  0.491E+00    0.01       1.0  T
   7   -284.2748240  0.147887E+01  0.506E+00    0.09       1.0  T
   8   -309.0740351 -0.247992E+02  0.123E+00    0.06       1.0  T
   9   -285.8314751  0.232426E+02  0.476E+00    0.21       1.0  T
  10   -304.1861695 -0.183547E+02  0.264E+00    0.03       1.0  T
  11   -308.3103174 -0.412415E+01  0.168E+00    0.02       1.0  T
  12   -308.4954341 -0.185117E+00  0.168E+00    0.10       1.0  T
  13   -309.8339052 -0.133847E+01  0.110E+00    0.02       1.0  T
  14   -308.0057756  0.182813E+01  0.173E+00    0.14       1.0  T
  15   -308.5899306 -0.584155E+00  0.151E+00    0.14       1.0  T
  16   -303.6776666  0.491226E+01  0.275E+00    0.05       1.0  T
  17   -310.4563460 -0.677868E+01  0.578E-01    0.01       1.0  T
  18   -307.5722885  0.288406E+01  0.186E+00    0.03       1.0  T
  19   -310.2635151 -0.269123E+01  0.712E-01    0.00       1.0  T
  20   -310.4837192 -0.220204E+00  0.508E-01    0.05       1.0  T
  21   -310.6509286 -0.167209E+00  0.269E-01    0.02       1.0  T
  22   -310.2543280  0.396601E+00  0.706E-01    0.03       1.0  T
  23   -310.6257996 -0.371472E+00  0.317E-01    0.01       1.0  T
  24   -310.4376147  0.188185E+00  0.536E-01    0.04       1.0  T
  25   -310.5530556 -0.115441E+00  0.414E-01    0.03       1.0  T
  26   -310.6187468 -0.656912E-01  0.322E-01    0.03       1.0  T
  27   -310.6227075 -0.396071E-02  0.310E-01    0.03       1.0  T
  28   -310.7072072 -0.844997E-01  0.828E-02    0.01       1.0  T
  29   -310.6985890  0.861820E-02  0.128E-01    0.02       1.0  T
  30   -310.7123765 -0.137875E-01  0.332E-02    0.01       1.0  T
  31   -310.7106771  0.169941E-02  0.547E-02    0.01       1.0  T
  32   -310.7128222 -0.214505E-02  0.265E-02    0.01       1.0  T
  33   -310.7125720  0.250202E-03  0.312E-02    0.01       1.0  T
  34   -310.7134259 -0.853949E-03  0.553E-03    0.01       1.3  T
  35   -310.7134203  0.562257E-05  0.569E-03    0.01       1.3  T
  36   -310.7134130  0.732056E-05  0.640E-03    0.01       1.2  T
  37   -310.7134254 -0.124487E-04  0.519E-03    0.01       1.4  T
  38   -310.7134393 -0.138376E-04  0.355E-03    0.01       2.1  T
  39   -310.7134477 -0.838358E-05  0.198E-03    0.01       3.7  T
  40   -310.7134511 -0.343989E-05  0.546E-04    0.01      13.6  T
  41   -310.7134513 -0.161900E-06  0.330E-04    0.01      22.5  T
  42   -310.7134514 -0.959895E-07  0.472E-05    0.01     157.4  T
  43   -310.7134513  0.741909E-08  0.101E-04    0.01      73.6  T
     SCC iter.                  ...        0 min,  6.685 sec
     gradient                   ...        0 min,  0.802 sec
 * total energy  :  -306.1545857 Eh     change       -0.2583490E+00 Eh
   gradient norm :     0.4346064 Eh/α   predicted    -0.2061402E+00 ( -20.21%)
   displ. norm   :     0.6491292 α      lambda       -0.2430876E+00
   maximum displ.:     0.1391885 α      in ANC's #366, #355, #371, ...

........................................................................
.............................. CYCLE    3 ..............................
........................................................................
   1   -309.2352297 -0.309235E+03  0.138E+00    0.00       0.0  T
   2   -221.3961078  0.878391E+02  0.835E+00    0.34       1.0  T
   3   -298.3246178 -0.769285E+02  0.378E+00    0.06       1.0  T
   4   -284.3418495  0.139828E+02  0.481E+00    0.12       1.0  T
   5   -280.1143898  0.422746E+01  0.540E+00    0.03       1.0  T
   6   -282.6172011 -0.250281E+01  0.513E+00    0.28       1.0  T
   7   -286.4908937 -0.387369E+01  0.479E+00    0.36       1.0  T
   8   -294.2149085 -0.772401E+01  0.408E+00    0.01       1.0  T
   9   -307.1233803 -0.129085E+02  0.219E+00    0.05       1.0  T
  10   -306.1275154  0.995865E+00  0.231E+00    0.01       1.0  T
  11   -306.5782417 -0.450726E+00  0.221E+00    0.01       1.0  T
  12   -309.1971215 -0.261888E+01  0.147E+00    0.00       1.0  T
  13   -306.7482480  0.244887E+01  0.215E+00    0.07       1.0  T
  14   -307.6105826 -0.862335E+00  0.189E+00    0.03       1.0  T
  15   -309.8617476 -0.225116E+01  0.111E+00    0.01       1.0  T
  16   -309.7633354  0.984121E-01  0.111E+00    0.01       1.0  T
  17   -308.1164368  0.164690E+01  0.179E+00    0.04       1.0  T
  18   -307.4678157  0.648621E+00  0.200E+00    0.01       1.0  T
  19   -308.4492497 -0.981434E+00  0.160E+00    0.08       1.0  T
  20   -309.6133039 -0.116405E+01  0.121E+00    0.04       1.0  T
  21   -310.1468247 -0.533521E+00  0.923E-01    0.04       1.0  T
  22   -309.1776121  0.969213E+00  0.139E+00    0.04       1.0  T
  23   -310.2365131 -0.105890E+01  0.889E-01    0.05       1.0  T
  24   -309.2781231  0.958390E+00  0.131E+00    0.01       1.0  T
  25   -310.4558680 -0.117774E+01  0.730E-01    0.01       1.0  T
  26   -310.7682264 -0.312358E+00  0.456E-01    0.01       1.0  T
  27   -310.8877410 -0.119515E+00  0.268E-01    0.03       1.0  T
  28   -310.8880089 -0.267858E-03  0.253E-01    0.03       1.0  T
  29   -310.9103467 -0.223378E-01  0.206E-01    0.03       1.0  T
  30   -310.9443151 -0.339684E-01  0.666E-02    0.04       1.0  T
  31   -310.9393055  0.500956E-02  0.101E-01    0.03       1.0  T
  32   -310.9472901 -0.798462E-02  0.350E-02    0.04       1.0  T
  33   -310.9477462 -0.456126E-03  0.275E-02    0.04       1.0  T
  34   -310.9465424  0.120382E-02  0.468E-02    0.04       1.0  T
  35   -310.9481170 -0.157461E-02  0.180E-02    0.04       1.0  T
  36   -310.9478627  0.254379E-03  0.244E-02    0.04       1.0  T
  37   -310.9481294 -0.266766E-03  0.166E-02    0.04       1.0  T
  38   -310.9483240 -0.194600E-03  0.586E-03    0.04       1.3  T
  39   -310.9482906  0.334389E-04  0.806E-03    0.04       1.0  T
  40   -310.9483267 -0.360907E-04  0.526E-03    0.04       1.4  T
  41   -310.9482971  0.296003E-04  0.765E-03    0.04       1.0  T
  42   -310.9483067 -0.957561E-05  0.698E-03    0.04       1.1  T
  43   -310.9483145 -0.786293E-05  0.638E-03    0.04       1.2  T
  44   -310.9483361 -0.215832E-04  0.417E-03    0.04       1.8  T
  45   -310.9483417 -0.557892E-05  0.341E-03    0.04       2.2  T
  46   -310.9483476 -0.592016E-05  0.229E-03    0.04       3.2  T
  47   -310.9483457  0.188948E-05  0.269E-03    0.04       2.8  T
  48   -310.9483389  0.682409E-05  0.379E-03    0.04       2.0  T
  49   -310.9483446 -0.569184E-05  0.288E-03    0.04       2.6  T
  50   -310.9483495 -0.496568E-05  0.175E-03    0.04       4.3  T
  51   -310.9483513 -0.178757E-05  0.108E-03    0.04       6.9  T
  52   -310.9483520 -0.660711E-06  0.646E-04    0.04      11.5  T
  53   -310.9483523 -0.313815E-06  0.232E-04    0.04      32.0  T
  54   -310.9483523 -0.886246E-08  0.214E-04    0.04      34.8  T
  55   -310.9483524 -0.403743E-07  0.317E-05    0.04     234.6  T
  56   -310.9483523  0.544634E-08  0.818E-05    0.04      90.9  T
     SCC iter.                  ...        0 min,  7.781 sec
     gradient                   ...        0 min,  0.519 sec
 * total energy  :  -306.3125295 Eh     change       -0.1579438E+00 Eh
   gradient norm :     0.2542773 Eh/α   predicted    -0.1727587E+00 (   9.38%)
   displ. norm   :     0.6322705 α      lambda       -0.1027122E+00
   maximum displ.:     0.1656260 α      in ANC's #183, #119, #146, ...

........................................................................
.............................. CYCLE    4 ..............................
........................................................................
   1   -310.5454447 -0.310545E+03  0.787E-01    0.00       0.0  T
   2   -237.8293959  0.727160E+02  0.778E+00    0.58       1.0  T
   3   -301.1251766 -0.632958E+02  0.337E+00    0.03       1.0  T
   4   -287.1189129  0.140063E+02  0.473E+00    0.22       1.0  T
   5   -300.1463439 -0.130274E+02  0.337E+00    0.03       1.0  T
   6   -292.6551391  0.749120E+01  0.427E+00    0.10       1.0  T
   7   -287.4878378  0.516730E+01  0.483E+00    0.21       1.0  T
   8   -302.8586595 -0.153708E+02  0.292E+00    0.03       1.0  T
   9   -298.1513596  0.470730E+01  0.359E+00    0.02       1.0  T
  10   -292.4150466  0.573631E+01  0.424E+00    0.03       1.0  T
  11   -292.0652577  0.349789E+00  0.427E+00    0.03       1.0  T
  12   -295.5100155 -0.344476E+01  0.391E+00    0.02       1.0  T
  13   -305.2044503 -0.969443E+01  0.251E+00    0.01       1.0  T
  14   -297.1623557  0.804209E+01  0.375E+00    0.03       1.0  T
  15   -295.6675858  0.149477E+01  0.393E+00    0.04       1.0  T
  16   -295.1583464  0.509239E+00  0.399E+00    0.04       1.0  T
  17   -293.6625084  0.149584E+01  0.414E+00    0.04       1.0  T
  18   -301.2781140 -0.761561E+01  0.312E+00    0.01       1.0  T
  19   -306.5148926 -0.523678E+01  0.224E+00    0.04       1.0  T
  20   -304.9521340  0.156276E+01  0.258E+00    0.01       1.0  T
  21   -303.7497604  0.120237E+01  0.279E+00    0.01       1.0  T
  22   -303.2907429  0.459017E+00  0.287E+00    0.02       1.0  T
  23   -305.0090169 -0.171827E+01  0.256E+00    0.00       1.0  T
  24   -308.6154019 -0.360639E+01  0.161E+00    0.02       1.0  T
  25   -308.3244259  0.290976E+00  0.174E+00    0.03       1.0  T
  26   -307.8732227  0.451203E+00  0.189E+00    0.02       1.0  T
  27   -307.9780753 -0.104853E+00  0.185E+00    0.02       1.0  T
  28   -308.8772375 -0.899162E+00  0.152E+00    0.02       1.0  T
  29   -305.6893744  0.318786E+01  0.240E+00    0.01       1.0  T
  30   -307.3979777 -0.170860E+01  0.200E+00    0.02       1.0  T
  31   -308.7483152 -0.135034E+01  0.161E+00    0.00       1.0  T
  32   -308.8672039 -0.118889E+00  0.157E+00    0.04       1.0  T
  33   -308.5998183  0.267386E+00  0.166E+00    0.04       1.0  T
  34   -308.9330148 -0.333196E+00  0.154E+00    0.04       1.0  T
  35   -310.2711027 -0.133809E+01  0.957E-01    0.07       1.0  T
  36   -310.3959052 -0.124803E+00  0.880E-01    0.07       1.0  T
  37   -310.6417185 -0.245813E+00  0.707E-01    0.10       1.0  T
  38   -310.6604285 -0.187100E-01  0.702E-01    0.03       1.0  T
  39   -310.1927057  0.467723E+00  0.995E-01    0.06       1.0  T
  40   -310.4908096 -0.298104E+00  0.834E-01    0.01       1.0  T
  41   -310.1925336  0.298276E+00  0.996E-01    0.06       1.0  T
  42   -309.0884874  0.110405E+01  0.148E+00    0.08       1.0  T
  43   -310.5013148 -0.141283E+01  0.812E-01    0.09       1.0  T
  44   -309.8250446  0.676270E+00  0.117E+00    0.06       1.0  T
  45   -310.9427631 -0.111772E+01  0.396E-01    0.05       1.0  T
  46   -310.3302324  0.612531E+00  0.909E-01    0.04       1.0  T
  47   -310.8174225 -0.487190E+00  0.541E-01    0.03       1.0  T
  48   -310.7545303  0.628922E-01  0.606E-01    0.01       1.0  T
  49   -310.8795862 -0.125056E+00  0.484E-01    0.05       1.0  T
  50   -311.0043861 -0.124800E+00  0.306E-01    0.03       1.0  T
  51   -310.9554972  0.488889E-01  0.392E-01    0.07       1.0  T
  52   -311.0145661 -0.590689E-01  0.292E-01    0.05       1.0  T
  53   -310.9923570  0.222091E-01  0.334E-01    0.07       1.0  T
  54   -311.0207529 -0.283959E-01  0.280E-01    0.07       1.0  T
  55   -311.0255166 -0.476368E-02  0.267E-01    0.07       1.0  T
  56   -311.0455266 -0.200100E-01  0.219E-01    0.06       1.0  T
  57   -311.0542648 -0.873822E-02  0.195E-01    0.06       1.0  T
  58   -311.0785806 -0.243158E-01  0.105E-01    0.05       1.0  T
  59   -311.0866545 -0.807391E-02  0.489E-02    0.05       1.0  T
  60   -311.0885332 -0.187872E-02  0.214E-02    0.05       1.0  T
  61   -311.0885543 -0.210102E-04  0.208E-02    0.05       1.0  T
  62   -311.0885695 -0.152907E-04  0.207E-02    0.05       1.0  T
  63   -311.0884797  0.898264E-04  0.228E-02    0.05       1.0  T
  64   -311.0885622 -0.824871E-04  0.205E-02    0.05       1.0  T
  65   -311.0886370 -0.748197E-04  0.180E-02    0.05       1.0  T
  66   -311.0886405 -0.348340E-05  0.178E-02    0.05       1.0  T
  67   -311.0887258 -0.852686E-04  0.150E-02    0.05       1.0  T
  68   -311.0888191 -0.932825E-04  0.110E-02    0.05       1.0  T
  69   -311.0889048 -0.857776E-04  0.579E-03    0.05       1.3  T
  70   -311.0889305 -0.256238E-04  0.251E-03    0.05       3.0  T
  71   -311.0889310 -0.530043E-06  0.286E-03    0.05       2.6  T
  72   -311.0889231  0.787120E-05  0.407E-03    0.05       1.8  T
  73   -311.0889283 -0.517940E-05  0.324E-03    0.05       2.3  T
  74   -311.0889371 -0.883245E-05  0.383E-04    0.05      19.4  T
  75   -311.0889370  0.140515E-06  0.557E-04    0.05      13.4  T
  76   -311.0889372 -0.233777E-06  0.221E-04    0.05      33.6  T
  77   -311.0889373 -0.402962E-07  0.594E-05    0.05     125.1  T
  78   -311.0889373  0.623356E-08  0.963E-05    0.05      77.2  T
     SCC iter.                  ...        0 min,  9.891 sec
     gradient                   ...        0 min,  0.573 sec
 * total energy  :  -306.3910974 Eh     change       -0.7856795E-01 Eh
   gradient norm :     0.1577771 Eh/α   predicted    -0.7188689E-01 (  -8.50%)
   displ. norm   :     0.7004272 α      lambda       -0.7308498E-01
   maximum displ.:     0.1749034 α      in ANC's #183, #98, #110, ...

........................................................................
.............................. CYCLE    5 ..............................
........................................................................
   1   -310.8944189 -0.310894E+03  0.601E-01    0.01       0.0  T
   2   -248.6213257  0.622731E+02  0.738E+00    0.05       1.0  T
   3   -301.3211082 -0.526998E+02  0.332E+00    0.03       1.0  T
   4   -302.8669615 -0.154585E+01  0.285E+00    0.02       1.0  T
   5   -301.6517291  0.121523E+01  0.308E+00    0.02       1.0  T
   6   -305.7734443 -0.412172E+01  0.240E+00    0.00       1.0  T
   7   -297.5820005  0.819144E+01  0.365E+00    0.03       1.0  T
   8   -307.0219260 -0.943993E+01  0.208E+00    0.00       1.0  T
   9   -309.8806114 -0.285869E+01  0.129E+00    0.11       1.0  T
  10   -310.4804911 -0.599880E+00  0.955E-01    0.09       1.0  T
  11   -310.9910895 -0.510598E+00  0.478E-01    0.00       1.0  T
  12   -310.2003705  0.790719E+00  0.107E+00    0.06       1.0  T
  13   -310.5835794 -0.383209E+00  0.803E-01    0.02       1.0  T
  14   -311.0940679 -0.510488E+00  0.358E-01    0.05       1.0  T
  15   -310.1214704  0.972598E+00  0.108E+00    0.04       1.0  T
  16   -310.3393036 -0.217833E+00  0.961E-01    0.03       1.0  T
  17   -310.5208012 -0.181498E+00  0.861E-01    0.02       1.0  T
  18   -310.8977765 -0.376975E+00  0.583E-01    0.00       1.0  T
  19   -310.9616485 -0.638720E-01  0.528E-01    0.10       1.0  T
  20   -310.9981198 -0.364713E-01  0.475E-01    0.00       1.0  T
  21   -311.1961175 -0.197998E+00  0.121E-01    0.05       1.0  T
  22   -311.1835994  0.125181E-01  0.174E-01    0.05       1.0  T
  23   -311.1763251  0.727432E-02  0.196E-01    0.06       1.0  T
  24   -311.2038805 -0.275555E-01  0.858E-02    0.05       1.0  T
  25   -311.1934750  0.104055E-01  0.137E-01    0.06       1.0  T
  26   -311.2033034 -0.982838E-02  0.870E-02    0.06       1.0  T
  27   -311.2051157 -0.181230E-02  0.751E-02    0.05       1.0  T
  28   -311.2096705 -0.455476E-02  0.267E-02    0.05       1.0  T
  29   -311.2099561 -0.285667E-03  0.207E-02    0.05       1.0  T
  30   -311.2099214  0.347308E-04  0.208E-02    0.05       1.0  T
  31   -311.2098060  0.115399E-03  0.233E-02    0.05       1.0  T
  32   -311.2099339 -0.127858E-03  0.197E-02    0.05       1.0  T
  33   -311.2098167  0.117141E-03  0.226E-02    0.05       1.0  T
  34   -311.2101902 -0.373502E-03  0.963E-03    0.05       1.0  T
  35   -311.2102543 -0.640543E-04  0.439E-03    0.05       1.7  T
  36   -311.2102490  0.525290E-05  0.488E-03    0.05       1.5  T
  37   -311.2102637 -0.147022E-04  0.274E-03    0.05       2.7  T
  38   -311.2102691 -0.539946E-05  0.128E-03    0.05       5.8  T
  39   -311.2102701 -0.984598E-06  0.757E-04    0.05       9.8  T
  40   -311.2102706 -0.512879E-06  0.169E-04    0.05      43.9  T
  41   -311.2102705  0.752015E-07  0.334E-04    0.05      22.3  T
  42   -311.2102706 -0.920816E-07  0.952E-05    0.05      78.1  T
     SCC iter.                  ...        0 min,  5.378 sec
     gradient                   ...        0 min,  0.577 sec
 * total energy  :  -306.4464534 Eh     change       -0.5535600E-01 Eh
   gradient norm :     0.1424428 Eh/α   predicted    -0.5447021E-01 (  -1.60%)
   displ. norm   :     0.6634952 α      lambda       -0.5018944E-01
   maximum displ.:     0.1405011 α      in ANC's #98, #183, #95, ...

........................................................................
.............................. CYCLE    6 ..............................
........................................................................
   1   -311.1269029 -0.311127E+03  0.393E-01    0.02       0.0  T
   2   -277.0250522  0.341019E+02  0.555E+00    0.01       1.0  T
   3   -303.9715117 -0.269465E+02  0.284E+00    0.01       1.0  T
   4   -309.6528136 -0.568130E+01  0.130E+00    0.06       1.0  T
   5   -308.9200032  0.732810E+00  0.155E+00    0.06       1.0  T
   6   -303.6082660  0.531174E+01  0.278E+00    0.02       1.0  T
   7   -306.1922570 -0.258399E+01  0.226E+00    0.00       1.0  T
   8   -310.2912948 -0.409904E+01  0.101E+00    0.07       1.0  T
   9   -310.8674447 -0.576150E+00  0.651E-01    0.13       1.0  T
  10   -310.9835529 -0.116108E+00  0.538E-01    0.02       1.0  T
  11   -311.1842342 -0.200681E+00  0.301E-01    0.07       1.0  T
  12   -311.0104666  0.173768E+00  0.540E-01    0.09       1.0  T
  13   -310.9375689  0.728976E-01  0.614E-01    0.10       1.0  T
  14   -310.7629657  0.174603E+00  0.757E-01    0.09       1.0  T
  15   -310.7513459  0.116198E-01  0.768E-01    0.08       1.0  T
  16   -310.8455807 -0.942349E-01  0.691E-01    0.10       1.0  T
  17   -310.7626789  0.829019E-01  0.740E-01    0.05       1.0  T
  18   -311.0567671 -0.294088E+00  0.476E-01    0.04       1.0  T
  19   -311.0390456  0.177214E-01  0.494E-01    0.03       1.0  T
  20   -311.2286242 -0.189579E+00  0.190E-01    0.05       1.0  T
  21   -311.1010256  0.127599E+00  0.414E-01    0.02       1.0  T
  22   -311.2555794 -0.154554E+00  0.756E-02    0.05       1.0  T
  23   -311.2543221  0.125727E-02  0.809E-02    0.05       1.0  T
  24   -311.2531404  0.118172E-02  0.889E-02    0.04       1.0  T
  25   -311.2567979 -0.365749E-02  0.611E-02    0.04       1.0  T
  26   -311.2559310  0.866951E-03  0.668E-02    0.04       1.0  T
  27   -311.2585596 -0.262862E-02  0.423E-02    0.04       1.0  T
  28   -311.2591561 -0.596488E-03  0.343E-02    0.04       1.0  T
  29   -311.2600729 -0.916806E-03  0.140E-02    0.04       1.0  T
  30   -311.2601418 -0.688785E-04  0.110E-02    0.05       1.0  T
  31   -311.2602218 -0.800207E-04  0.566E-03    0.05       1.3  T
  32   -311.2602449 -0.231126E-04  0.239E-03    0.05       3.1  T
  33   -311.2602489 -0.404634E-05  0.995E-04    0.05       7.5  T
  34   -311.2602492 -0.314892E-06  0.789E-04    0.05       9.4  T
  35   -311.2602495 -0.287025E-06  0.516E-04    0.05      14.4  T
  36   -311.2602497 -0.192967E-06  0.245E-04    0.05      30.4  T
  37   -311.2602498 -0.565029E-07  0.428E-05    0.05     173.7  T
  38   -311.2602498  0.452906E-08  0.810E-05    0.05      91.8  T
     SCC iter.                  ...        0 min,  4.873 sec
     gradient                   ...        0 min,  0.565 sec
 * total energy  :  -306.4846182 Eh     change       -0.3816481E-01 Eh
   gradient norm :     0.1114657 Eh/α   predicted    -0.3614207E-01 (  -5.30%)
   displ. norm   :     0.6630830 α      lambda       -0.3577799E-01
   maximum displ.:     0.1871809 α      in ANC's #98, #95, #138, ...

........................................................................
.............................. CYCLE    7 ..............................
........................................................................
   1   -311.2276210 -0.311228E+03  0.289E-01    0.03       0.0  T
   2   -282.7585658  0.284691E+02  0.511E+00    0.05       1.0  T
   3   -288.0973036 -0.533874E+01  0.470E+00    0.08       1.0  T
   4   -305.8541513 -0.177568E+02  0.255E+00    0.07       1.0  T
   5   -309.1016193 -0.324747E+01  0.150E+00    0.13       1.0  T
   6   -309.5131287 -0.411509E+00  0.137E+00    0.01       1.0  T
   7   -308.4258179  0.108731E+01  0.171E+00    0.02       1.0  T
   8   -309.7900908 -0.136427E+01  0.127E+00    0.05       1.0  T
   9   -306.0442947  0.374580E+01  0.230E+00    0.02       1.0  T
  10   -310.2624699 -0.421818E+01  0.105E+00    0.07       1.0  T
  11   -311.1023604 -0.839891E+00  0.440E-01    0.11       1.0  T
  12   -310.6006767  0.501684E+00  0.867E-01    0.03       1.0  T
  13   -311.2048054 -0.604129E+00  0.310E-01    0.04       1.0  T
  14   -311.0532415  0.151564E+00  0.497E-01    0.03       1.0  T
  15   -311.1582504 -0.105009E+00  0.375E-01    0.04       1.0  T
  16   -311.0964085  0.618419E-01  0.455E-01    0.02       1.0  T
  17   -311.2842090 -0.187801E+00  0.116E-01    0.05       1.0  T
  18   -311.2507795  0.334296E-01  0.219E-01    0.04       1.0  T
  19   -311.2727197 -0.219402E-01  0.166E-01    0.04       1.0  T
  20   -311.2745477 -0.182798E-02  0.162E-01    0.05       1.0  T
  21   -311.2877954 -0.132477E-01  0.112E-01    0.05       1.0  T
  22   -311.2905307 -0.273529E-02  0.991E-02    0.05       1.0  T
  23   -311.2744952  0.160355E-01  0.164E-01    0.06       1.0  T
  24   -311.2764462 -0.195101E-02  0.151E-01    0.05       1.0  T
  25   -311.2789022 -0.245593E-02  0.143E-01    0.05       1.0  T
  26   -311.2701629  0.873929E-02  0.170E-01    0.05       1.0  T
  27   -311.2817226 -0.115597E-01  0.128E-01    0.05       1.0  T
  28   -311.2884331 -0.671049E-02  0.980E-02    0.05       1.0  T
  29   -311.2953118 -0.687876E-02  0.469E-02    0.05       1.0  T
  30   -311.2969524 -0.164059E-02  0.235E-02    0.05       1.0  T
  31   -311.2973685 -0.416143E-03  0.107E-02    0.05       1.0  T
  32   -311.2973923 -0.237862E-04  0.951E-03    0.05       1.0  T
  33   -311.2974268 -0.344967E-04  0.737E-03    0.05       1.0  T
  34   -311.2974565 -0.297244E-04  0.483E-03    0.05       1.5  T
  35   -311.2974743 -0.177108E-04  0.216E-03    0.05       3.4  T
  36   -311.2974770 -0.272152E-05  0.127E-03    0.05       5.9  T
  37   -311.2974781 -0.109356E-05  0.596E-04    0.05      12.5  T
  38   -311.2974778  0.242458E-06  0.782E-04    0.05       9.5  T
  39   -311.2974782 -0.320096E-06  0.515E-04    0.05      14.4  T
  40   -311.2974784 -0.236754E-06  0.105E-04    0.05      71.1  T
  41   -311.2974784 -0.209752E-08  0.900E-05    0.05      82.6  T
     SCC iter.                  ...        0 min,  4.992 sec
     gradient                   ...        0 min,  0.533 sec
 * total energy  :  -306.5126638 Eh     change       -0.2804552E-01 Eh
   gradient norm :     0.0808153 Eh/α   predicted    -0.2575442E-01 (  -8.17%)
   displ. norm   :     0.6900474 α      lambda       -0.2726226E-01
   maximum displ.:     0.1790733 α      in ANC's #98, #95, #47, ...

........................................................................
.............................. CYCLE    8 ..............................
........................................................................
   1   -311.1578613 -0.311158E+03  0.450E-01    0.02       0.0  T
   2   -274.0964260  0.370614E+02  0.578E+00    0.06       1.0  T
   3   -303.0333421 -0.289369E+02  0.308E+00    0.02       1.0  T
   4   -295.6180166  0.741533E+01  0.389E+00    0.01       1.0  T
   5   -307.9673550 -0.123493E+02  0.187E+00    0.00       1.0  T
   6   -307.0147204  0.952635E+00  0.208E+00    0.01       1.0  T
   7   -310.5353944 -0.352067E+01  0.923E-01    0.08       1.0  T
   8   -309.8593695  0.676025E+00  0.123E+00    0.01       1.0  T
   9   -310.1167853 -0.257416E+00  0.112E+00    0.00       1.0  T
  10   -310.8431373 -0.726352E+00  0.721E-01    0.00       1.0  T
  11   -311.1685625 -0.325425E+00  0.437E-01    0.01       1.0  T
  12   -310.7285782  0.439984E+00  0.807E-01    0.03       1.0  T
  13   -311.1525979 -0.424020E+00  0.445E-01    0.07       1.0  T
  14   -311.3285279 -0.175930E+00  0.969E-02    0.04       1.0  T
  15   -311.2387471  0.897808E-01  0.333E-01    0.04       1.0  T
  16   -311.2565418 -0.177947E-01  0.304E-01    0.06       1.0  T
  17   -311.2183291  0.382127E-01  0.367E-01    0.07       1.0  T
  18   -311.2128315  0.549768E-02  0.375E-01    0.08       1.0  T
  19   -311.2645628 -0.517313E-01  0.288E-01    0.07       1.0  T
  20   -311.2896172 -0.250545E-01  0.234E-01    0.07       1.0  T
  21   -311.2783503  0.112669E-01  0.256E-01    0.07       1.0  T
  22   -311.2875884 -0.923808E-02  0.234E-01    0.07       1.0  T
  23   -311.3149447 -0.273563E-01  0.158E-01    0.06       1.0  T
  24   -311.3299037 -0.149590E-01  0.964E-02    0.06       1.0  T
  25   -311.3338039 -0.390018E-02  0.718E-02    0.05       1.0  T
  26   -311.3385552 -0.475126E-02  0.130E-02    0.05       1.0  T
  27   -311.3386639 -0.108706E-03  0.725E-03    0.05       1.0  T
  28   -311.3386861 -0.221835E-04  0.504E-03    0.04       1.5  T
  29   -311.3387110 -0.249096E-04  0.781E-04    0.05       9.5  T
  30   -311.3387076  0.338618E-05  0.205E-03    0.04       3.6  T
  31   -311.3387101 -0.253221E-05  0.126E-03    0.04       5.9  T
  32   -311.3387116 -0.150152E-05  0.191E-04    0.05      38.8  T
  33   -311.3387116  0.448679E-07  0.292E-04    0.05      25.5  T
  34   -311.3387116 -0.414176E-07  0.189E-04    0.05      39.2  T
  35   -311.3387117 -0.310765E-07  0.334E-05    0.05     222.3  T
     SCC iter.                  ...        0 min,  4.120 sec
     gradient                   ...        0 min,  0.529 sec
 * total energy  :  -306.5346632 Eh     change       -0.2199940E-01 Eh
   gradient norm :     0.0602705 Eh/α   predicted    -0.2012181E-01 (  -8.53%)
   displ. norm   :     0.7258375 α      lambda       -0.2153574E-01
   maximum displ.:     0.1816638 α      in ANC's #98, #95, #40, ...

........................................................................
.............................. CYCLE    9 ..............................
........................................................................
   1   -310.9266540 -0.310927E+03  0.689E-01    0.01       0.0  T
   2   -242.2716046  0.686550E+02  0.758E+00    0.36       1.0  T
   3   -301.0364098 -0.587648E+02  0.336E+00    0.01       1.0  T
   4   -299.9961518  0.104026E+01  0.328E+00    0.01       1.0  T
   5   -298.0439295  0.195222E+01  0.367E+00    0.02       1.0  T
   6   -308.8485599 -0.108046E+02  0.161E+00    0.06       1.0  T
   7   -298.7122857  0.101363E+02  0.352E+00    0.01       1.0  T
   8   -303.0618860 -0.434960E+01  0.288E+00    0.02       1.0  T
   9   -309.9733895 -0.691150E+01  0.115E+00    0.02       1.0  T
  10   -310.6086884 -0.635299E+00  0.952E-01    0.04       1.0  T
  11   -308.5450045  0.206368E+01  0.177E+00    0.05       1.0  T
  12   -305.8705004  0.267450E+01  0.244E+00    0.00       1.0  T
  13   -309.5870516 -0.371655E+01  0.141E+00    0.01       1.0  T
  14   -309.6350393 -0.479877E-01  0.140E+00    0.12       1.0  T
  15   -310.0575791 -0.422540E+00  0.120E+00    0.06       1.0  T
  16   -310.0368228  0.207564E-01  0.122E+00    0.04       1.0  T
  17   -310.3339904 -0.297168E+00  0.105E+00    0.06       1.0  T
  18   -310.8162645 -0.482274E+00  0.771E-01    0.02       1.0  T
  19   -310.8953869 -0.791224E-01  0.710E-01    0.02       1.0  T
  20   -310.9010449 -0.565800E-02  0.700E-01    0.02       1.0  T
  21   -310.9552773 -0.542324E-01  0.656E-01    0.01       1.0  T
  22   -311.1104231 -0.155146E+00  0.514E-01    0.00       1.0  T
  23   -311.1911251 -0.807020E-01  0.422E-01    0.01       1.0  T
  24   -311.3056864 -0.114561E+00  0.250E-01    0.06       1.0  T
  25   -311.2817762  0.239102E-01  0.292E-01    0.01       1.0  T
  26   -311.1772245  0.104552E+00  0.454E-01    0.09       1.0  T
  27   -311.3612251 -0.184001E+00  0.375E-02    0.04       1.0  T
  28   -311.3608349  0.390211E-03  0.458E-02    0.04       1.0  T
  29   -311.3623408 -0.150586E-02  0.168E-02    0.04       1.0  T
  30   -311.3619069  0.433908E-03  0.255E-02    0.04       1.0  T
  31   -311.3621620 -0.255107E-03  0.198E-02    0.04       1.0  T
  32   -311.3624861 -0.324162E-03  0.829E-03    0.04       1.0  T
  33   -311.3624638  0.223357E-04  0.969E-03    0.04       1.0  T
  34   -311.3624408  0.230117E-04  0.110E-02    0.04       1.0  T
  35   -311.3625508 -0.109974E-03  0.175E-03    0.04       4.3  T
  36   -311.3625417  0.904690E-05  0.327E-03    0.04       2.3  T
  37   -311.3625389  0.283327E-05  0.376E-03    0.04       2.0  T
  38   -311.3625469 -0.799080E-05  0.252E-03    0.04       2.9  T
  39   -311.3625509 -0.401125E-05  0.165E-03    0.04       4.5  T
  40   -311.3625535 -0.259254E-05  0.461E-04    0.04      16.1  T
  41   -311.3625530  0.449570E-06  0.853E-04    0.04       8.7  T
  42   -311.3625536 -0.577435E-06  0.328E-04    0.04      22.7  T
  43   -311.3625537 -0.761470E-07  0.153E-04    0.04      48.7  T
  44   -311.3625537 -0.211464E-07  0.148E-05    0.04     502.3  T
     SCC iter.                  ...        0 min,  5.118 sec
     gradient                   ...        0 min,  0.527 sec
 * total energy  :  -306.5524185 Eh     change       -0.1775537E-01 Eh
   gradient norm :     0.0631657 Eh/α   predicted    -0.1644082E-01 (  -7.40%)
   displ. norm   :     0.7515398 α      lambda       -0.1964600E-01
   maximum displ.:     0.1871883 α      in ANC's #95, #49, #45, ...

........................................................................
.............................. CYCLE   10 ..............................
........................................................................
   1   -310.8705648 -0.310871E+03  0.761E-01    0.01       0.0  T
   2   -242.2810249  0.685895E+02  0.757E+00    0.44       1.0  T
   3   -300.0473896 -0.577664E+02  0.350E+00    0.01       1.0  T
   4   -300.0329253  0.144644E-01  0.326E+00    0.01       1.0  T
   5   -297.3260348  0.270689E+01  0.376E+00    0.01       1.0  T
   6   -309.5762252 -0.122502E+02  0.139E+00    0.14       1.0  T
   7   -298.9612864  0.106149E+02  0.350E+00    0.01       1.0  T
   8   -310.0051155 -0.110438E+02  0.117E+00    0.02       1.0  T
   9   -304.7296979  0.527542E+01  0.259E+00    0.01       1.0  T
  10   -308.4967541 -0.376706E+01  0.182E+00    0.07       1.0  T
  11   -305.9429098  0.255384E+01  0.247E+00    0.02       1.0  T
  12   -306.7676674 -0.824758E+00  0.228E+00    0.04       1.0  T
  13   -309.8871114 -0.311944E+01  0.124E+00    0.01       1.0  T
  14   -309.8362858  0.508256E-01  0.128E+00    0.00       1.0  T
  15   -311.0588548 -0.122257E+01  0.654E-01    0.01       1.0  T
  16   -307.9379517  0.312090E+01  0.197E+00    0.11       1.0  T
  17   -308.5307845 -0.592833E+00  0.179E+00    0.12       1.0  T
  18   -308.7405326 -0.209748E+00  0.172E+00    0.08       1.0  T
  19   -308.9572236 -0.216691E+00  0.165E+00    0.07       1.0  T
  20   -310.0501169 -0.109289E+01  0.123E+00    0.05       1.0  T
  21   -310.4961293 -0.446012E+00  0.101E+00    0.06       1.0  T
  22   -311.2181370 -0.722008E+00  0.468E-01    0.01       1.0  T
  23   -310.6870274  0.531110E+00  0.884E-01    0.03       1.0  T
  24   -311.3860305 -0.699003E+00  0.135E-01    0.03       1.0  T
  25   -311.3404565  0.455740E-01  0.260E-01    0.02       1.0  T
  26   -311.4012844 -0.608279E-01  0.383E-02    0.04       1.0  T
  27   -311.3763006  0.249837E-01  0.167E-01    0.05       1.0  T
  28   -311.3299272  0.463735E-01  0.283E-01    0.06       1.0  T
  29   -311.3043762  0.255510E-01  0.330E-01    0.06       1.0  T
  30   -311.2904706  0.139056E-01  0.353E-01    0.06       1.0  T
  31   -311.3147847 -0.243142E-01  0.313E-01    0.06       1.0  T
  32   -311.3875574 -0.727727E-01  0.132E-01    0.05       1.0  T
  33   -311.4006073 -0.130499E-01  0.532E-02    0.04       1.0  T
  34   -311.4019751 -0.136776E-02  0.376E-02    0.04       1.0  T
  35   -311.4011583  0.816755E-03  0.471E-02    0.04       1.0  T
  36   -311.4027792 -0.162086E-02  0.201E-02    0.04       1.0  T
  37   -311.4030267 -0.247503E-03  0.115E-02    0.04       1.0  T
  38   -311.4030044  0.222237E-04  0.128E-02    0.03       1.0  T
  39   -311.4030129 -0.848538E-05  0.127E-02    0.03       1.0  T
  40   -311.4031032 -0.903096E-04  0.788E-03    0.03       1.0  T
  41   -311.4031399 -0.366725E-04  0.479E-03    0.03       1.6  T
  42   -311.4031599 -0.200112E-04  0.111E-03    0.03       6.7  T
  43   -311.4031601 -0.125294E-06  0.110E-03    0.03       6.7  T
  44   -311.4031586  0.142985E-05  0.167E-03    0.03       4.5  T
  45   -311.4031585  0.108146E-06  0.170E-03    0.03       4.4  T
  46   -311.4031609 -0.239934E-05  0.503E-04    0.03      14.8  T
  47   -311.4031611 -0.144634E-06  0.300E-04    0.03      24.7  T
  48   -311.4031611 -0.670900E-07  0.116E-04    0.03      63.8  T
  49   -311.4031611 -0.203471E-08  0.104E-04    0.03      71.7  T
     SCC iter.                  ...        0 min,  5.663 sec
     gradient                   ...        0 min,  0.523 sec
 * total energy  :  -306.5681574 Eh     change       -0.1573883E-01 Eh
   gradient norm :     0.0662032 Eh/α   predicted    -0.1537116E-01 (  -2.34%)
   displ. norm   :     0.7846367 α      lambda       -0.2016689E-01
   maximum displ.:     0.2113017 α      in ANC's #40, #41, #35, ...

........................................................................
.............................. CYCLE   11 ..............................
........................................................................
   1   -311.0175096 -0.311018E+03  0.666E-01    0.01       0.0  T
   2   -261.8858847  0.491316E+02  0.654E+00    0.01       1.0  T
   3   -300.3614709 -0.384756E+02  0.347E+00    0.01       1.0  T
   4   -305.9720588 -0.561059E+01  0.233E+00    0.02       1.0  T
   5   -307.6979004 -0.172584E+01  0.198E+00    0.03       1.0  T
   6   -299.7404805  0.795742E+01  0.342E+00    0.01       1.0  T
   7   -301.8700149 -0.212953E+01  0.310E+00    0.00       1.0  T
   8   -302.2350539 -0.365039E+00  0.303E+00    0.00       1.0  T
   9   -305.3678458 -0.313279E+01  0.247E+00    0.00       1.0  T
  10   -300.6667820  0.470106E+01  0.334E+00    0.03       1.0  T
  11   -299.1338986  0.153288E+01  0.355E+00    0.03       1.0  T
  12   -299.3337378 -0.199839E+00  0.353E+00    0.03       1.0  T
  13   -308.0401865 -0.870645E+01  0.191E+00    0.11       1.0  T
  14   -310.2756922 -0.223551E+01  0.104E+00    0.03       1.0  T
  15   -304.5679937  0.570770E+01  0.260E+00    0.03       1.0  T
  16   -310.4792499 -0.591126E+01  0.103E+00    0.06       1.0  T
  17   -310.1132504  0.366000E+00  0.117E+00    0.08       1.0  T
  18   -311.0291458 -0.915895E+00  0.648E-01    0.09       1.0  T
  19   -311.0091462  0.199996E-01  0.659E-01    0.07       1.0  T
  20   -310.5503702  0.458776E+00  0.998E-01    0.11       1.0  T
  21   -310.5376616  0.127087E-01  0.100E+00    0.12       1.0  T
  22   -310.4763617  0.612999E-01  0.102E+00    0.08       1.0  T
  23   -311.2018112 -0.725449E+00  0.468E-01    0.01       1.0  T
  24   -311.3984058 -0.196595E+00  0.177E-01    0.02       1.0  T
  25   -311.4063964 -0.799051E-02  0.153E-01    0.03       1.0  T
  26   -311.4057672  0.629186E-03  0.151E-01    0.03       1.0  T
  27   -311.3847108  0.210564E-01  0.203E-01    0.02       1.0  T
  28   -311.3818110  0.289979E-02  0.211E-01    0.02       1.0  T
  29   -311.3944317 -0.126207E-01  0.180E-01    0.04       1.0  T
  30   -311.3965353 -0.210353E-02  0.175E-01    0.03       1.0  T
  31   -311.3734006  0.231346E-01  0.237E-01    0.04       1.0  T
  32   -311.3919196 -0.185189E-01  0.191E-01    0.04       1.0  T
  33   -311.4185424 -0.266229E-01  0.842E-02    0.03       1.0  T
  34   -311.4227171 -0.417468E-02  0.485E-02    0.03       1.0  T
  35   -311.4210277  0.168944E-02  0.626E-02    0.03       1.0  T
  36   -311.4209051  0.122516E-03  0.639E-02    0.03       1.0  T
  37   -311.4217026 -0.797499E-03  0.572E-02    0.03       1.0  T
  38   -311.4241997 -0.249701E-02  0.236E-02    0.03       1.0  T
  39   -311.4238359  0.363795E-03  0.310E-02    0.03       1.0  T
  40   -311.4246237 -0.787827E-03  0.902E-03    0.03       1.0  T
  41   -311.4245736  0.501215E-04  0.114E-02    0.03       1.0  T
  42   -311.4246327 -0.591137E-04  0.752E-03    0.03       1.0  T
  43   -311.4246752 -0.424754E-04  0.277E-03    0.03       2.7  T
  44   -311.4246799 -0.476942E-05  0.143E-03    0.03       5.2  T
  45   -311.4246809 -0.100372E-05  0.965E-04    0.03       7.7  T
  46   -311.4246816 -0.654621E-06  0.509E-04    0.03      14.6  T
  47   -311.4246818 -0.193692E-06  0.224E-04    0.03      33.2  T
  48   -311.4246818 -0.238064E-07  0.149E-04    0.03      50.0  T
  49   -311.4246818 -0.183541E-07  0.512E-05    0.03     145.2  T
     SCC iter.                  ...        0 min,  5.641 sec
     gradient                   ...        0 min,  0.526 sec
 * total energy  :  -306.5855846 Eh     change       -0.1742719E-01 Eh
   gradient norm :     0.0777537 Eh/α   predicted    -0.1629137E-01 (  -6.52%)
   displ. norm   :     0.7842217 α      lambda       -0.2391679E-01
   maximum displ.:     0.1949219 α      in ANC's #40, #49, #41, ...

........................................................................
.............................. CYCLE   12 ..............................
........................................................................
   1   -311.0836973 -0.311084E+03  0.645E-01    0.04       0.0  T
   2   -272.1640782  0.389196E+02  0.585E+00    0.07       1.0  T
   3   -300.8960503 -0.287320E+02  0.342E+00    0.02       1.0  T
   4   -296.2556869  0.464036E+01  0.387E+00    0.01       1.0  T
   5   -304.8649382 -0.860925E+01  0.261E+00    0.02       1.0  T
   6   -307.7111692 -0.284623E+01  0.198E+00    0.00       1.0  T
   7   -303.1981541  0.451302E+01  0.286E+00    0.02       1.0  T
   8   -309.1634721 -0.596532E+01  0.155E+00    0.02       1.0  T
   9   -304.1541002  0.500937E+01  0.276E+00    0.03       1.0  T
  10   -305.8811112 -0.172701E+01  0.241E+00    0.01       1.0  T
  11   -309.1216010 -0.324049E+01  0.158E+00    0.10       1.0  T
  12   -311.2752047 -0.215360E+01  0.430E-01    0.02       1.0  T
  13   -309.5307795  0.174443E+01  0.143E+00    0.02       1.0  T
  14   -310.7301621 -0.119938E+01  0.893E-01    0.01       1.0  T
  15   -311.1887100 -0.458548E+00  0.585E-01    0.06       1.0  T
  16   -311.1851460  0.356396E-02  0.589E-01    0.06       1.0  T
  17   -311.1998481 -0.147021E-01  0.575E-01    0.06       1.0  T
  18   -310.4030930  0.796755E+00  0.112E+00    0.08       1.0  T
  19   -309.9013401  0.501753E+00  0.133E+00    0.06       1.0  T
  20   -309.9904977 -0.891576E-01  0.129E+00    0.06       1.0  T
  21   -310.1222934 -0.131796E+00  0.121E+00    0.07       1.0  T
  22   -310.4067053 -0.284412E+00  0.108E+00    0.07       1.0  T
  23   -310.7270729 -0.320368E+00  0.900E-01    0.07       1.0  T
  24   -311.1544611 -0.427388E+00  0.573E-01    0.04       1.0  T
  25   -311.3167107 -0.162250E+00  0.401E-01    0.06       1.0  T
  26   -311.2378702  0.788405E-01  0.492E-01    0.01       1.0  T
  27   -311.4249749 -0.187105E+00  0.216E-01    0.04       1.0  T
  28   -311.3089431  0.116032E+00  0.413E-01    0.02       1.0  T
  29   -311.4342877 -0.125345E+00  0.195E-01    0.04       1.0  T
  30   -311.4252941  0.899358E-02  0.219E-01    0.04       1.0  T
  31   -311.4554676 -0.301734E-01  0.126E-01    0.05       1.0  T
  32   -311.4578182 -0.235065E-02  0.114E-01    0.05       1.0  T
  33   -311.4673828 -0.956457E-02  0.510E-02    0.05       1.0  T
  34   -311.4670432  0.339623E-03  0.514E-02    0.05       1.0  T
  35   -311.4672117 -0.168513E-03  0.480E-02    0.05       1.0  T
  36   -311.4680765 -0.864787E-03  0.380E-02    0.05       1.0  T
  37   -311.4686277 -0.551277E-03  0.298E-02    0.05       1.0  T
  38   -311.4692653 -0.637584E-03  0.172E-02    0.05       1.0  T
  39   -311.4692923 -0.270128E-04  0.166E-02    0.05       1.0  T
  40   -311.4695179 -0.225613E-03  0.604E-03    0.05       1.2  T
  41   -311.4695277 -0.979199E-05  0.512E-03    0.05       1.5  T
  42   -311.4695526 -0.248421E-04  0.508E-04    0.05      14.6  T
  43   -311.4695522  0.364808E-06  0.750E-04    0.05       9.9  T
  44   -311.4695527 -0.472960E-06  0.353E-04    0.05      21.1  T
  45   -311.4695518  0.833717E-06  0.995E-04    0.05       7.5  T
  46   -311.4695524 -0.568300E-06  0.628E-04    0.05      11.8  T
  47   -311.4695525 -0.122488E-06  0.523E-04    0.05      14.2  T
  48   -311.4695527 -0.127722E-06  0.374E-04    0.05      19.9  T
  49   -311.4695528 -0.132316E-06  0.365E-05    0.05     203.5  T
  50   -311.4695528  0.141523E-08  0.539E-05    0.05     138.0  T
     SCC iter.                  ...        0 min,  5.859 sec
     gradient                   ...        0 min,  0.531 sec
 * total energy  :  -306.6077752 Eh     change       -0.2219068E-01 Eh
   gradient norm :     0.1030391 Eh/α   predicted    -0.1931286E-01 ( -12.97%)
   displ. norm   :     0.8019406 α      lambda       -0.3381179E-01
   maximum displ.:     0.2057048 α      in ANC's #418, #118, #41, ...

........................................................................
.............................. CYCLE   13 ..............................
........................................................................
   1   -311.3181869 -0.311318E+03  0.461E-01    0.06       0.0  T
   2   -275.6971783  0.356210E+02  0.560E+00    0.04       1.0  T
   3   -303.4255941 -0.277284E+02  0.301E+00    0.09       1.0  T
   4   -297.5787513  0.584684E+01  0.373E+00    0.00       1.0  T
   5   -309.0730790 -0.114943E+02  0.157E+00    0.01       1.0  T
   6   -299.4508924  0.962219E+01  0.345E+00    0.01       1.0  T
   7   -305.6432086 -0.619232E+01  0.244E+00    0.00       1.0  T
   8   -303.0198151  0.262339E+01  0.291E+00    0.01       1.0  T
   9   -306.9002061 -0.388039E+01  0.215E+00    0.01       1.0  T
  10   -308.9929970 -0.209279E+01  0.164E+00    0.02       1.0  T
  11   -311.1354627 -0.214247E+01  0.616E-01    0.08       1.0  T
  12   -310.6834911  0.451972E+00  0.884E-01    0.01       1.0  T
  13   -311.4135234 -0.730032E+00  0.299E-01    0.06       1.0  T
  14   -311.0456406  0.367883E+00  0.714E-01    0.01       1.0  T
  15   -311.1215044 -0.758638E-01  0.652E-01    0.02       1.0  T
  16   -311.2341145 -0.112610E+00  0.553E-01    0.03       1.0  T
  17   -311.4155611 -0.181447E+00  0.330E-01    0.07       1.0  T
  18   -311.4768080 -0.612469E-01  0.193E-01    0.06       1.0  T
  19   -311.4409705  0.358375E-01  0.268E-01    0.05       1.0  T
  20   -311.5014602 -0.604898E-01  0.101E-01    0.07       1.0  T
  21   -311.5043288 -0.286854E-02  0.891E-02    0.07       1.0  T
  22   -311.5029918  0.133699E-02  0.941E-02    0.07       1.0  T
  23   -311.5055168 -0.252503E-02  0.781E-02    0.07       1.0  T
  24   -311.4910718  0.144451E-01  0.145E-01    0.07       1.0  T
  25   -311.5024059 -0.113341E-01  0.952E-02    0.07       1.0  T
  26   -311.4999358  0.247009E-02  0.107E-01    0.07       1.0  T
  27   -311.5076808 -0.774507E-02  0.587E-02    0.08       1.0  T
  28   -311.5087526 -0.107175E-02  0.476E-02    0.08       1.0  T
  29   -311.5099807 -0.122813E-02  0.305E-02    0.08       1.0  T
  30   -311.5103236 -0.342843E-03  0.231E-02    0.08       1.0  T
  31   -311.5106519 -0.328326E-03  0.125E-02    0.08       1.0  T
  32   -311.5107502 -0.983281E-04  0.638E-03    0.08       1.2  T
  33   -311.5107390  0.112400E-04  0.682E-03    0.08       1.1  T
  34   -311.5107815 -0.424916E-04  0.300E-03    0.08       2.5  T
  35   -311.5107871 -0.558909E-05  0.208E-03    0.08       3.6  T
  36   -311.5107902 -0.312456E-05  0.132E-03    0.08       5.6  T
  37   -311.5107917 -0.147556E-05  0.525E-04    0.08      14.2  T
  38   -311.5107918 -0.157311E-06  0.327E-04    0.08      22.7  T
  39   -311.5107919 -0.798469E-07  0.141E-04    0.08      52.9  T
  40   -311.5107919 -0.983306E-08  0.960E-05    0.08      77.5  T
     SCC iter.                  ...        0 min,  4.703 sec
     gradient                   ...        0 min,  0.525 sec
 * total energy  :  -306.6283139 Eh     change       -0.2053871E-01 Eh
   gradient norm :     0.1282034 Eh/α   predicted    -0.2777825E-01 (  35.25%)
   displ. norm   :     0.6414638 α      lambda       -0.2581597E-01
   maximum displ.:     0.1960185 α      in ANC's #40, #35, #48, ...

........................................................................
.............................. CYCLE   14 ..............................
........................................................................
   1   -311.4712663 -0.311471E+03  0.190E-01    0.09       0.0  T
   2   -302.1380363  0.933323E+01  0.307E+00    0.03       1.0  T
   3   -298.2587718  0.387926E+01  0.364E+00    0.00       1.0  T
   4   -306.6305612 -0.837179E+01  0.239E+00    0.01       1.0  T
   5   -311.4653364 -0.483478E+01  0.200E-01    0.11       1.0  T
   6   -311.1186116  0.346725E+00  0.605E-01    0.04       1.0  T
   7   -311.2251988 -0.106587E+00  0.523E-01    0.06       1.0  T
   8   -311.1770065  0.481922E-01  0.564E-01    0.06       1.0  T
   9   -311.4349344 -0.257928E+00  0.261E-01    0.07       1.0  T
  10   -311.4900514 -0.551170E-01  0.110E-01    0.10       1.0  T
  11   -311.4442848  0.457666E-01  0.245E-01    0.06       1.0  T
  12   -311.4650098 -0.207250E-01  0.195E-01    0.07       1.0  T
  13   -311.4643429  0.666818E-03  0.194E-01    0.07       1.0  T
  14   -311.4870004 -0.226574E-01  0.121E-01    0.08       1.0  T
  15   -311.4988707 -0.118703E-01  0.556E-02    0.09       1.0  T
  16   -311.4904763  0.839442E-02  0.107E-01    0.08       1.0  T
  17   -311.4897399  0.736335E-03  0.110E-01    0.08       1.0  T
  18   -311.4977436 -0.800365E-02  0.634E-02    0.09       1.0  T
  19   -311.4944008  0.334278E-02  0.847E-02    0.09       1.0  T
  20   -311.4990059 -0.460506E-02  0.498E-02    0.09       1.0  T
  21   -311.5000462 -0.104033E-02  0.379E-02    0.10       1.0  T
  22   -311.5007767 -0.730507E-03  0.257E-02    0.10       1.0  T
  23   -311.5011851 -0.408409E-03  0.155E-02    0.10       1.0  T
  24   -311.5013293 -0.144239E-03  0.923E-03    0.09       1.0  T
  25   -311.5013884 -0.590296E-04  0.479E-03    0.09       1.6  T
  26   -311.5013965 -0.815111E-05  0.390E-03    0.09       1.9  T
  27   -311.5014095 -0.129864E-04  0.164E-03    0.09       4.5  T
  28   -311.5014095  0.118006E-07  0.165E-03    0.09       4.5  T
  29   -311.5014115 -0.199021E-05  0.867E-04    0.09       8.6  T
  30   -311.5014120 -0.482682E-06  0.531E-04    0.09      14.0  T
  31   -311.5014122 -0.212873E-06  0.273E-04    0.09      27.2  T
  32   -311.5014122 -0.716765E-07  0.676E-05    0.09     110.0  T
  33   -311.5014123 -0.407613E-08  0.113E-05    0.09     655.2  T
     SCC iter.                  ...        0 min,  4.144 sec
     gradient                   ...        0 min,  0.577 sec
 * total energy  :  -306.6410387 Eh     change       -0.1272476E-01 Eh
   gradient norm :     0.1215329 Eh/α   predicted    -0.1821931E-01 (  43.18%)
   displ. norm   :     0.4249062 α      lambda       -0.1919568E-01
   maximum displ.:     0.1439108 α      in ANC's #118, #48, #49, ...

........................................................................
.............................. CYCLE   15 ..............................
........................................................................
   1   -311.4823685 -0.311482E+03  0.166E-01    0.11       0.0  T
   2   -286.8481424  0.246342E+02  0.492E+00    0.13       1.0  T
   3   -309.7754456 -0.229273E+02  0.136E+00    0.03       1.0  T
   4   -309.6751161  0.100329E+00  0.137E+00    0.03       1.0  T
   5   -311.2583216 -0.158321E+01  0.510E-01    0.08       1.0  T
   6   -309.6504331  0.160789E+01  0.138E+00    0.00       1.0  T
   7   -310.6093484 -0.958915E+00  0.965E-01    0.05       1.0  T
   8   -311.4560766 -0.846728E+00  0.218E-01    0.09       1.0  T
   9   -311.4845284 -0.284518E-01  0.151E-01    0.08       1.0  T
  10   -311.4947234 -0.101951E-01  0.111E-01    0.09       1.0  T
  11   -311.4942154  0.507986E-03  0.114E-01    0.08       1.0  T
  12   -311.4605920  0.336234E-01  0.216E-01    0.07       1.0  T
  13   -311.4817389 -0.211469E-01  0.156E-01    0.08       1.0  T
  14   -311.4972936 -0.155547E-01  0.981E-02    0.08       1.0  T
  15   -311.4826497  0.146438E-01  0.156E-01    0.08       1.0  T
  16   -311.4778510  0.479871E-02  0.170E-01    0.07       1.0  T
  17   -311.4990178 -0.211668E-01  0.856E-02    0.08       1.0  T
  18   -311.5048487 -0.583087E-02  0.385E-02    0.09       1.0  T
  19   -311.5049575 -0.108866E-03  0.358E-02    0.09       1.0  T
  20   -311.5059306 -0.973094E-03  0.151E-02    0.09       1.0  T
  21   -311.5054858  0.444831E-03  0.260E-02    0.09       1.0  T
  22   -311.5059047 -0.418914E-03  0.147E-02    0.09       1.0  T
  23   -311.5059324 -0.276367E-04  0.128E-02    0.09       1.0  T
  24   -311.5060268 -0.944847E-04  0.744E-03    0.09       1.0  T
  25   -311.5060435 -0.166257E-04  0.595E-03    0.09       1.2  T
  26   -311.5060618 -0.183152E-04  0.391E-03    0.09       1.9  T
  27   -311.5060673 -0.556829E-05  0.308E-03    0.09       2.4  T
  28   -311.5060728 -0.542555E-05  0.198E-03    0.09       3.8  T
  29   -311.5060754 -0.257691E-05  0.113E-03    0.09       6.6  T
  30   -311.5060764 -0.104307E-05  0.441E-04    0.09      16.9  T
  31   -311.5060765 -0.876917E-07  0.313E-04    0.09      23.7  T
  32   -311.5060766 -0.840295E-07  0.881E-05    0.09      84.4  T
  33   -311.5060766 -0.644746E-08  0.278E-05    0.09     267.1  T
     SCC iter.                  ...        0 min,  4.155 sec
     gradient                   ...        0 min,  0.578 sec
 * total energy  :  -306.6540770 Eh     change       -0.1303829E-01 Eh
   gradient norm :     0.0688419 Eh/α   predicted    -0.1133068E-01 ( -13.10%)
   displ. norm   :     0.5886856 α      lambda       -0.1562438E-01
   maximum displ.:     0.1553493 α      in ANC's #49, #23, #94, ...

........................................................................
.............................. CYCLE   16 ..............................
........................................................................
   1   -311.5231262 -0.311523E+03  0.704E-02    0.10       0.0  T
   2   -308.8930224  0.263010E+01  0.174E+00    0.01       1.0  T
   3   -311.1108483 -0.221783E+01  0.646E-01    0.02       1.0  T
   4   -311.4824551 -0.371607E+00  0.217E-01    0.11       1.0  T
   5   -307.7876255  0.369483E+01  0.195E+00    0.01       1.0  T
   6   -311.4540459 -0.366642E+01  0.264E-01    0.10       1.0  T
   7   -311.4676938 -0.136478E-01  0.239E-01    0.08       1.0  T
   8   -311.5011196 -0.334258E-01  0.155E-01    0.08       1.0  T
   9   -311.5097033 -0.858374E-02  0.126E-01    0.10       1.0  T
  10   -311.5247928 -0.150895E-01  0.226E-02    0.10       1.0  T
  11   -311.5227106  0.208219E-02  0.515E-02    0.09       1.0  T
  12   -311.5251986 -0.248800E-02  0.896E-03    0.10       1.0  T
  13   -311.5245946  0.604018E-03  0.267E-02    0.10       1.0  T
  14   -311.5244984  0.962265E-04  0.301E-02    0.10       1.0  T
  15   -311.5247061 -0.207711E-03  0.254E-02    0.10       1.0  T
  16   -311.5248452 -0.139072E-03  0.222E-02    0.10       1.0  T
  17   -311.5248795 -0.343856E-04  0.213E-02    0.10       1.0  T
  18   -311.5243699  0.509676E-03  0.305E-02    0.09       1.0  T
  19   -311.5250395 -0.669642E-03  0.153E-02    0.10       1.0  T
  20   -311.5252294 -0.189873E-03  0.636E-03    0.10       1.2  T
  21   -311.5252056  0.238372E-04  0.792E-03    0.10       1.0  T
  22   -311.5252496 -0.440365E-04  0.402E-03    0.10       1.8  T
  23   -311.5252634 -0.138105E-04  0.145E-03    0.10       5.1  T
  24   -311.5252646 -0.117044E-05  0.941E-04    0.10       7.9  T
  25   -311.5252649 -0.305281E-06  0.755E-04    0.10       9.8  T
  26   -311.5252651 -0.251160E-06  0.548E-04    0.10      13.6  T
  27   -311.5252653 -0.126088E-06  0.412E-04    0.10      18.0  T
  28   -311.5252653 -0.451459E-07  0.348E-04    0.10      21.4  T
  29   -311.5252654 -0.766805E-07  0.196E-04    0.10      37.9  T
  30   -311.5252654 -0.280885E-07  0.889E-05    0.10      83.6  T
     SCC iter.                  ...        0 min,  3.519 sec
     gradient                   ...        0 min,  0.520 sec
 * total energy  :  -306.6625002 Eh     change       -0.8423208E-02 Eh
   gradient norm :     0.1008044 Eh/α   predicted    -0.1051951E-01 (  24.89%)
   displ. norm   :     0.5824645 α      lambda       -0.1441797E-01
   maximum displ.:     0.1514798 α      in ANC's #41, #25, #49, ...

........................................................................
.............................. CYCLE   17 ..............................
........................................................................
   1   -311.4909157 -0.311491E+03  0.891E-02    0.09       0.0  T
   2   -306.8417111  0.464920E+01  0.219E+00    0.01       1.0  T
   3   -300.1583522  0.668336E+01  0.335E+00    0.02       1.0  T
   4   -309.8373669 -0.967901E+01  0.140E+00    0.02       1.0  T
   5   -311.1730216 -0.133565E+01  0.582E-01    0.04       1.0  T
   6   -311.3586821 -0.185661E+00  0.380E-01    0.12       1.0  T
   7   -311.4703992 -0.111717E+00  0.168E-01    0.09       1.0  T
   8   -311.4223595  0.480397E-01  0.282E-01    0.14       1.0  T
   9   -311.4598393 -0.374798E-01  0.196E-01    0.09       1.0  T
  10   -311.4351245  0.247148E-01  0.250E-01    0.08       1.0  T
  11   -311.4822453 -0.471208E-01  0.126E-01    0.11       1.0  T
  12   -311.4874633 -0.521795E-02  0.100E-01    0.09       1.0  T
  13   -311.4625116  0.249517E-01  0.185E-01    0.07       1.0  T
  14   -311.4821428 -0.196312E-01  0.125E-01    0.08       1.0  T
  15   -311.4906415 -0.849875E-02  0.815E-02    0.09       1.0  T
  16   -311.4939354 -0.329386E-02  0.576E-02    0.09       1.0  T
  17   -311.4944553 -0.519861E-03  0.515E-02    0.09       1.0  T
  18   -311.4949305 -0.475229E-03  0.459E-02    0.09       1.0  T
  19   -311.4955621 -0.631565E-03  0.369E-02    0.09       1.0  T
  20   -311.4962702 -0.708133E-03  0.240E-02    0.10       1.0  T
  21   -311.4965299 -0.259667E-03  0.167E-02    0.10       1.0  T
  22   -311.4967423 -0.212468E-03  0.727E-03    0.10       1.0  T
  23   -311.4967742 -0.318534E-04  0.474E-03    0.10       1.6  T
  24   -311.4967887 -0.145667E-04  0.291E-03    0.10       2.6  T
  25   -311.4967869  0.186154E-05  0.338E-03    0.10       2.2  T
  26   -311.4967910 -0.407750E-05  0.246E-03    0.10       3.0  T
  27   -311.4967913 -0.333940E-06  0.228E-03    0.10       3.3  T
  28   -311.4967925 -0.124526E-05  0.191E-03    0.10       3.9  T
  29   -311.4967938 -0.122733E-05  0.151E-03    0.10       4.9  T
  30   -311.4967950 -0.128299E-05  0.907E-04    0.10       8.2  T
  31   -311.4967955 -0.502310E-06  0.481E-04    0.10      15.4  T
  32   -311.4967957 -0.169003E-06  0.182E-04    0.10      40.9  T
  33   -311.4967957 -0.265172E-07  0.469E-05    0.10     158.5  T
     SCC iter.                  ...        0 min,  3.755 sec
     gradient                   ...        0 min,  0.521 sec
 * total energy  :  -306.6655035 Eh     change       -0.3003245E-02 Eh
   gradient norm :     0.1242791 Eh/α   predicted    -0.9654746E-02 ( 221.48%)
   displ. norm   :     0.3858823 α      lambda       -0.1307130E-01
   maximum displ.:     0.1438183 α      in ANC's #48, #23, #49, ...

........................................................................
.............................. CYCLE   18 ..............................
........................................................................
   1   -311.5283572 -0.311528E+03  0.516E-02    0.09       0.0  T
   2   -306.7683963  0.475996E+01  0.221E+00    0.01       1.0  T
   3   -302.1921367  0.457626E+01  0.304E+00    0.01       1.0  T
   4   -311.3665456 -0.917441E+01  0.430E-01    0.08       1.0  T
   5   -311.4617796 -0.952340E-01  0.280E-01    0.08       1.0  T
   6   -311.4150376  0.467421E-01  0.343E-01    0.06       1.0  T
   7   -311.4349402 -0.199026E-01  0.309E-01    0.09       1.0  T
   8   -311.4972860 -0.623458E-01  0.180E-01    0.09       1.0  T
   9   -311.5013867 -0.410070E-02  0.166E-01    0.08       1.0  T
  10   -311.5104326 -0.904589E-02  0.144E-01    0.08       1.0  T
  11   -311.5263008 -0.158682E-01  0.636E-02    0.10       1.0  T
  12   -311.5208289  0.547188E-02  0.975E-02    0.09       1.0  T
  13   -311.5291130 -0.828400E-02  0.354E-02    0.09       1.0  T
  14   -311.5288260  0.286975E-03  0.390E-02    0.09       1.0  T
  15   -311.5301308 -0.130479E-02  0.136E-02    0.09       1.0  T
  16   -311.5302991 -0.168295E-03  0.394E-03    0.09       1.9  T
  17   -311.5302961  0.299970E-05  0.437E-03    0.09       1.7  T
  18   -311.5303106 -0.145267E-04  0.214E-03    0.09       3.5  T
  19   -311.5303133 -0.269951E-05  0.128E-03    0.09       5.8  T
  20   -311.5303148 -0.153043E-05  0.227E-04    0.09      32.7  T
  21   -311.5303147  0.936688E-07  0.407E-04    0.09      18.3  T
  22   -311.5303148 -0.500314E-07  0.332E-04    0.09      22.4  T
  23   -311.5303148 -0.102762E-07  0.316E-04    0.09      23.5  T
  24   -311.5303148 -0.211646E-07  0.277E-04    0.09      26.9  T
  25   -311.5303148 -0.253646E-07  0.220E-04    0.09      33.8  T
  26   -311.5303149 -0.191629E-07  0.164E-04    0.09      45.3  T
  27   -311.5303149 -0.126308E-07  0.112E-04    0.09      66.2  T
     SCC iter.                  ...        0 min,  3.064 sec
     gradient                   ...        0 min,  0.511 sec
 * total energy  :  -306.6731684 Eh     change       -0.7664905E-02 Eh
   gradient norm :     0.0581184 Eh/α   predicted    -0.7508848E-02 (  -2.04%)
   displ. norm   :     0.4985012 α      lambda       -0.8489935E-02
   maximum displ.:     0.1592246 α      in ANC's #23, #13, #17, ...

........................................................................
.............................. CYCLE   19 ..............................
........................................................................
   1   -311.5455350 -0.311546E+03  0.269E-02    0.10       0.0  T
   2   -303.4115219  0.813401E+01  0.287E+00    0.01       1.0  T
   3   -311.4919768 -0.808045E+01  0.246E-01    0.13       1.0  T
   4   -310.9924201  0.499557E+00  0.757E-01    0.02       1.0  T
   5   -310.0751202  0.917300E+00  0.124E+00    0.01       1.0  T
   6   -311.4335540 -0.135843E+01  0.337E-01    0.08       1.0  T
   7   -311.3425354  0.910186E-01  0.453E-01    0.09       1.0  T
   8   -311.4288667 -0.863314E-01  0.347E-01    0.10       1.0  T
   9   -311.2982298  0.130637E+00  0.494E-01    0.07       1.0  T
  10   -311.3653295 -0.670998E-01  0.422E-01    0.08       1.0  T
  11   -311.4627938 -0.974642E-01  0.281E-01    0.09       1.0  T
  12   -311.5319484 -0.691546E-01  0.113E-01    0.10       1.0  T
  13   -311.5390331 -0.708473E-02  0.801E-02    0.10       1.0  T
  14   -311.5407751 -0.174203E-02  0.708E-02    0.10       1.0  T
  15   -311.5408869 -0.111818E-03  0.726E-02    0.10       1.0  T
  16   -311.5425026 -0.161571E-02  0.593E-02    0.10       1.0  T
  17   -311.5444961 -0.199345E-02  0.380E-02    0.10       1.0  T
  18   -311.5452147 -0.718604E-03  0.263E-02    0.10       1.0  T
  19   -311.5445362  0.678466E-03  0.369E-02    0.09       1.0  T
  20   -311.5443833  0.152954E-03  0.390E-02    0.09       1.0  T
  21   -311.5453034 -0.920172E-03  0.242E-02    0.09       1.0  T
  22   -311.5458445 -0.541060E-03  0.693E-03    0.09       1.1  T
  23   -311.5458264  0.181158E-04  0.815E-03    0.10       1.0  T
  24   -311.5458289 -0.254035E-05  0.798E-03    0.10       1.0  T
  25   -311.5458289 -0.515291E-08  0.796E-03    0.10       1.0  T
  26   -311.5458447 -0.158045E-04  0.678E-03    0.10       1.1  T
  27   -311.5458635 -0.188019E-04  0.504E-03    0.09       1.5  T
  28   -311.5458799 -0.163682E-04  0.272E-03    0.09       2.7  T
[...]
   116   1 H    0.998 --    93 C    0.975
   117   6 C    3.930 --   118 C    2.472   119 C    1.309
   118   6 C    3.914 --   117 C    2.472    20 C    1.184   120 C    0.196
   119   6 C    3.925 --   120 C    2.469   117 C    1.309
   120   6 C    3.918 --   119 C    2.469   126 C    1.189   118 C    0.196
   121   6 C    3.925 --   122 C    2.474   123 C    1.304
   122   6 C    3.917 --   121 C    2.474   144 C    1.185   124 C    0.196
   123   6 C    3.931 --   124 C    2.477   121 C    1.304
   124   6 C    3.914 --   123 C    2.477    78 C    1.180   122 C    0.196
   125  26 Fe   3.088 --   161 N    0.655   142 N    0.653   149 N    0.651
                           131 N    0.650
   126   6 C    3.915 --   160 C    1.265   127 C    1.249   120 C    1.189
   127   6 C    3.909 --   126 C    1.249   131 N    1.247   128 C    1.192
   128   6 C    3.961 --   129 C    1.634   127 C    1.192   162 H    0.974
   129   6 C    3.960 --   128 C    1.634   130 C    1.182   163 H    0.973
   130   6 C    3.919 --   132 C    1.328   131 N    1.201   129 C    1.182
   131   7 N    3.370 --   127 C    1.247   130 C    1.201   125 Fe   0.650
   132   6 C    3.922 --   130 C    1.328   139 C    1.311   133 C    1.032
   133   6 C    3.982 --   134 C    1.744   138 C    1.107   132 C    1.032
   134   6 C    3.942 --   133 C    1.744   135 C    1.016   164 H    0.971
   135   6 C    3.957 --   134 C    1.016   166 H    0.971   165 H    0.965
                           136 N    0.947
   136   7 N    3.248 --   137 C    1.175   135 C    0.947   167 H    0.925
                           138 C    0.122
   137   6 C    3.947 --   138 C    1.672   136 N    1.175   168 H    0.970
   138   6 C    3.945 --   137 C    1.672   133 C    1.107   169 H    0.973
                           136 N    0.122
   139   6 C    3.915 --   132 C    1.311   142 N    1.215   140 C    1.184
   140   6 C    3.961 --   141 C    1.635   139 C    1.184   170 H    0.973
   141   6 C    3.960 --   140 C    1.635   143 C    1.189   171 H    0.974
   142   7 N    3.370 --   143 C    1.233   139 C    1.215   125 Fe   0.653
   143   6 C    3.909 --   144 C    1.265   142 N    1.233   141 C    1.189
   144   6 C    3.915 --   143 C    1.265   145 C    1.252   122 C    1.185
   145   6 C    3.911 --   144 C    1.252   149 N    1.246   146 C    1.191
   146   6 C    3.961 --   147 C    1.634   145 C    1.191   172 H    0.974
   147   6 C    3.960 --   146 C    1.634   148 C    1.182   173 H    0.973
   148   6 C    3.919 --   150 C    1.327   149 N    1.202   147 C    1.182
   149   7 N    3.369 --   145 C    1.246   148 C    1.202   125 Fe   0.651
   150   6 C    3.922 --   148 C    1.327   157 C    1.312   151 C    1.032
   151   6 C    3.982 --   152 C    1.747   156 C    1.106   150 C    1.032
   152   6 C    3.942 --   151 C    1.747   153 C    1.015   174 H    0.971
   153   6 C    3.957 --   152 C    1.015   176 H    0.973   175 H    0.964
                           154 N    0.947
   154   7 N    3.246 --   155 C    1.174   153 C    0.947   177 H    0.925
                           156 C    0.121
   155   6 C    3.947 --   156 C    1.672   154 N    1.174   178 H    0.970
   156   6 C    3.945 --   155 C    1.672   151 C    1.106   179 H    0.974
                           154 N    0.121
   157   6 C    3.914 --   150 C    1.312   161 N    1.214   158 C    1.184
   158   6 C    3.961 --   159 C    1.636   157 C    1.184   180 H    0.973
   159   6 C    3.960 --   158 C    1.636   160 C    1.188   181 H    0.974
   160   6 C    3.908 --   126 C    1.265   161 N    1.232   159 C    1.188
   161   7 N    3.370 --   160 C    1.232   157 C    1.214   125 Fe   0.655
   162   1 H    1.002 --   128 C    0.974
   163   1 H    1.007 --   129 C    0.973
   164   1 H    1.004 --   134 C    0.971
   165   1 H    1.004 --   135 C    0.965
   166   1 H    1.013 --   135 C    0.971
   167   1 H    0.961 --   136 N    0.925
   168   1 H    1.001 --   137 C    0.970
   169   1 H    1.003 --   138 C    0.973
   170   1 H    1.005 --   140 C    0.973
   171   1 H    1.002 --   141 C    0.974
   172   1 H    1.002 --   146 C    0.974
   173   1 H    1.006 --   147 C    0.973
   174   1 H    1.004 --   152 C    0.971
   175   1 H    1.002 --   153 C    0.964
   176   1 H    1.014 --   153 C    0.973
   177   1 H    0.961 --   154 N    0.925
   178   1 H    1.001 --   155 C    0.970
   179   1 H    1.003 --   156 C    0.974
   180   1 H    1.005 --   158 C    0.973
   181   1 H    1.002 --   159 C    0.974
 ---------------------------------------------------------------------------

Topologies differ in total number of bonds
Writing topology from bond orders to xtbtopo.mol

 dipole moment from electron density (au)
     X       Y       Z   
   0.1595   0.0965   0.1062  total (Debye):    0.545

           -------------------------------------------------
          |                Geometry Summary                 |
           -------------------------------------------------

      molecular mass/u    :     1659.2005358
   center of mass at/Å    :       41.2801701       0.4202163       0.3457312
  moments of inertia/u·Å² :        0.2610051E+05   0.2016389E+06   0.2177659E+06
rotational constants/cm⁻¹ :        0.6458738E-03   0.8360306E-04   0.7741170E-04

 * 174 selected distances

     #   Z          #   Z                                           value/Å
     2   6 C        3   6 C                                       1.3793081
     3   6 C        4   6 C                                       1.4318479
     4   6 C        5   6 C                                       1.3536198
     5   6 C        6   6 C                                       1.4349545
     3   6 C        7   7 N                                       1.3701333
     6   6 C        7   7 N                                       1.3693943
     6   6 C        8   6 C                                       1.3898405
     9   6 C       10   6 C                                       1.3427373
    11   6 C       12   7 N                                       1.4637602
    12   7 N       13   6 C                                       1.3656022
    13   6 C       14   6 C                                       1.3468693
     8   6 C       15   6 C                                       1.3883166
    15   6 C       16   6 C                                       1.4329138
    16   6 C       17   6 C                                       1.3542888
    15   6 C       18   7 N                                       1.3739646
    17   6 C       19   6 C                                       1.4297268
    18   7 N       19   6 C                                       1.3646690
    19   6 C       20   6 C                                       1.3977362
    20   6 C       21   6 C                                       1.3979122
    21   6 C       22   6 C                                       1.4296800
    22   6 C       23   6 C                                       1.3542946
    23   6 C       24   6 C                                       1.4329004
    21   6 C       25   7 N                                       1.3646350
    24   6 C       25   7 N                                       1.3741657
    24   6 C       26   6 C                                       1.3884261
    27   6 C       28   6 C                                       1.3428579
    29   6 C       30   7 N                                       1.4637419
    30   7 N       31   6 C                                       1.3662478
    31   6 C       32   6 C                                       1.3467342
    26   6 C       33   6 C                                       1.3901004
    33   6 C       34   6 C                                       1.4349753
    34   6 C       35   6 C                                       1.3536279
     2   6 C       36   6 C                                       1.3792889
    35   6 C       36   6 C                                       1.4317967
    33   6 C       37   7 N                                       1.3693204
    36   6 C       37   7 N                                       1.3702204
     2   6 C       38   1 H                                       1.0843679
     4   6 C       39   1 H                                       1.0786490
     5   6 C       40   1 H                                       1.0780061
    10   6 C       41   1 H                                       1.0837468
    11   6 C       42   1 H                                       1.0994567
    11   6 C       43   1 H                                       1.1055133
    12   7 N       44   1 H                                       1.0088386 (min)
    13   6 C       45   1 H                                       1.0853015
    14   6 C       46   1 H                                       1.0806253
    16   6 C       47   1 H                                       1.0779313
    17   6 C       48   1 H                                       1.0781951
    22   6 C       49   1 H                                       1.0781882
    23   6 C       50   1 H                                       1.0779109
    28   6 C       51   1 H                                       1.0837331
    29   6 C       52   1 H                                       1.0991714
    29   6 C       53   1 H                                       1.1057063
    30   7 N       54   1 H                                       1.0089662
    31   6 C       55   1 H                                       1.0852969
    32   6 C       56   1 H                                       1.0806427
    34   6 C       57   1 H                                       1.0779905
    35   6 C       58   1 H                                       1.0786470
    60   6 C       61   6 C                                       1.3800322
    61   6 C       62   6 C                                       1.4319823
    62   6 C       63   6 C                                       1.3542548
    63   6 C       64   6 C                                       1.4349189
    61   6 C       65   7 N                                       1.3703084
    64   6 C       65   7 N                                       1.3693785
    64   6 C       66   6 C                                       1.3905734
    67   6 C       68   6 C                                       1.3430719
    69   6 C       70   7 N                                       1.4638123 (max)
    70   7 N       71   6 C                                       1.3672238
    71   6 C       72   6 C                                       1.3463128
    66   6 C       73   6 C                                       1.3894617
    73   6 C       74   6 C                                       1.4328233
    74   6 C       75   6 C                                       1.3550157
    73   6 C       76   7 N                                       1.3733116
    75   6 C       77   6 C                                       1.4297148
    76   7 N       77   6 C                                       1.3650110
    77   6 C       78   6 C                                       1.3986058
    78   6 C       79   6 C                                       1.3972352
    79   6 C       80   6 C                                       1.4296532
    80   6 C       81   6 C                                       1.3551701
    81   6 C       82   6 C                                       1.4329836
    79   6 C       83   7 N                                       1.3655958
    82   6 C       83   7 N                                       1.3728964
    82   6 C       84   6 C                                       1.3897152
    85   6 C       86   6 C                                       1.3431919
    87   6 C       88   7 N                                       1.4636752
    88   7 N       89   6 C                                       1.3661554
    89   6 C       90   6 C                                       1.3466595
    84   6 C       91   6 C                                       1.3904752
    91   6 C       92   6 C                                       1.4351096
    92   6 C       93   6 C                                       1.3542150
    60   6 C       94   6 C                                       1.3801731
    93   6 C       94   6 C                                       1.4319207
    91   6 C       95   7 N                                       1.3695794
    94   6 C       95   7 N                                       1.3701246
    60   6 C       96   1 H                                       1.0842988
    62   6 C       97   1 H                                       1.0786713
    63   6 C       98   1 H                                       1.0780782
    68   6 C       99   1 H                                       1.0836890
    69   6 C      100   1 H                                       1.0988624
    69   6 C      101   1 H                                       1.1058658
    70   7 N      102   1 H                                       1.0091677
    71   6 C      103   1 H                                       1.0852678
    72   6 C      104   1 H                                       1.0807036
    74   6 C      105   1 H                                       1.0779717
    75   6 C      106   1 H                                       1.0781902
    80   6 C      107   1 H                                       1.0783352
    81   6 C      108   1 H                                       1.0780502
    86   6 C      109   1 H                                       1.0837349
    87   6 C      110   1 H                                       1.0992497
    87   6 C      111   1 H                                       1.1056810
    88   7 N      112   1 H                                       1.0089465
    89   6 C      113   1 H                                       1.0852818
    90   6 C      114   1 H                                       1.0806663
    92   6 C      115   1 H                                       1.0780696
    93   6 C      116   1 H                                       1.0786784
   117   6 C      118   6 C                                       1.2222314
   119   6 C      120   6 C                                       1.2224253
   121   6 C      122   6 C                                       1.2220868
   123   6 C      124   6 C                                       1.2219146
   126   6 C      127   6 C                                       1.4010792
   127   6 C      128   6 C                                       1.4287586
   128   6 C      129   6 C                                       1.3558847
   129   6 C      130   6 C                                       1.4327657
   127   6 C      131   7 N                                       1.3623876
   130   6 C      131   7 N                                       1.3744421
   130   6 C      132   6 C                                       1.3889046
   133   6 C      134   6 C                                       1.3437209
   135   6 C      136   7 N                                       1.4635676
   136   7 N      137   6 C                                       1.3660475
   137   6 C      138   6 C                                       1.3466237
   132   6 C      139   6 C                                       1.3919475
   139   6 C      140   6 C                                       1.4320938
   140   6 C      141   6 C                                       1.3557182
   139   6 C      142   7 N                                       1.3709819
   141   6 C      143   6 C                                       1.4293546
   142   7 N      143   6 C                                       1.3658935
   143   6 C      144   6 C                                       1.3980052
   144   6 C      145   6 C                                       1.4002876
   145   6 C      146   6 C                                       1.4287512
   146   6 C      147   6 C                                       1.3559286
   147   6 C      148   6 C                                       1.4326973
   145   6 C      149   7 N                                       1.3628144
   148   6 C      149   7 N                                       1.3744869
   148   6 C      150   6 C                                       1.3893273
   151   6 C      152   6 C                                       1.3433030
   153   6 C      154   7 N                                       1.4637155
   154   7 N      155   6 C                                       1.3660387
   155   6 C      156   6 C                                       1.3465446
   150   6 C      157   6 C                                       1.3919386
   157   6 C      158   6 C                                       1.4322783
   158   6 C      159   6 C                                       1.3554931
   126   6 C      160   6 C                                       1.3980244
   159   6 C      160   6 C                                       1.4296336
   157   6 C      161   7 N                                       1.3706844
   160   6 C      161   7 N                                       1.3659583
   128   6 C      162   1 H                                       1.0782268
   129   6 C      163   1 H                                       1.0778631
   134   6 C      164   1 H                                       1.0837808
   135   6 C      165   1 H                                       1.1056499
   135   6 C      166   1 H                                       1.0993444
   136   7 N      167   1 H                                       1.0090049
   137   6 C      168   1 H                                       1.0852727
   138   6 C      169   1 H                                       1.0806214
   140   6 C      170   1 H                                       1.0781086
   141   6 C      171   1 H                                       1.0782028
   146   6 C      172   1 H                                       1.0782437
   147   6 C      173   1 H                                       1.0778264
   152   6 C      174   1 H                                       1.0836549
   153   6 C      175   1 H                                       1.1055924
   153   6 C      176   1 H                                       1.0990941
   154   7 N      177   1 H                                       1.0089457
   155   6 C      178   1 H                                       1.0852625
   156   6 C      179   1 H                                       1.0806431
   158   6 C      180   1 H                                       1.0779610
   159   6 C      181   1 H                                       1.0782094

 * 4 distinct bonds (by element types)

   Z      Z             #   av. dist./Å        max./Å        min./Å
   1 H    6 C          56     1.0852140     1.1058658     1.0778264
   6 C    6 C          76     1.3820493     1.4351096     1.2219146
   1 H    7 N           6     1.0089783     1.0091677     1.0088386
   6 C    7 N          36     1.3844429     1.4638123     1.3623876


optimized geometry written to: xtbopt.xyz


           -------------------------------------------------
          | TOTAL ENERGY             -306.741898846446 Eh   |
          | GRADIENT NORM               0.000778017792 Eh/α |
          | HOMO-LUMO GAP               0.056135586815 eV   |
           -------------------------------------------------

------------------------------------------------------------------------
 * finished run on 2022/07/29 at 19:09:20.303     
------------------------------------------------------------------------
 total:
 * wall-time:     0 d,  0 h,  7 min, 34.390 sec
 *  cpu-time:     0 d,  0 h,  7 min, 31.233 sec
 * ratio c/w:     0.993 speedup
 SCF:
 * wall-time:     0 d,  0 h,  0 min, 15.610 sec
 *  cpu-time:     0 d,  0 h,  0 min, 15.480 sec
 * ratio c/w:     0.992 speedup
 ANC optimizer:
 * wall-time:     0 d,  0 h,  7 min, 18.547 sec
 *  cpu-time:     0 d,  0 h,  7 min, 15.529 sec
 * ratio c/w:     0.993 speedup

