220
 energy: -395.744696170466 gnorm: 0.607259937008 xtb: 6.5.1 (b24c23e)
Cu          40.15496100000000        0.01407300000000       -0.01684900000000
C           36.78892700000000       -0.10007800000000       -0.04878500000000
C           37.45186500000000       -1.25850400000000        0.00876800000000
C           36.80022900000000       -2.56143400000000        0.06757900000000
C           37.74008800000000       -3.48180600000000        0.17450500000000
C           39.04625000000000       -2.80903200000000        0.18845800000000
N           38.87009000000000       -1.39611800000000        0.07852300000000
C           40.23514500000000       -3.42696300000000        0.34199900000000
C           40.27092000000000       -4.89815600000000        0.49234400000000
C           40.47619300000000       -5.47461600000000        1.75288200000000
C           40.50486300000000       -6.86591800000000        1.87388000000000
N           40.33220099999999       -7.64974700000000        0.77615500000000
C           40.13026100000000       -7.11479500000000       -0.45760000000000
C           40.09692100000000       -5.72812600000000       -0.62336800000000
C           41.52938600000000       -2.69621300000000        0.38188900000000
C           42.81940300000000       -3.33390600000000        0.67135300000000
C           43.75403099999999       -2.40966500000000        0.58757500000000
N           41.67124300000000       -1.43205200000000        0.12274100000000
C           43.07040600000000       -1.17193500000000        0.23459900000000
C           43.66679200000000        0.00523500000000       -0.01766800000000
C           42.90892800000000        1.22110000000000       -0.39096700000000
C           43.45222299999999        2.29455300000000       -0.95083000000000
C           42.40955100000000        3.29412600000000       -1.06892600000000
C           41.29789499999999        2.76735400000000       -0.56989600000000
N           41.52264599999999        1.43029900000000       -0.11943100000000
C           40.01278900000000        3.50060900000000       -0.43298800000000
C           40.03563599999999        4.98324900000000       -0.48018300000000
C           39.37392400000000        5.67718200000000       -1.50372800000000
C           39.41813400000000        7.07308900000000       -1.52651700000000
N           40.10476799999999        7.75027400000000       -0.56776500000000
C           40.76397100000000        7.10239100000000        0.42876900000000
C           40.74507000000000        5.70705700000000        0.48922500000000
C           38.84589799999999        2.85183000000000       -0.25566700000000
C           37.53369100000000        3.46812500000000       -0.06580300000000
C           36.67145000000000        2.47459400000000        0.02800300000000
C           37.42384200000000        1.22664800000000       -0.08737300000000
N           38.69220500000000        1.43381600000000       -0.25285900000000
H           35.70577700000000       -0.12806000000000       -0.04898100000000
H           35.73584400000000       -2.75597100000000        0.04243100000000
H           37.55155200000000       -4.54478800000000        0.25210000000000
H           40.61259500000000       -4.85320500000000        2.62932600000000
H           40.66367700000000       -7.32306300000000        2.84134100000000
H           39.99508800000000       -7.76635700000000       -1.31052700000000
H           39.93548600000000       -5.30513500000000       -1.60709900000000
H           42.99749800000000       -4.37462800000000        0.90609100000000
H           44.81178899999999       -2.57279000000000        0.74161200000000
H           44.48540200000000        2.41965800000000       -1.24448800000000
H           42.52753500000000        4.29323900000000       -1.46670100000000
H           38.83328000000000        5.14250900000000       -2.27399900000000
H           38.90747400000000        7.61855400000000       -2.30884100000000
H           41.30222800000000        7.67064300000000        1.17590900000000
H           41.27056300000000        5.19595600000000        1.28646100000000
H           37.28916700000000        4.52046500000000       -0.00497700000000
H           35.60433100000000        2.57910500000000        0.17424800000000
Cu          74.40341299999999       -0.00298400000000       -0.01431400000000
C           77.76944800000000        0.09695200000000       -0.07805900000000
C           77.10651000000000        1.22207000000000       -0.35978700000000
C           77.75814499999998        2.48581700000000       -0.68232400000000
C           76.81828699999998        3.39751900000000       -0.84760200000000
C           75.51212500000000        2.75786300000000       -0.63865200000000
N           75.68828400000000        1.37402000000000       -0.33305500000000
C           74.32323000000000        3.39374200000000       -0.67139800000000
C           74.28745400000000        4.84509500000000       -0.95527600000000
C           74.08218099999999        5.76313600000000        0.08321500000000
C           74.05351199999998        7.12951800000000       -0.20551400000000
N           74.22617400000000        7.56034000000000       -1.48370800000000
C           74.42811399999999        6.68980100000000       -2.50864000000000
C           74.46145300000001        5.31483600000000       -2.26409400000000
C           73.02898800000000        2.70615500000000       -0.42077600000000
C           71.73897200000000        3.40045900000000       -0.32921600000000
C           70.80434300000000        2.49178400000000       -0.14066600000000
N           72.88713100000000        1.42125800000000       -0.30119400000000
C           71.48796899999999        1.20489700000000       -0.11854300000000
C           70.89158200000000        0.00523500000000       -0.01766800000000
C           71.64944599999998       -1.26664100000000       -0.02134700000000
C           71.10615199999999       -2.45649700000000       -0.24493500000000
C           72.14882400000000       -3.44722600000000       -0.06731800000000
C           73.26047900000000       -2.79812400000000        0.25700300000000
N           73.03572900000000       -1.38785800000000        0.29928100000000
C           74.54558600000000       -3.45990000000000        0.60118100000000
C           74.52273800000000       -4.89221700000000        0.98708100000000
C           75.18445100000000       -5.85375500000000        0.20949900000000
C           75.14024100000000       -7.19598900000000        0.59353400000000
N           74.45360599999999       -7.56518000000000        1.70775300000000
C           73.79440399999999       -6.65555500000000        2.47287800000000
C           73.81330500000000       -5.30291700000000        2.12505000000000
C           75.71247700000001       -2.78759200000000        0.58221900000000
C           77.02468300000000       -3.32206600000000        0.94306000000000
C           77.88692399999999       -2.34417900000000        0.74396000000000
C           77.13453199999999       -1.18368400000000        0.27074600000000
N           75.86616900000000       -1.43001600000000        0.17264000000000
H           78.85259800000000        0.12366800000000       -0.08638200000000
H           78.82253100000000        2.66463900000000       -0.76294500000000
H           77.00682300000000        4.43714400000000       -1.08240500000000
H           73.94578000000000        5.42338100000000        1.10246600000000
H           73.89469800000001        7.84819000000000        0.58724800000000
H           74.56328599999999        7.06524100000000       -3.51415600000000
H           74.62288800000000        4.62411100000000       -3.08235300000000
H           71.56087700000000        4.46447200000000       -0.40719200000000
H           69.74658500000000        2.69264700000000       -0.04070800000000
H           70.07297299999999       -2.66157400000000       -0.48953500000000
H           72.03083899999999       -4.51882800000000       -0.15743400000000
H           75.72509399999998       -5.56612300000000       -0.68294700000000
H           75.65089999999999       -7.94534100000000        0.00359000000000
H           73.25614700000000       -6.98204000000000        3.35295500000000
H           73.28781100000000       -4.58211000000000        2.73925300000000
H           77.26920800000001       -4.31126400000000        1.30721200000000
H           78.95404399999998       -2.40165700000000        0.91427300000000
C           45.88216100000000        0.00523500000000       -0.01766800000000
C           47.10407899999999        0.00523500000000       -0.01766800000000
C           56.66822799999999        0.00523500000000       -0.01766800000000
C           57.89014600000000        0.00523500000000       -0.01766800000000
C           67.45429600000000        0.00523500000000       -0.01766800000000
C           68.67621300000000        0.00523500000000       -0.01766800000000
Cu          51.81199300000000        0.02893100000000       -0.05085200000000
C           48.44435000000000       -0.00563000000000        0.01900100000000
C           49.09967100000000       -0.80392300000000        0.88171600000000
C           48.45879400000000       -1.62553600000000        1.91047300000000
C           49.39510700000000       -2.30988900000000        2.53707000000000
C           50.69235799999999       -1.97028700000000        1.94352300000000
N           50.51458100000000       -1.00897700000000        0.90009300000000
C           51.87674899999999       -2.49800200000000        2.32019300000000
C           51.91281400000000       -3.53440400000000        3.37826200000000
C           51.38523400000000       -4.81211300000000        3.14157700000000
C           51.44479200000000       -5.77668200000000        4.15014800000000
N           52.01534200000000       -5.47734200000000        5.34755000000000
C           52.53948300000000       -4.24842300000000        5.60041000000000
C           52.49986299999999       -3.25425800000000        4.61992900000000
C           53.17338599999999       -2.08393100000000        1.72584200000000
C           54.44151000000000       -2.78710200000000        1.95850400000000
C           55.39354300000000       -2.11812800000000        1.34011600000000
N           53.34123500000000       -1.02991200000000        0.98940100000000
C           54.73895600000000       -0.98334500000000        0.70220700000000
C           55.35391900000000       -0.00563000000000        0.01900100000000
C           54.60285800000000        1.09463300000000       -0.62064200000000
C           55.13535299999999        2.25205700000000       -0.99111600000000
C           54.10324500000000        2.99509600000000       -1.68941700000000
C           53.01223099999999        2.23779900000000       -1.70116200000000
N           53.23768799999999        1.00224800000000       -1.02481300000000
C           51.75951800000000        2.57872500000000       -2.41756000000000
C           51.82248500000000        3.56781400000000       -3.52185800000000
C           52.62947100000000        3.32264600000000       -4.64211700000000
C           52.69393400000000        4.27250400000000       -5.66430200000000
N           51.98367900000000        5.42786700000000       -5.56791300000000
C           51.19987099999999        5.69497900000000       -4.48956100000000
C           51.10746000000000        4.77264600000000       -3.44464800000000
C           50.58820800000000        1.99528600000000       -2.09736600000000
C           49.31329000000000        2.19607000000000       -2.77869700000000
C           48.42556400000000        1.48762100000000       -2.11103600000000
C           49.12245100000000        0.82406500000000       -1.00367900000000
N           50.38653100000000        1.11380500000000       -0.99229600000000
H           47.40411899999999       -1.68121200000000        2.14448800000000
H           49.20850500000000       -2.99412500000000        3.35442100000000
H           50.93540700000000       -5.05651600000000        2.18716000000000
H           51.03896600000000       -6.76489900000000        3.97990900000000
H           52.98815599999999       -4.04296600000000        6.56294300000000
H           52.92002999999999       -2.27720900000000        4.82493200000000
H           54.59092999999999       -3.69179000000000        2.53306000000000
H           56.44240000000000       -2.38316500000000        1.32827200000000
H           56.15712500000000        2.57277300000000       -0.83766400000000
H           54.21762600000000        3.96754700000000       -2.15060600000000
H           53.19867000000000        2.40471700000000       -4.72350200000000
H           53.31027400000000        4.09128000000000       -6.53465600000000
H           50.65035100000000        6.62558900000000       -4.44148700000000
H           50.48982100000000        4.99550500000000       -2.58326900000000
H           49.10963300000000        2.79093200000000       -3.65930400000000
H           47.37583300000000        1.41633200000000       -2.36197700000000
Cu          62.59806000000000        0.02893100000000       -0.05085200000000
C           59.23041700000000       -0.00563000000000        0.01900100000000
C           59.88573800000000       -0.80392300000000        0.88171600000000
C           59.24486100000000       -1.62553600000000        1.91047300000000
C           60.18117400000000       -2.30988900000000        2.53707000000000
C           61.47842499999999       -1.97028700000000        1.94352300000000
N           61.30064800000000       -1.00897700000000        0.90009300000000
C           62.66281699999999       -2.49800200000000        2.32019300000000
C           62.69888100000000       -3.53440400000000        3.37826200000000
C           62.17130100000000       -4.81211300000000        3.14157700000000
C           62.23085900000000       -5.77668200000000        4.15014800000000
N           62.80140900000000       -5.47734200000000        5.34755000000000
C           63.32555100000000       -4.24842300000000        5.60041000000000
C           63.28592999999999       -3.25425800000000        4.61992900000000
C           63.95945300000000       -2.08393100000000        1.72584200000000
C           65.22757700000000       -2.78710200000000        1.95850400000000
C           66.17961000000000       -2.11812800000000        1.34011600000000
N           64.12730200000000       -1.02991200000000        0.98940100000000
C           65.52502400000000       -0.98334500000000        0.70220700000000
C           66.13998599999999       -0.00563000000000        0.01900100000000
C           65.38892500000000        1.09463300000000       -0.62064200000000
C           65.92142000000000        2.25205700000000       -0.99111600000000
C           64.88931200000000        2.99509600000000       -1.68941700000000
C           63.79829800000000        2.23779900000000       -1.70116200000000
N           64.02375499999999        1.00224800000000       -1.02481300000000
C           62.54558500000000        2.57872500000000       -2.41756000000000
C           62.60855200000000        3.56781400000000       -3.52185800000000
C           63.41553800000000        3.32264600000000       -4.64211700000000
C           63.48000100000000        4.27250400000000       -5.66430200000000
N           62.76974600000000        5.42786700000000       -5.56791300000000
C           61.98593799999999        5.69497900000000       -4.48956100000000
C           61.89352700000000        4.77264600000000       -3.44464800000000
C           61.37427500000000        1.99528600000000       -2.09736600000000
C           60.09935700000000        2.19607000000000       -2.77869700000000
C           59.21163099999999        1.48762100000000       -2.11103600000000
C           59.90851800000000        0.82406500000000       -1.00367900000000
N           61.17259800000000        1.11380500000000       -0.99229600000000
H           58.19018699999999       -1.68121200000000        2.14448800000000
H           59.99457200000000       -2.99412500000000        3.35442100000000
H           61.72147400000000       -5.05651600000000        2.18716000000000
H           61.82503300000000       -6.76489900000000        3.97990900000000
H           63.77422399999999       -4.04296600000000        6.56294300000000
H           63.70609700000000       -2.27720900000000        4.82493200000000
H           65.37699700000000       -3.69179000000000        2.53306000000000
H           67.22846800000001       -2.38316500000000        1.32827200000000
H           66.94319200000000        2.57277300000000       -0.83766400000000
H           65.00369400000000        3.96754700000000       -2.15060600000000
H           63.98473700000000        2.40471700000000       -4.72350200000000
H           64.09634100000000        4.09128000000000       -6.53465600000000
H           61.43641800000000        6.62558900000000       -4.44148700000000
H           61.27588800000000        4.99550500000000       -2.58326900000000
H           59.89570000000000        2.79093200000000       -3.65930400000000
H           58.16190000000000        1.41633200000000       -2.36197700000000
220
 energy: -395.942633119906 gnorm: 0.356593429604 xtb: 6.5.1 (b24c23e)
Cu          40.16010192447897        0.01119897520786       -0.01956542063321
C           36.78897883587000       -0.08153995278138       -0.04945289439075
C           37.45659863154292       -1.25912052721710        0.00903603097373
C           36.80034842741612       -2.55443547037457        0.06729183755811
C           37.75168133374341       -3.48408524341718        0.17512789013490
C           39.04604717311339       -2.80270458385200        0.18708828033716
N           38.84784293065240       -1.41734911358131        0.07996055028799
C           40.25407468090980       -3.41926343645422        0.34234008259698
C           40.27767493489006       -4.89606092700071        0.49239705887354
C           40.47774485990711       -5.47708240044102        1.74641435525720
C           40.50162590801882       -6.86320756494401        1.85451421708577
N           40.33226548245295       -7.64948188621223        0.77610603147770
C           40.13263364003937       -7.10750016988415       -0.43889469936031
C           40.09735750153290       -5.72830623660930       -0.61567888507784
C           41.52646864074399       -2.71120986059539        0.38365129905437
C           42.80639152101845       -3.34608461340650        0.67158040616105
C           43.75544407541066       -2.40438737302666        0.58562617076942
N           41.69514475136589       -1.42665547712689        0.12769710721452
C           43.09430272271870       -1.16431797995904        0.23364781085177
C           43.69786798909575        0.02291034656243       -0.02640767479297
C           42.92009298169470        1.21014703349709       -0.37658516367798
C           43.46006369972029        2.32079216909286       -0.95819311267170
C           42.43614183007151        3.29655904062031       -1.07093427382972
C           41.29317296313991        2.75352054539526       -0.55603212975540
N           41.53914115799668        1.43015873626811       -0.12408961709090
C           40.03087827448348        3.48680800171010       -0.43111948011258
C           40.04666428140904        4.97489774691290       -0.48476494882625
C           39.37782764143557        5.67565470492868       -1.49603105801700
C           39.42883784917203        7.06644627493805       -1.50972594877168
N           40.10468705700530        7.74914353221237       -0.56801469537571
C           40.75209881115949        7.09576340264179        0.41328762637111
C           40.74356609552416        5.70632772820610        0.48232842454961
C           38.84592469964061        2.84923725988507       -0.25385580863613
C           37.54172061002149        3.46565043442788       -0.06785035150819
C           36.65965780111479        2.46177375097387        0.02871681790137
C           37.40193762990351        1.21820905767713       -0.08735186835936
N           38.68910713263891        1.44553552627640       -0.24780211645763
H           35.70595968173569       -0.11945510622224       -0.04844109465134
H           35.73626418924578       -2.74477023414670        0.04122055478101
H           37.56642832615875       -4.54609876409590        0.25242683871052
H           40.61218281004836       -4.85514579157248        2.62588804279005
H           40.66099908313095       -7.32692150923407        2.82651142179240
H           39.99767809408757       -7.76654680849102       -1.29510207478336
H           39.93660634137296       -5.30580519462865       -1.60279531291141
H           42.98513981145197       -4.38225513643433        0.90627247640181
H           44.81222377654608       -2.56149591262718        0.73950068750089
H           44.48951259070547        2.43040021629038       -1.25023517900713
H           42.53591975799434        4.29326759667319       -1.47024773252774
H           38.83574452787519        5.14293439046850       -2.27075547336779
H           38.91650673022270        7.61966945158550       -2.29581527739376
H           41.29317260721798        7.67170012264593        1.16285438800228
H           41.26907910098097        5.19674020159918        1.28342396583691
H           37.30292575567309        4.51871595252049       -0.00677995224573
H           35.59774256376080        2.56925274098136        0.17452395121086
Cu          74.39835891806274       -0.00098550618538       -0.01763949909831
C           77.76937572470720        0.07905897862302       -0.07332054191397
C           77.10182999817778        1.22280182859852       -0.35970023259499
C           77.75808607391949        2.47911359078465       -0.68055419790209
C           76.80676003702035        3.39992768345023       -0.84766267040567
C           75.51239197681583        2.75139647375926       -0.63808877347919
N           75.71064388134783        1.39489530197093       -0.33817360538296
C           74.30422602371274        3.38646432177115       -0.66878095154309
C           74.28066056836748        4.84311869523825       -0.95461754850665
C           74.08062792664435        5.76361281635045        0.07631696121730
C           74.05674697533864        7.12129747370210       -0.22325922574745
N           74.22614466777551        7.56005388054448       -1.48366702339491
C           74.42573382587086        6.68826211547117       -2.48862098797623
C           74.46101627491058        5.31723469613253       -2.25678942546855
C           73.03187855081310        2.72112538981357       -0.42347444626320
C           71.75181960666401        3.41226087372032       -0.33255152710562
C           70.80279475036146        2.48638590239826       -0.14099094378055
N           72.86320464670234        1.41766480165692       -0.29513604385153
C           71.46413375630540        1.19757471628598       -0.11742116113474
C           70.86234184054952       -0.01429006850001       -0.02096634019735
C           71.63834119835224       -1.25240303685219       -0.01071026625445
C           71.09817726938159       -2.48402496787632       -0.24438242159107
C           72.12212759962294       -3.45023620077446       -0.06851028237781
C           73.26509778190562       -2.78086612018785        0.26627317200744
N           73.01908227238206       -1.38925713849324        0.29527575160150
C           74.52752471856589       -3.44613060287178        0.59892872705346
C           74.51169151589180       -4.88555312799928        0.98025545453666
C           75.18054516598487       -5.85004827265399        0.21641706832856
C           75.12953603198275       -7.18474735380398        0.60767077364350
N           74.45368882701435       -7.56415797745687        1.70718459150057
C           73.80627724770683       -6.65372009081454        2.45614171911959
C           73.81480240117683       -5.30422355601148        2.11823481307698
C           75.71251495065162       -2.78463801131535        0.58319807197892
C           77.01673431774310       -3.32037016039952        0.94038234210269
C           77.89876776808649       -2.33177347388289        0.74099255537887
C           77.15646191464792       -1.17569808517456        0.26832353473700
N           75.86945767058913       -1.43993525503539        0.18086384200809
H           78.85240609239825        0.11559847342190       -0.08337523132393
H           78.82215062060692        2.65360622999582       -0.76084738943942
H           76.99196603565660        4.43852552481543       -1.08247133487545
H           73.94618674832608        5.42423650099324        1.09861752082135
H           73.89737259531702        7.84756653119821        0.57193528600173
H           74.56069099748997        7.06990376490135       -3.49944766059603
H           74.62175943643616        4.62599930469652       -3.07843099101796
H           71.57314142651920        4.47185269153623       -0.40926188572667
H           69.74606023996968        2.68132965180338       -0.03947110028898
H           70.06877565832254       -2.67363152671826       -0.49194614454331
H           72.02242097027893       -4.51993919334685       -0.16085041986233
H           75.72262718731471       -5.56558365332758       -0.67972085343060
H           75.64186552300254       -7.94261658000768        0.01637872885022
H           73.26520205057257       -6.98684870796423        3.34077157403872
H           73.28929504582244       -4.58374197846788        2.73658128771784
H           77.25548175823695       -4.31016076638881        1.30499960676411
H           78.96067132619649       -2.39218252654156        0.91169000828589
C           45.80040441462106        0.00469135536402       -0.01553107905344
C           47.03106210904278        0.00966744453505       -0.02151622850580
C           56.67530037997344        0.01763022001090       -0.02495490784511
C           57.88611901300558        0.01177909954550       -0.02471651690239
C           67.52660215473476        0.01679098928842       -0.02447541356068
C           68.75859151174755        0.00632709222121       -0.01962919431556
Cu          51.81804641620725        0.02637763603250       -0.04531676670767
C           48.43193483024059        0.00084204701382        0.00029863507058
C           49.10348527365751       -0.80595115160394        0.88463773554171
C           48.45775365209064       -1.61882234044579        1.90308911955604
C           49.40659234335082       -2.31149976972761        2.53784382935809
C           50.69041395557711       -1.96590046105860        1.94023649761929
N           50.49079777188826       -1.02147034536942        0.91528571449686
C           51.89118285206382       -2.49805926055394        2.31615442775394
C           51.91892777206142       -3.53547111703553        3.37512100924696
C           51.38694762256485       -4.80800704724631        3.14741550867669
C           51.45295345326035       -5.76043218224584        4.15848471157262
N           52.01535261796872       -5.47723895542849        5.34739472011004
C           52.53017207859293       -4.25722238563954        5.58510199391257
C           52.49908748445678       -3.26052012782942        4.61607191968582
C           53.16359070566673       -2.10117627070555        1.74445762809879
C           54.42296831543337       -2.79719247299645        1.97248083884593
C           55.38409957773164       -2.11182800240787        1.33673902722338
N           53.34571225421334       -1.03884948080934        0.98591480800271
C           54.71951606830788       -0.99262767575160        0.70717920284002
C           55.32154350681225        0.00865240765114        0.01117978739266
C           54.58149310097014        1.08719216530865       -0.62756288767306
C           55.13532374688449        2.27343771620181       -1.00659226486814
C           54.12679833369323        3.00083427537743       -1.69247763362246
C           53.00408662319249        2.22430933871688       -1.70573494864499
N           53.23631363555702        1.01345169844994       -1.02362939705833
C           51.77456484738647        2.57095705305024       -2.41020973171393
C           51.83163416006120        3.56712020126740       -3.51290598867928
C           52.62759206547471        3.32780974047302       -4.63740435678738
C           52.68080916520309        4.27971375069761       -5.65033775327050
N           51.98360055108130        5.42717522786848       -5.56708910444334
C           51.21155176335301        5.67837027506219       -4.49455992335997
C           51.11148416957425        4.76635174890500       -3.44825810291076
C           50.58782563625137        1.99323997843109       -2.09700584072081
C           49.32090596617055        2.19575115159905       -2.77482886161467
C           48.41285542432824        1.47818261810077       -2.10061887000894
C           49.10119277774952        0.82101382207923       -1.00007962917340
N           50.38493400799008        1.11746574016132       -1.00357236337116
H           47.40306556426521       -1.67156091382492        2.13356440281539
H           49.22289445276562       -2.99595156886883        3.35386945390683
H           50.93742267871775       -5.05474566705629        2.19048273867939
H           51.04623640954575       -6.75637338927180        3.99070481038398
H           52.98089989390739       -4.05422863638436        6.55509980325320
H           52.91842143387316       -2.28077238613117        4.82340196876305
H           54.57870943036249       -3.69827926223069        2.54005456475529
H           56.43532793603188       -2.37149097712824        1.31878153508135
H           56.15617241825353        2.58073496915478       -0.83992517308946
H           54.22613558129979        3.97203205084966       -2.14822508172922
H           53.19678997661926        2.40762492765621       -4.72232286090510