      -----------------------------------------------------------      
     |                   =====================                   |     
     |                           x T B                           |     
     |                   =====================                   |     
     |                         S. Grimme                         |     
     |          Mulliken Center for Theoretical Chemistry        |     
     |                    University of Bonn                     |     
      -----------------------------------------------------------      

   * xtb version 6.5.1 (b24c23e) compiled by 'conda@728c89f4b128' on 2022-07-12

   xtb is free software: you can redistribute it and/or modify it under
   the terms of the GNU Lesser General Public License as published by
   the Free Software Foundation, either version 3 of the License, or
   (at your option) any later version.
   
   xtb is distributed in the hope that it will be useful,
   but WITHOUT ANY WARRANTY; without even the implied warranty of
   MERCHANTABILITY or FITNESS FOR A PARTICULAR PURPOSE.  See the
   GNU Lesser General Public License for more details.
   
   Cite this work as:
   * C. Bannwarth, E. Caldeweyher, S. Ehlert, A. Hansen, P. Pracht,
     J. Seibert, S. Spicher, S. Grimme, WIREs Comput. Mol. Sci., 2020, 11,
     e01493. DOI: 10.1002/wcms.1493
   
   for GFN2-xTB:
   * C. Bannwarth, S. Ehlert and S. Grimme., J. Chem. Theory Comput., 2019,
     15, 1652-1671. DOI: 10.1021/acs.jctc.8b01176
   for GFN1-xTB:
   * S. Grimme, C. Bannwarth, P. Shushkov, J. Chem. Theory Comput., 2017,
     13, 1989-2009. DOI: 10.1021/acs.jctc.7b00118
   for GFN0-xTB:
   * P. Pracht, E. Caldeweyher, S. Ehlert, S. Grimme, ChemRxiv, 2019, preprint.
     DOI: 10.26434/chemrxiv.8326202.v1
   for GFN-FF:
   * S. Spicher and S. Grimme, Angew. Chem. Int. Ed., 2020, 59, 15665-15673.
     DOI: 10.1002/anie.202004239
   
   for ALPB and GBSA implicit solvation:
   * S. Ehlert, M. Stahn, S. Spicher, S. Grimme, J. Chem. Theory Comput.,
     2021, 17, 4250-4261. DOI: 10.1021/acs.jctc.1c00471
   
   for DFT-D4:
   * E. Caldeweyher, C. Bannwarth and S. Grimme, J. Chem. Phys., 2017,
     147, 034112. DOI: 10.1063/1.4993215
   * E. Caldeweyher, S. Ehlert, A. Hansen, H. Neugebauer, S. Spicher,
     C. Bannwarth and S. Grimme, J. Chem. Phys., 2019, 150, 154122.
     DOI: 10.1063/1.5090222
   * E. Caldeweyher, J.-M. Mewes, S. Ehlert and S. Grimme, Phys. Chem. Chem. Phys.
     2020, 22, 8499-8512. DOI: 10.1039/D0CP00502A
   
   for sTDA-xTB:
   * S. Grimme and C. Bannwarth, J. Chem. Phys., 2016, 145, 054103.
     DOI: 10.1063/1.4959605
   
   in the mass-spec context:
   * V. Asgeirsson, C. Bauer and S. Grimme, Chem. Sci., 2017, 8, 4879.
     DOI: 10.1039/c7sc00601b
   * J. Koopman and S. Grimme, ACS Omega 2019, 4, 12, 15120-15133.
     DOI: 10.1021/acsomega.9b02011
   
   for metadynamics refer to:
   * S. Grimme, J. Chem. Theory Comput., 2019, 155, 2847-2862
     DOI: 10.1021/acs.jctc.9b00143
   
   for SPH calculations refer to:
   * S. Spicher and S. Grimme, J. Chem. Theory Comput., 2021, 17, 1701-1714
     DOI: 10.1021/acs.jctc.0c01306
   
   with help from (in alphabetical order)
   P. Atkinson, C. Bannwarth, F. Bohle, G. Brandenburg, E. Caldeweyher
   M. Checinski, S. Dohm, S. Ehlert, S. Ehrlich, I. Gerasimov, C. Hölzer
   A. Katbashev, J. Koopman, C. Lavigne, S. Lehtola, F. März, M. Müller,
   F. Musil, H. Neugebauer, J. Pisarek, C. Plett, P. Pracht, F. Pultar,
   J. Seibert, P. Shushkov, S. Spicher, M. Stahn, M. Steiner, T. Strunk,
   J. Stückrath, T. Rose, and J. Unsleber
   
 * started run on 2022/07/30 at 19:34:54.588     

           -------------------------------------------------
          |                Calculation Setup                |
           -------------------------------------------------

          program call               : xtb Ph2OMe_C6_9.xyz --gfn 1 --opt -T 48
          hostname                   : cx3-15-11.cx3.hpc.ic.ac.uk
          coordinate file            : Ph2OMe_C6_9.xyz
          omp threads                :                     1

   ID    Z sym.   atoms
    1    6 C      1-5, 7-10, 12-20, 22-26, 28-32, 35, 36, 38-42, 44, 74-78,
                  80-83, 85-93, 95-99, 101-105, 108, 109, 111-115, 117,
                  147-199, 201-204, 206-214, 216-220, 222-226, 229, 230,
                  232-236, 238, 267-271, 273-276, 278-286, 288-292, 294-298,
                  301, 302, 304-308, 310, 339-343, 345-348, 350-358, 360-364,
                  366-370, 373, 374, 376-380, 382, 411-415, 417-420, 422-430,
                  432-436, 438-442, 445, 446, 448-452, 454, 483-487, 489-492,
                  494-502, 504-508, 510-514, 517, 518, 520-524, 526, 555-559,
                  561-564, 566-574, 576-580, 582-586, 589, 590, 592-596, 598,
                  627-631, 633-636, 638-646, 648-652, 654-658, 661, 662,
                  664-668, 670
    2    7 N      6, 11, 33, 34, 79, 84, 106, 107, 200, 205, 227, 228, 272,
                  277, 299, 300, 344, 349, 371, 372, 416, 421, 443, 444, 488,
                  493, 515, 516, 560, 565, 587, 588, 632, 637, 659, 660
    3    8 O      21, 27, 37, 43, 94, 100, 110, 116, 215, 221, 231, 237, 287,
                  293, 303, 309, 359, 365, 375, 381, 431, 437, 447, 453, 503,
                  509, 519, 525, 575, 581, 591, 597, 647, 653, 663, 669
    4    1 H      45-73, 118-146, 239-266, 311-338, 383-410, 455-482,
                  527-554, 599-626, 671-698

molecular fragmentation (1/2 indicates fragments):
111111111111111111111111111111111111111111111111111111111111111111111111
122222222222222222222222222222222222222222222222222222222222222222222222
222222222222222222222222222222222222222222222222222222222222222222222222
222222222222222222222222222222222222222222222222222222222222222222222222
222222222222222222222222222222222222222222222222222222222222222222222222
222222222222222222222222222222222222222222222222222222222222222222222222
222222222222222222222222222222222222222222222222222222222222222222222222
222222222222222222222222222222222222222222222222222222222222222222222222
222222222222222222222222222222222222222222222222222222222222222222222222
22222222222222222222222222222222222222222222222222
# atoms in fragment 1/2:    73   625
 fragment masses (1/2) :      581.64     5222.59
CMA distance (Bohr)    : 133.034
constraining FC (au)   :  0.0500
########################################################################
[WARNING] Please study the warnings concerning your input carefully
-1- prog_main_parseArguments: Unknown option '-T' provided
########################################################################

           -------------------------------------------------
          |                 G F N 1 - x T B                 |
           -------------------------------------------------

        Reference                      10.1021/acs.jctc.7b00118
      * Hamiltonian:
        H0-scaling (s, p, d)           1.850000    2.250000    2.000000
        zeta-weighting                 0.000000
      * Dispersion:
        s8                             2.400000
        a1                             0.630000
        a2                             5.000000
        s9                             0.000000
      * Repulsion:
        kExp                           1.500000
        rExp                           1.000000
      * Coulomb:
        alpha                          2.000000
        third order                    atomic
        anisotropic                    false
      * Halogen bond correction:
        rad-scale                      1.300000
        damping                        0.440000


          ...................................................
          :                      SETUP                      :
          :.................................................:
          :  # basis functions                2284          :
          :  # atomic orbitals                2284          :
          :  # shells                         1396          :
          :  # electrons                      2138          :
          :  # halogen bonds                     0          :
          :  max. iterations                   250          :
          :  Hamiltonian                  GFN1-xTB          :
          :  restarted?                      false          :
          :  GBSA solvation                  false          :
          :  PC potential                    false          :
          :  electronic temp.          300.0000000     K    :
          :  accuracy                    1.0000000          :
          :  -> integral cutoff          0.2500000E+02      :
          :  -> integral neglect         0.1000000E-07      :
          :  -> SCF convergence          0.1000000E-05 Eh   :
          :  -> wf. convergence          0.2000000E-04 e    :
          :  Broyden damping             0.4000000          :
          ...................................................

 iter      E             dE          RMSdq      gap      omega  full diag
   1  -1220.7506974 -0.122075E+04  0.100E+01    0.03       0.0  T
   2  -1222.4533029 -0.170261E+01  0.599E+00    0.35       1.0  T
   3  -1120.5465822  0.101907E+03  0.346E+00    0.08       1.0  T
   4   1879.6906690  0.300024E+04  0.101E+01    0.01       1.0  T
   5   -116.7268990 -0.199642E+04  0.695E+00    0.02       1.0  T
   6  -1155.3407746 -0.103861E+04  0.258E+00    0.00       1.0  T
   7  -1155.4190137 -0.782391E-01  0.260E+00    0.03       1.0  T
   8  -1198.5837430 -0.431647E+02  0.166E+00    0.02       1.0  T
   9  -1209.7803672 -0.111966E+02  0.127E+00    0.06       1.0  T
  10  -1215.7144115 -0.593404E+01  0.886E-01    0.03       1.0  T
  11  -1215.9998721 -0.285461E+00  0.782E-01    0.07       1.0  T
  12  -1219.5468926 -0.354702E+01  0.580E-01    0.01       1.0  T
  13  -1219.9160142 -0.369122E+00  0.524E-01    0.02       1.0  T
  14  -1221.9049548 -0.198894E+01  0.472E-01    0.02       1.0  T
  15  -1222.2445094 -0.339555E+00  0.345E-01    0.03       1.0  T
  16  -1222.4976753 -0.253166E+00  0.317E-01    0.03       1.0  T
  17  -1222.8642591 -0.366584E+00  0.283E-01    0.18       1.0  T
  18  -1222.8805909 -0.163318E-01  0.263E-01    0.13       1.0  T
  19  -1222.9528481 -0.722571E-01  0.257E-01    0.04       1.0  T
  20  -1222.9323072  0.205409E-01  0.216E-01    0.17       1.0  T
  21  -1222.8235252  0.108782E+00  0.298E-01    0.21       1.0  T
  22  -1222.8419544 -0.184292E-01  0.263E-01    0.20       1.0  T
  23  -1222.8559510 -0.139966E-01  0.217E-01    0.16       1.0  T
  24  -1222.8951086 -0.391576E-01  0.148E-01    0.05       1.0  T
  25  -1222.9075249 -0.124163E-01  0.145E-01    0.18       1.0  T
  26  -1222.9608995 -0.533746E-01  0.218E-01    0.10       1.0  T
  27  -1223.0143971 -0.534976E-01  0.155E-01    0.06       1.0  T
  28  -1222.9967465  0.176506E-01  0.143E-01    0.08       1.0  T
  29  -1223.0535134 -0.567669E-01  0.420E-02    0.02       1.0  T
  30  -1223.0530272  0.486179E-03  0.321E-02    0.02       1.0  T
  31  -1223.0269951  0.260321E-01  0.113E-01    0.04       1.0  T
  32  -1223.0494587 -0.224635E-01  0.598E-02    0.02       1.0  T
  33  -1223.0553535 -0.589480E-02  0.309E-02    0.01       1.0  T
  34  -1223.0579150 -0.256155E-02  0.750E-03    0.01       1.0  T
  35  -1223.0578524  0.626479E-04  0.104E-02    0.00       1.0  T
  36  -1223.0579635 -0.111109E-03  0.693E-03    0.00       1.0  T
  37  -1223.0577861  0.177365E-03  0.102E-02    0.00       1.0  T
  38  -1223.0579674 -0.181246E-03  0.473E-03    0.00       1.0  T
  39  -1223.0580071 -0.397261E-04  0.225E-03    0.01       1.7  T
  40  -1223.0580075 -0.437215E-06  0.205E-03    0.01       1.8  T
  41  -1223.0580184 -0.108245E-04  0.153E-03    0.00       2.5  T
  42  -1223.0580149  0.341965E-05  0.195E-03    0.00       1.9  T
  43  -1223.0580153 -0.334163E-06  0.174E-03    0.00       2.2  T
  44  -1223.0580121  0.315960E-05  0.176E-03    0.00       2.1  T
  45  -1223.0580119  0.267112E-06  0.166E-03    0.00       2.3  T
  46  -1223.0580220 -0.101778E-04  0.438E-04    0.00       8.6  T
  47  -1223.0580224 -0.377411E-06  0.383E-04    0.00       9.9  T
  48  -1223.0580223  0.105448E-06  0.466E-04    0.00       8.1  T
  49  -1223.0580228 -0.500212E-06  0.233E-04    0.00      16.3  T
  50  -1223.0580228 -0.455680E-08  0.230E-04    0.00      16.4  T
  51  -1223.0580229 -0.122681E-06  0.886E-05    0.00      42.7  T
  52  -1223.0580229  0.337989E-07  0.114E-04    0.00      33.3  T

   *** convergence criteria satisfied after 52 iterations ***

         #    Occupation            Energy/Eh            Energy/eV
      -------------------------------------------------------------
         1        2.0000           -0.8083814             -21.9972
       ...           ...                  ...                  ...
      1063        2.0000           -0.3768261             -10.2540
      1064        2.0000           -0.3754668             -10.2170
      1065        2.0000           -0.3751948             -10.2096
      1066        2.0000           -0.3739016             -10.1744
      1067        2.0000           -0.3709794             -10.0949
      1068        2.0000           -0.3686437             -10.0313
      1069        1.0411           -0.3571420              -9.7183 (HOMO)
      1070        0.9542           -0.3569769              -9.7138 (LUMO)
      1071        0.0026           -0.3507467              -9.5443
      1072        0.0020           -0.3505090              -9.5378
      1073        0.0001           -0.3473751              -9.4526
      1074        0.0000           -0.3451732              -9.3926
       ...           ...                  ...                  ...
      2284                          6.2890072             171.1326
      -------------------------------------------------------------
                  HL-Gap            0.0001651 Eh            0.0045 eV
             Fermi-level           -0.3570639 Eh           -9.7162 eV

 SCC (total)                   0 d,  0 h,  3 min, 20.035 sec
 SCC setup                      ...        0 min,  0.123 sec (  0.062%)
 Dispersion                     ...        0 min,  0.055 sec (  0.027%)
 classical contributions        ...        0 min,  0.013 sec (  0.006%)
 integral evaluation            ...        0 min,  1.378 sec (  0.689%)
 iterations                     ...        3 min, 15.293 sec ( 97.630%)
 molecular gradient             ...        0 min,  2.537 sec (  1.268%)
 printout                       ...        0 min,  0.637 sec (  0.318%)

         :::::::::::::::::::::::::::::::::::::::::::::::::::::
         ::                     SUMMARY                     ::
         :::::::::::::::::::::::::::::::::::::::::::::::::::::
         :: total energy           -1198.694781198770 Eh    ::
         :: gradient norm              8.502102946525 Eh/a0 ::
         :: HOMO-LUMO gap              0.004492532061 eV    ::
         ::.................................................::
         :: SCC energy             -1223.058022898712 Eh    ::
         :: -> electrostatic           1.843743985257 Eh    ::
         :: repulsion energy          24.959472039877 Eh    ::
         :: dispersion energy         -0.596230339936 Eh    ::
         :: halogen bond corr.         0.000000000000 Eh    ::
         :: add. restraining           0.000000000000 Eh    ::
         :: total charge              -0.000000000000 e     ::
         :::::::::::::::::::::::::::::::::::::::::::::::::::::

      ----------------------------------------------------------- 
     |                       L-ANC optimizer                     |
      ----------------------------------------------------------- 
          low memory version by Sebastian Ehlert

          ...................................................
          :                      SETUP                      :
          :.................................................:
          :   energy convergence        0.5000000E-05 Eh    :
          :   grad. convergence         0.1000000E-02 Eh/a0 :
          :   optimization log               true           :
          :   writing optlog all                1     steps :
          :   Hessian reset                    20     steps :
          :   maximium step len.        1.0000000     a0    :
          :   LBFGS images                     20           :
          ...................................................
 * calculating model hessian...
Using Lindh-Hessian (1995)
 Shifting diagonal of input Hessian by    1.0039156751881819E-002
 Lowest  eigenvalues of input Hessian
    0.010000    0.010004    0.010010    0.010012    0.010016    0.010019
    0.010024    0.010025    0.010029    0.010030    0.010031    0.010031
    0.010032    0.010032    0.010033    0.010033    0.010034    0.010034
 Highest eigenvalues
    4.542984    4.542985    4.542987    4.542987    4.542988    4.542991


........................................................................
.............................. CYCLE    1 ..............................
........................................................................
   1  -1223.3776075 -0.122338E+04  0.185E-01    0.05       0.0  T
   2  -1223.2523764  0.125231E+00  0.219E-01    0.20       1.0  T
   3  -1223.2214716  0.309048E-01  0.211E-01    0.21       1.0  T
   4  -1223.3614837 -0.140012E+00  0.103E-01    0.09       1.0  T
   5  -1223.3601829  0.130084E-02  0.104E-01    0.11       1.0  T
   6  -1223.4139792 -0.537963E-01  0.260E-02    0.03       1.0  T
   7  -1223.4158434 -0.186422E-02  0.152E-02    0.02       1.0  T
   8  -1223.4153550  0.488398E-03  0.171E-02    0.03       1.0  T
   9  -1223.4158130 -0.457995E-03  0.104E-02    0.03       1.0  T
  10  -1223.4162732 -0.460190E-03  0.466E-03    0.02       1.0  T
  11  -1223.4163179 -0.447083E-04  0.294E-03    0.02       1.3  T
  12  -1223.4163444 -0.265051E-04  0.131E-03    0.02       2.9  T
  13  -1223.4163253  0.191514E-04  0.222E-03    0.03       1.7  T
  14  -1223.4163495 -0.242074E-04  0.561E-04    0.02       6.7  T
  15  -1223.4163487  0.759740E-06  0.623E-04    0.02       6.1  T
  16  -1223.4163506 -0.189862E-05  0.161E-04    0.03      23.4  T
  17  -1223.4163507 -0.966365E-07  0.392E-05    0.02      96.5  T
  18  -1223.4163507 -0.347677E-08  0.238E-05    0.02     159.2  T
     SCC iter.                  ...        1 min,  7.909 sec
     gradient                   ...        0 min,  2.533 sec
 * total energy  : -1202.8788160 Eh     change       -0.4184035E+01 Eh
   gradient norm :     2.9491441 Eh/a0  converged?    E=F G=F D=F
   step length   :     0.8014651 a0

........................................................................
.............................. CYCLE    2 ..............................
........................................................................
   1  -1223.4800567 -0.122348E+04  0.399E-02    0.03       0.0  T
   2  -1223.4637347  0.163220E-01  0.714E-02    0.05       1.0  T
   3  -1223.4067319  0.570028E-01  0.125E-01    0.15       1.0  T
   4  -1223.4802850 -0.735530E-01  0.253E-02    0.03       1.0  T
   5  -1223.4776700  0.261501E-02  0.353E-02    0.03       1.0  T
   6  -1223.4820062 -0.433626E-02  0.133E-02    0.03       1.0  T
   7  -1223.4822067 -0.200486E-03  0.927E-03    0.03       1.0  T
   8  -1223.4821031  0.103626E-03  0.858E-03    0.03       1.0  T
   9  -1223.4824854 -0.382315E-03  0.116E-03    0.03       3.3  T
  10  -1223.4824874 -0.199666E-05  0.710E-04    0.03       5.3  T
  11  -1223.4824861  0.127223E-05  0.823E-04    0.03       4.6  T
  12  -1223.4824897 -0.354012E-05  0.916E-05    0.03      41.3  T
  13  -1223.4824895  0.189752E-06  0.200E-04    0.03      19.0  T
  14  -1223.4824897 -0.196812E-06  0.457E-05    0.03      82.8  T
     SCC iter.                  ...        0 min, 52.756 sec
     gradient                   ...        0 min,  2.541 sec
 * total energy  : -1203.5811086 Eh     change       -0.7022926E+00 Eh
   gradient norm :     2.5119014 Eh/a0  converged?    E=F G=F D=F
   step length   :     4.2188430 a0

........................................................................
.............................. CYCLE    3 ..............................
........................................................................
   1  -1223.5749243 -0.122357E+04  0.313E-02    0.04       0.0  T
   2  -1223.5751724 -0.248095E-03  0.309E-02    0.03       1.0  T
   3  -1223.5739173  0.125503E-02  0.240E-02    0.04       1.0  T
   4  -1223.5523188  0.215986E-01  0.681E-02    0.07       1.0  T
   5  -1223.5702300 -0.179113E-01  0.365E-02    0.04       1.0  T
   6  -1223.5761218 -0.589178E-02  0.719E-03    0.03       1.0  T
   7  -1223.5760962  0.255650E-04  0.519E-03    0.03       1.0  T
   8  -1223.5762055 -0.109270E-03  0.172E-03    0.03       2.2  T
   9  -1223.5762136 -0.813773E-05  0.628E-04    0.03       6.0  T
  10  -1223.5762144 -0.764899E-06  0.373E-04    0.03      10.2  T
  11  -1223.5762149 -0.544693E-06  0.205E-04    0.03      18.5  T
  12  -1223.5762151 -0.156865E-06  0.111E-04    0.03      34.2  T
  13  -1223.5762152 -0.562109E-07  0.602E-05    0.03      62.9  T
     SCC iter.                  ...        0 min, 49.157 sec
     gradient                   ...        0 min,  2.544 sec
 * total energy  : -1203.9815411 Eh     change       -0.4004325E+00 Eh
   gradient norm :     2.2335519 Eh/a0  converged?    E=F G=F D=F
   step length   :     9.1009428 a0

........................................................................
.............................. CYCLE    4 ..............................
........................................................................
   1  -1223.6468594 -0.122365E+04  0.264E-02    0.04       0.0  T
   2  -1223.6467649  0.944515E-04  0.276E-02    0.04       1.0  T
   3  -1223.6427381  0.402678E-02  0.325E-02    0.05       1.0  T
   4  -1223.6332130  0.952514E-02  0.527E-02    0.07       1.0  T
   5  -1223.6437263 -0.105133E-01  0.300E-02    0.04       1.0  T
   6  -1223.6475673 -0.384103E-02  0.734E-03    0.04       1.0  T
   7  -1223.6475792 -0.118795E-04  0.443E-03    0.04       1.0  T
   8  -1223.6476447 -0.655197E-04  0.123E-03    0.04       3.1  T
   9  -1223.6476481 -0.340011E-05  0.527E-04    0.04       7.2  T
  10  -1223.6476485 -0.351740E-06  0.333E-04    0.04      11.4  T
  11  -1223.6476490 -0.461394E-06  0.167E-04    0.04      22.6  T
  12  -1223.6476491 -0.112943E-06  0.884E-05    0.04      42.8  T
     SCC iter.                  ...        0 min, 45.265 sec
     gradient                   ...        0 min,  2.539 sec
 * total energy  : -1204.2482160 Eh     change       -0.2666749E+00 Eh
   gradient norm :     2.0591845 Eh/a0  converged?    E=F G=F D=F
   step length   :    17.3439546 a0

........................................................................
.............................. CYCLE    5 ..............................
........................................................................
   1  -1223.7018368 -0.122370E+04  0.235E-02    0.05       0.0  T
   2  -1223.7011432  0.693629E-03  0.269E-02    0.05       1.0  T
   3  -1223.6888261  0.123171E-01  0.511E-02    0.07       1.0  T
   4  -1223.6997498 -0.109236E-01  0.237E-02    0.05       1.0  T
   5  -1223.6998950 -0.145254E-03  0.242E-02    0.05       1.0  T
   6  -1223.7022169 -0.232189E-02  0.770E-03    0.05       1.0  T
   7  -1223.7023208 -0.103918E-03  0.373E-03    0.05       1.0  T
   8  -1223.7023657 -0.448423E-04  0.899E-04    0.05       4.2  T
   9  -1223.7023647  0.947844E-06  0.744E-04    0.05       5.1  T
  10  -1223.7023678 -0.307624E-05  0.331E-04    0.05      11.4  T
  11  -1223.7023685 -0.741993E-06  0.822E-05    0.05      46.0  T
  12  -1223.7023685 -0.668706E-09  0.635E-05    0.05      59.6  T
     SCC iter.                  ...        0 min, 45.328 sec
     gradient                   ...        0 min,  2.542 sec
 * total energy  : -1204.4524244 Eh     change       -0.2042083E+00 Eh
   gradient norm :     1.9251657 Eh/a0  converged?    E=F G=F D=F
   step length   :    34.1653797 a0

........................................................................
.............................. CYCLE    6 ..............................
........................................................................
   1  -1223.7560381 -0.122376E+04  0.249E-02    0.06       0.0  T
   2  -1223.7561084 -0.702934E-04  0.259E-02    0.06       1.0  T
   3  -1223.7562925 -0.184113E-03  0.137E-02    0.06       1.0  T
   4  -1223.7469178  0.937464E-02  0.434E-02    0.07       1.0  T
   5  -1223.7494344 -0.251657E-02  0.380E-02    0.07       1.0  T
   6  -1223.7561960 -0.676160E-02  0.105E-02    0.06       1.0  T
   7  -1223.7565241 -0.328120E-03  0.349E-03    0.06       1.1  T
   8  -1223.7565651 -0.409639E-04  0.666E-04    0.06       5.7  T
   9  -1223.7565655 -0.441259E-06  0.401E-04    0.06       9.4  T
  10  -1223.7565658 -0.245068E-06  0.319E-04    0.06      11.9  T
  11  -1223.7565665 -0.695192E-06  0.932E-05    0.06      40.6  T
  12  -1223.7565665 -0.344646E-07  0.519E-05    0.06      72.9  T
     SCC iter.                  ...        0 min, 42.722 sec
     gradient                   ...        0 min,  2.499 sec
 * total energy  : -1204.6346522 Eh     change       -0.1822279E+00 Eh
   gradient norm :     1.7993872 Eh/a0  converged?    E=F G=F D=F
   step length   :    44.9894962 a0

........................................................................
.............................. CYCLE    7 ..............................
........................................................................
   1  -1223.7970319 -0.122380E+04  0.195E-02    0.07       0.0  T
   2  -1223.7971435 -0.111552E-03  0.184E-02    0.07       1.0  T
   3  -1223.7970838  0.597234E-04  0.107E-02    0.07       1.0  T
   4  -1223.7913496  0.573411E-02  0.346E-02    0.08       1.0  T
   5  -1223.7963651 -0.501546E-02  0.154E-02    0.07       1.0  T
   6  -1223.7971764 -0.811288E-03  0.788E-03    0.07       1.0  T
   7  -1223.7973986 -0.222207E-03  0.266E-03    0.07       1.4  T
   8  -1223.7974220 -0.233710E-04  0.719E-04    0.07       5.3  T
   9  -1223.7974227 -0.736991E-06  0.588E-04    0.07       6.4  T
  10  -1223.7974251 -0.234985E-05  0.195E-04    0.07      19.4  T
  11  -1223.7974253 -0.216837E-06  0.639E-05    0.07      59.3  T
  12  -1223.7974253 -0.126290E-07  0.371E-05    0.07     102.1  T
     SCC iter.                  ...        0 min, 40.618 sec
     gradient                   ...        0 min,  2.498 sec
 * total energy  : -1204.7984223 Eh     change       -0.1637700E+00 Eh
   gradient norm :     1.6676444 Eh/a0  converged?    E=F G=F D=F
   step length   :    24.8337197 a0

........................................................................
.............................. CYCLE    8 ..............................
........................................................................
   1  -1223.8274912 -0.122383E+04  0.186E-02    0.09       0.0  T
   2  -1223.8275465 -0.552118E-04  0.162E-02    0.08       1.0  T
   3  -1223.8263975  0.114895E-02  0.176E-02    0.09       1.0  T
   4  -1223.8263160  0.815028E-04  0.173E-02    0.09       1.0  T
   5  -1223.8275593 -0.124334E-02  0.969E-03    0.09       1.0  T
   6  -1223.8277624 -0.203041E-03  0.530E-03    0.09       1.0  T
   7  -1223.8278609 -0.985390E-04  0.202E-03    0.09       1.9  T
   8  -1223.8278751 -0.141474E-04  0.575E-04    0.09       6.6  T
   9  -1223.8278759 -0.788585E-06  0.389E-04    0.09       9.7  T
  10  -1223.8278767 -0.879024E-06  0.139E-04    0.09      27.3  T
  11  -1223.8278768 -0.840873E-07  0.590E-05    0.09      64.2  T
     SCC iter.                  ...        0 min, 37.305 sec
     gradient                   ...        0 min,  2.488 sec
 * total energy  : -1204.9541129 Eh     change       -0.1556906E+00 Eh
   gradient norm :     1.5300306 Eh/a0  converged?    E=F G=F D=F
   step length   :    37.9105695 a0

........................................................................
.............................. CYCLE    9 ..............................
........................................................................
   1  -1223.8374438 -0.122384E+04  0.174E-02    0.11       0.0  T
   2  -1223.8376285 -0.184715E-03  0.130E-02    0.10       1.0  T
   3  -1223.8377323 -0.103756E-03  0.583E-03    0.10       1.0  T
   4  -1223.8374391  0.293161E-03  0.958E-03    0.10       1.0  T
   5  -1223.8376922 -0.253152E-03  0.503E-03    0.10       1.0  T
   6  -1223.8376985 -0.620869E-05  0.460E-03    0.10       1.0  T
   7  -1223.8377570 -0.585200E-04  0.252E-03    0.10       1.5  T
   8  -1223.8377851 -0.281754E-04  0.755E-04    0.10       5.0  T
   9  -1223.8377880 -0.288532E-05  0.406E-04    0.10       9.3  T
  10  -1223.8377890 -0.979204E-06  0.107E-04    0.10      35.3  T
  11  -1223.8377890 -0.230020E-07  0.677E-05    0.10      55.9  T
     SCC iter.                  ...        0 min, 37.154 sec
     gradient                   ...        0 min,  2.497 sec
 * total energy  : -1205.0982092 Eh     change       -0.1440963E+00 Eh
   gradient norm :     1.3918004 Eh/a0  converged?    E=F G=F D=F
   step length   :    35.1149594 a0

........................................................................
.............................. CYCLE   10 ..............................
........................................................................
   1  -1223.8394082 -0.122384E+04  0.175E-02    0.13       0.0  T
   2  -1223.8395972 -0.188981E-03  0.129E-02    0.13       1.0  T
   3  -1223.8397138 -0.116614E-03  0.536E-03    0.13       1.0  T
   4  -1223.8393719  0.341854E-03  0.950E-03    0.13       1.0  T
   5  -1223.8396154 -0.243516E-03  0.579E-03    0.13       1.0  T
   6  -1223.8397181 -0.102666E-03  0.290E-03    0.13       1.3  T
   7  -1223.8397407 -0.226508E-04  0.121E-03    0.13       3.1  T
   8  -1223.8397461 -0.535531E-05  0.421E-04    0.13       9.0  T
   9  -1223.8397467 -0.608903E-06  0.192E-04    0.13      19.7  T
  10  -1223.8397469 -0.151235E-06  0.879E-05    0.13      43.1  T
     SCC iter.                  ...        0 min, 33.800 sec
     gradient                   ...        0 min,  2.496 sec
 * total energy  : -1205.2267303 Eh     change       -0.1285211E+00 Eh
   gradient norm :     1.2591699 Eh/a0  converged?    E=F G=F D=F
   step length   :    29.9518975 a0

........................................................................
.............................. CYCLE   11 ..............................
........................................................................
   1  -1223.8331349 -0.122383E+04  0.170E-02    0.16       0.0  T
   2  -1223.8332922 -0.157305E-03  0.129E-02    0.15       1.0  T
   3  -1223.8334118 -0.119595E-03  0.545E-03    0.15       1.0  T
   4  -1223.8332663  0.145438E-03  0.805E-03    0.15       1.0  T
   5  -1223.8334307 -0.164374E-03  0.320E-03    0.15       1.2  T
   6  -1223.8334437 -0.129534E-04  0.161E-03    0.15       2.3  T
   7  -1223.8334529 -0.923150E-05  0.617E-04    0.15       6.1  T
   8  -1223.8334544 -0.155439E-05  0.287E-04    0.15      13.2  T
   9  -1223.8334547 -0.280744E-06  0.133E-04    0.15      28.5  T
  10  -1223.8334548 -0.516886E-07  0.838E-05    0.15      45.1  T
     SCC iter.                  ...        0 min, 33.897 sec
     gradient                   ...        0 min,  2.501 sec
 * total energy  : -1205.3412748 Eh     change       -0.1145444E+00 Eh
   gradient norm :     1.1339146 Eh/a0  converged?    E=F G=F D=F
   step length   :    34.9492194 a0

........................................................................
.............................. CYCLE   12 ..............................
........................................................................
   1  -1223.8300497 -0.122383E+04  0.180E-02    0.19       0.0  T
   2  -1223.8301931 -0.143417E-03  0.141E-02    0.19       1.0  T
   3  -1223.8303604 -0.167279E-03  0.566E-03    0.19       1.0  T
   4  -1223.8302821  0.783355E-04  0.726E-03    0.19       1.0  T
   5  -1223.8303966 -0.114573E-03  0.289E-03    0.19       1.3  T
   6  -1223.8304048 -0.813950E-05  0.126E-03    0.19       3.0  T
   7  -1223.8304087 -0.396010E-05  0.535E-04    0.19       7.1  T
   8  -1223.8304097 -0.945712E-06  0.233E-04    0.19      16.2  T
   9  -1223.8304098 -0.160113E-06  0.674E-05    0.19      56.1  T
  10  -1223.8304098 -0.554792E-08  0.376E-05    0.19     100.8  T
     SCC iter.                  ...        0 min, 33.827 sec
     gradient                   ...        0 min,  2.493 sec
 * total energy  : -1205.4499649 Eh     change       -0.1086901E+00 Eh
   gradient norm :     1.0065377 Eh/a0  converged?    E=F G=F D=F
   step length   :    23.6533611 a0

........................................................................
.............................. CYCLE   13 ..............................
........................................................................
   1  -1223.8511246 -0.122385E+04  0.177E-02    0.23       0.0  T
   2  -1223.8513060 -0.181394E-03  0.132E-02    0.23       1.0  T
   3  -1223.8514714 -0.165454E-03  0.436E-03    0.23       1.0  T
   4  -1223.8514452  0.262727E-04  0.448E-03    0.23       1.0  T
   5  -1223.8514710 -0.258451E-04  0.257E-03    0.23       1.5  T
   6  -1223.8514827 -0.117264E-04  0.614E-04    0.23       6.2  T
   7  -1223.8514831 -0.380911E-06  0.340E-04    0.23      11.1  T
   8  -1223.8514835 -0.330672E-06  0.126E-04    0.23      30.1  T
   9  -1223.8514835 -0.334280E-07  0.539E-05    0.23      70.2  T
     SCC iter.                  ...        0 min, 30.484 sec
     gradient                   ...        0 min,  2.502 sec
 * total energy  : -1205.5488572 Eh     change       -0.9889229E-01 Eh
   gradient norm :     0.8818982 Eh/a0  converged?    E=F G=F D=F
   step length   :    14.5089386 a0

........................................................................
.............................. CYCLE   14 ..............................
........................................................................
   1  -1223.8702506 -0.122387E+04  0.175E-02    0.27       0.0  T
   2  -1223.8703910 -0.140390E-03  0.136E-02    0.27       1.0  T
   3  -1223.8705834 -0.192384E-03  0.438E-03    0.27       1.0  T
   4  -1223.8705562  0.272059E-04  0.486E-03    0.27       1.0  T
   5  -1223.8705996 -0.434140E-04  0.224E-03    0.27       1.7  T
   6  -1223.8706052 -0.559009E-05  0.730E-04    0.27       5.2  T
   7  -1223.8706062 -0.967510E-06  0.325E-04    0.27      11.7  T
   8  -1223.8706065 -0.297960E-06  0.922E-05    0.27      41.0  T
   9  -1223.8706065 -0.112514E-07  0.481E-05    0.27      78.7  T
     SCC iter.                  ...        0 min, 30.511 sec
     gradient                   ...        0 min,  2.512 sec
 * total energy  : -1205.6362912 Eh     change       -0.8743402E-01 Eh
   gradient norm :     0.7612592 Eh/a0  converged?    E=F G=F D=F
   step length   :    11.6028981 a0

........................................................................
.............................. CYCLE   15 ..............................
........................................................................
   1  -1223.9006137 -0.122390E+04  0.168E-02    0.32       0.0  T
   2  -1223.9007567 -0.142917E-03  0.129E-02    0.32       1.0  T
   3  -1223.9009247 -0.168040E-03  0.393E-03    0.32       1.0  T
   4  -1223.9009074  0.173133E-04  0.405E-03    0.32       1.0  T
   5  -1223.9009307 -0.232813E-04  0.204E-03    0.32       1.9  T
   6  -1223.9009367 -0.607230E-05  0.543E-04    0.32       7.0  T
   7  -1223.9009371 -0.403998E-06  0.284E-04    0.32      13.3  T
   8  -1223.9009374 -0.233034E-06  0.784E-05    0.32      48.3  T
   9  -1223.9009374 -0.776345E-08  0.389E-05    0.32      97.3  T
     SCC iter.                  ...        0 min, 30.527 sec
     gradient                   ...        0 min,  2.502 sec
 * total energy  : -1205.7116307 Eh     change       -0.7533948E-01 Eh
   gradient norm :     0.6484663 Eh/a0  converged?    E=F G=F D=F
   step length   :     9.4147423 a0

........................................................................
.............................. CYCLE   16 ..............................
........................................................................
   1  -1223.9372865 -0.122394E+04  0.156E-02    0.37       0.0  T
   2  -1223.9374059 -0.119406E-03  0.123E-02    0.37       1.0  T
   3  -1223.9375581 -0.152226E-03  0.378E-03    0.37       1.0  T
   4  -1223.9375420  0.161653E-04  0.386E-03    0.37       1.0  T
   5  -1223.9375641 -0.221830E-04  0.184E-03    0.37       2.1  T
   6  -1223.9375687 -0.454512E-05  0.442E-04    0.37       8.6  T
   7  -1223.9375690 -0.273662E-06  0.246E-04    0.37      15.4  T
   8  -1223.9375691 -0.166893E-06  0.654E-05    0.37      57.9  T
   9  -1223.9375691 -0.431123E-08  0.309E-05    0.37     122.6  T
     SCC iter.                  ...        0 min, 30.489 sec
     gradient                   ...        0 min,  2.503 sec
 * total energy  : -1205.7745825 Eh     change       -0.6295183E-01 Eh
   gradient norm :     0.5468341 Eh/a0  converged?    E=F G=F D=F
   step length   :     9.0545989 a0

........................................................................
.............................. CYCLE   17 ..............................
........................................................................
   1  -1223.9611767 -0.122396E+04  0.151E-02    0.42       0.0  T
   2  -1223.9612751 -0.983239E-04  0.123E-02    0.42       1.0  T
   3  -1223.9614218 -0.146770E-03  0.367E-03    0.42       1.0  T
   4  -1223.9614069  0.149082E-04  0.381E-03    0.42       1.0  T
   5  -1223.9614263 -0.194270E-04  0.171E-03    0.42       2.2  T
   6  -1223.9614301 -0.375161E-05  0.388E-04    0.42       9.7  T
   7  -1223.9614303 -0.205599E-06  0.221E-04    0.42      17.1  T
   8  -1223.9614304 -0.123491E-06  0.573E-05    0.42      66.1  T
   9  -1223.9614304 -0.334830E-08  0.298E-05    0.42     127.0  T
     SCC iter.                  ...        0 min, 30.464 sec
     gradient                   ...        0 min,  2.500 sec
 * total energy  : -1205.8266301 Eh     change       -0.5204759E-01 Eh
   gradient norm :     0.4522111 Eh/a0  converged?    E=F G=F D=F
   step length   :     8.1017111 a0

........................................................................
.............................. CYCLE   18 ..............................
........................................................................
   1  -1223.9951335 -0.122400E+04  0.140E-02    0.47       0.0  T
   2  -1223.9952147 -0.812419E-04  0.118E-02    0.47       1.0  T
   3  -1223.9953488 -0.134106E-03  0.356E-03    0.47       1.1  T
   4  -1223.9953344  0.144440E-04  0.371E-03    0.47       1.0  T
   5  -1223.9953533 -0.189112E-04  0.155E-03    0.47       2.4  T
   6  -1223.9953560 -0.267709E-05  0.354E-04    0.47      10.7  T
   7  -1223.9953561 -0.180258E-06  0.193E-04    0.47      19.6  T
   8  -1223.9953562 -0.946688E-07  0.525E-05    0.47      72.0  T
     SCC iter.                  ...        0 min, 27.085 sec
     gradient                   ...        0 min,  2.501 sec
 * total energy  : -1205.8687474 Eh     change       -0.4211729E-01 Eh
   gradient norm :     0.3676736 Eh/a0  converged?    E=F G=F D=F
   step length   :     7.1684110 a0

........................................................................
.............................. CYCLE   19 ..............................
........................................................................
   1  -1224.0260985 -0.122403E+04  0.128E-02    0.52       0.0  T
   2  -1224.0261664 -0.679008E-04  0.109E-02    0.52       1.0  T
   3  -1224.0262740 -0.107687E-03  0.336E-03    0.51       1.1  T
   4  -1224.0262606  0.133952E-04  0.345E-03    0.51       1.1  T
   5  -1224.0262763 -0.156052E-04  0.141E-03    0.51       2.7  T
   6  -1224.0262788 -0.252464E-05  0.281E-04    0.51      13.5  T
   7  -1224.0262789 -0.950984E-07  0.164E-04    0.51      23.1  T
   8  -1224.0262789 -0.629643E-07  0.442E-05    0.51      85.6  T
     SCC iter.                  ...        0 min, 27.108 sec
     gradient                   ...        0 min,  2.505 sec
 * total energy  : -1205.9019792 Eh     change       -0.3323183E-01 Eh
   gradient norm :     0.2931849 Eh/a0  converged?    E=F G=F D=F
   step length   :     6.7160608 a0

........................................................................
.............................. CYCLE   20 ..............................
........................................................................
   1  -1224.0415713 -0.122404E+04  0.116E-02    0.56       0.0  T
   2  -1224.0416189 -0.476180E-04  0.101E-02    0.56       1.0  T
   3  -1224.0417155 -0.966056E-04  0.305E-03    0.56       1.2  T
   4  -1224.0417054  0.101801E-04  0.317E-03    0.56       1.2  T
   5  -1224.0417182 -0.128594E-04  0.125E-03    0.56       3.0  T
   6  -1224.0417199 -0.165877E-05  0.258E-04    0.56      14.7  T
   7  -1224.0417200 -0.906564E-07  0.146E-04    0.56      25.9  T
   8  -1224.0417200 -0.490400E-07  0.394E-05    0.56      96.0  T
     SCC iter.                  ...        0 min, 27.131 sec
     gradient                   ...        0 min,  2.502 sec
 * total energy  : -1205.9282342 Eh     change       -0.2625493E-01 Eh
   gradient norm :     0.2263760 Eh/a0  converged?    E=F G=F D=F
   step length   :     6.3902988 a0
 * RMSD in coord.:     0.6250098 a0     energy gain  -0.7233453E+01 Eh
 * calculating model hessian...
Using Lindh-Hessian (1995)
 Shifting diagonal of input Hessian by    1.0027209987820243E-002
 Lowest  eigenvalues of input Hessian
    0.010000    0.010001    0.010015    0.010016    0.010018    0.010018
    0.010019    0.010020    0.010020    0.010021    0.010021    0.010021
    0.010022    0.010022    0.010023    0.010025    0.010025    0.010026
 Highest eigenvalues
    2.977468    2.977776    2.990688    2.990808    2.993094    2.993115


........................................................................
.............................. CYCLE   21 ..............................
........................................................................
   1  -1224.1285650 -0.122413E+04  0.209E-02    0.61       0.0  T
   2  -1224.1287240 -0.158967E-03  0.197E-02    0.61       1.0  T
   3  -1224.1289883 -0.264315E-03  0.668E-03    0.61       1.0  T
   4  -1224.1289426  0.456979E-04  0.614E-03    0.61       1.0  T
   5  -1224.1289860 -0.434132E-04  0.238E-03    0.61       1.6  T
   6  -1224.1289932 -0.720446E-05  0.392E-04    0.61       9.7  T
   7  -1224.1289934 -0.162831E-06  0.161E-04    0.61      23.5  T
   8  -1224.1289934 -0.513101E-07  0.535E-05    0.61      70.7  T
     SCC iter.                  ...        0 min, 27.079 sec
     gradient                   ...        0 min,  2.484 sec
 * total energy  : -1205.9570039 Eh     change       -0.2876973E-01 Eh
   gradient norm :     0.0894049 Eh/a0  converged?    E=F G=F D=F
   step length   :     0.3758762 a0

........................................................................
.............................. CYCLE   22 ..............................
........................................................................
   1  -1224.1730122 -0.122417E+04  0.137E-02    0.66       0.0  T
   2  -1224.1730598 -0.476858E-04  0.123E-02    0.66       1.0  T
   3  -1224.1731904 -0.130565E-03  0.423E-03    0.66       1.0  T
   4  -1224.1731714  0.190168E-04  0.420E-03    0.66       1.0  T
   5  -1224.1731936 -0.222516E-04  0.169E-03    0.66       2.2  T
   6  -1224.1731964 -0.278584E-05  0.309E-04    0.66      12.3  T
   7  -1224.1731965 -0.662355E-07  0.158E-04    0.66      23.9  T
   8  -1224.1731966 -0.560813E-07  0.454E-05    0.66      83.3  T
     SCC iter.                  ...        0 min, 28.061 sec
     gradient                   ...        0 min,  2.518 sec
 * total energy  : -1205.9751515 Eh     change       -0.1814758E-01 Eh
   gradient norm :     0.0344671 Eh/a0  converged?    E=F G=F D=F
   step length   :     1.2023350 a0

........................................................................
.............................. CYCLE   23 ..............................
........................................................................
   1  -1224.1750288 -0.122418E+04  0.742E-03    0.69       0.0  T
   2  -1224.1750477 -0.188980E-04  0.567E-03    0.69       1.0  T
   3  -1224.1750770 -0.292793E-04  0.245E-03    0.69       1.5  T
   4  -1224.1750756  0.143899E-05  0.205E-03    0.69       1.8  T
   5  -1224.1750804 -0.484305E-05  0.815E-04    0.69       4.6  T
   6  -1224.1750811 -0.739551E-06  0.179E-04    0.69      21.1  T
   7  -1224.1750812 -0.475054E-07  0.940E-05    0.69      40.3  T
     SCC iter.                  ...        0 min, 24.632 sec
     gradient                   ...        0 min,  2.521 sec
 * total energy  : -1205.9841771 Eh     change       -0.9025648E-02 Eh
   gradient norm :     0.0499514 Eh/a0  converged?    E=F G=F D=F
   step length   :     2.8579097 a0

........................................................................
.............................. CYCLE   24 ..............................
........................................................................
   1  -1224.1790678 -0.122418E+04  0.652E-03    0.71       0.0  T
   2  -1224.1790752 -0.740762E-05  0.530E-03    0.71       1.0  T
   3  -1224.1791093 -0.340525E-04  0.201E-03    0.71       1.9  T
   4  -1224.1791096 -0.335913E-06  0.164E-03    0.71       2.3  T
   5  -1224.1791131 -0.350936E-05  0.682E-04    0.71       5.6  T
   6  -1224.1791135 -0.362309E-06  0.156E-04    0.71      24.3  T
   7  -1224.1791135 -0.261928E-07  0.823E-05    0.71      46.0  T
     SCC iter.                  ...        0 min, 24.610 sec
     gradient                   ...        0 min,  2.512 sec
 * total energy  : -1205.9934341 Eh     change       -0.9257044E-02 Eh
   gradient norm :     0.0629131 Eh/a0  converged?    E=F G=F D=F
   step length   :     3.7610172 a0

........................................................................
.............................. CYCLE   25 ..............................
........................................................................
   1  -1224.1751176 -0.122418E+04  0.546E-03    0.72       0.0  T
   2  -1224.1751199 -0.226046E-05  0.391E-03    0.72       1.0  T
   3  -1224.1751450 -0.251176E-04  0.189E-03    0.72       2.0  T
   4  -1224.1751513 -0.629594E-05  0.840E-04    0.72       4.5  T
   5  -1224.1751517 -0.443321E-06  0.387E-04    0.72       9.8  T
   6  -1224.1751518 -0.102560E-06  0.144E-04    0.72      26.3  T
   7  -1224.1751519 -0.362597E-07  0.610E-05    0.72      62.1  T
     SCC iter.                  ...        0 min, 24.583 sec
     gradient                   ...        0 min,  2.516 sec
 * total energy  : -1206.0010534 Eh     change       -0.7619205E-02 Eh
   gradient norm :     0.0695163 Eh/a0  converged?    E=F G=F D=F
   step length   :     3.5602553 a0

........................................................................
.............................. CYCLE   26 ..............................
........................................................................
   1  -1224.1704764 -0.122417E+04  0.525E-03    0.72       0.0  T
   2  -1224.1704862 -0.981688E-05  0.286E-03    0.72       1.3  T
   3  -1224.1704945 -0.830457E-05  0.192E-03    0.72       2.0  T
   4  -1224.1705016 -0.707980E-05  0.860E-04    0.72       4.4  T
   5  -1224.1705021 -0.505815E-06  0.338E-04    0.72      11.2  T
   6  -1224.1705021 -0.614950E-07  0.146E-04    0.72      26.0  T
   7  -1224.1705022 -0.419013E-07  0.551E-05    0.72      68.8  T
     SCC iter.                  ...        0 min, 24.575 sec
     gradient                   ...        0 min,  2.517 sec
 * total energy  : -1206.0079467 Eh     change       -0.6893369E-02 Eh
   gradient norm :     0.0698177 Eh/a0  converged?    E=F G=F D=F
   step length   :     6.2391121 a0

........................................................................
.............................. CYCLE   27 ..............................
........................................................................
   1  -1224.1682479 -0.122417E+04  0.559E-03    0.72       0.0  T
   2  -1224.1682546 -0.666081E-05  0.345E-03    0.72       1.1  T
   3  -1224.1682704 -0.158120E-04  0.212E-03    0.72       1.8  T
   4  -1224.1682789 -0.854717E-05  0.823E-04    0.72       4.6  T
   5  -1224.1682793 -0.358819E-06  0.356E-04    0.72      10.6  T
   6  -1224.1682793 -0.555585E-07  0.139E-04    0.72      27.2  T
   7  -1224.1682794 -0.354080E-07  0.554E-05    0.72      68.3  T
     SCC iter.                  ...        0 min, 24.604 sec
     gradient                   ...        0 min,  2.518 sec
 * total energy  : -1206.0144562 Eh     change       -0.6509520E-02 Eh
   gradient norm :     0.0657593 Eh/a0  converged?    E=F G=F D=F
   step length   :     4.9044108 a0

........................................................................
.............................. CYCLE   28 ..............................
........................................................................
   1  -1224.1733791 -0.122417E+04  0.592E-03    0.71       0.0  T
   2  -1224.1733901 -0.110037E-04  0.344E-03    0.71       1.1  T
   3  -1224.1734030 -0.129159E-04  0.210E-03    0.71       1.8  T
   4  -1224.1734107 -0.771209E-05  0.920E-04    0.71       4.1  T
   5  -1224.1734114 -0.657642E-06  0.417E-04    0.71       9.1  T
   6  -1224.1734115 -0.915720E-07  0.126E-04    0.71      30.1  T
   7  -1224.1734115 -0.228772E-07  0.612E-05    0.71      61.9  T
     SCC iter.                  ...        0 min, 24.580 sec
     gradient                   ...        0 min,  2.519 sec
 * total energy  : -1206.0203742 Eh     change       -0.5917990E-02 Eh
   gradient norm :     0.0588294 Eh/a0  converged?    E=F G=F D=F
   step length   :     4.8614906 a0

........................................................................
.............................. CYCLE   29 ..............................
........................................................................
   1  -1224.1802895 -0.122418E+04  0.619E-03    0.70       0.0  T
   2  -1224.1803022 -0.127176E-04  0.363E-03    0.70       1.0  T
   3  -1224.1803155 -0.132719E-04  0.217E-03    0.70       1.7  T
   4  -1224.1803233 -0.779713E-05  0.102E-03    0.70       3.7  T
   5  -1224.1803243 -0.993035E-06  0.466E-04    0.70       8.1  T
   6  -1224.1803244 -0.119206E-06  0.126E-04    0.70      30.1  T
   7  -1224.1803244 -0.214272E-07  0.623E-05    0.70      60.7  T
     SCC iter.                  ...        0 min, 24.580 sec
     gradient                   ...        0 min,  2.515 sec
 * total energy  : -1206.0255079 Eh     change       -0.5133674E-02 Eh
   gradient norm :     0.0509606 Eh/a0  converged?    E=F G=F D=F
   step length   :     5.5164306 a0

........................................................................
.............................. CYCLE   30 ..............................
........................................................................
   1  -1224.1946312 -0.122419E+04  0.655E-03    0.69       0.0  T
   2  -1224.1946458 -0.145969E-04  0.375E-03    0.69       1.0  T
   3  -1224.1946593 -0.135321E-04  0.228E-03    0.69       1.7  T
   4  -1224.1946677 -0.840313E-05  0.107E-03    0.69       3.5  T
   5  -1224.1946687 -0.103987E-05  0.488E-04    0.69       7.8  T
   6  -1224.1946689 -0.150942E-06  0.131E-04    0.69      28.9  T
   7  -1224.1946689 -0.212551E-07  0.615E-05    0.69      61.6  T
     SCC iter.                  ...        0 min, 24.603 sec
     gradient                   ...        0 min,  2.517 sec
 * total energy  : -1206.0303680 Eh     change       -0.4860122E-02 Eh
   gradient norm :     0.0417581 Eh/a0  converged?    E=F G=F D=F
   step length   :     4.6313125 a0

........................................................................
.............................. CYCLE   31 ..............................
........................................................................
   1  -1224.2141467 -0.122421E+04  0.666E-03    0.68       0.0  T
   2  -1224.2141642 -0.174547E-04  0.377E-03    0.68       1.0  T
   3  -1224.2141780 -0.138603E-04  0.220E-03    0.68       1.7  T
   4  -1224.2141857 -0.763681E-05  0.105E-03    0.68       3.6  T
   5  -1224.2141868 -0.111766E-05  0.521E-04    0.68       7.3  T
   6  -1224.2141870 -0.175194E-06  0.127E-04    0.68      29.9  T
   7  -1224.2141870 -0.182172E-07  0.627E-05    0.68      60.3  T
     SCC iter.                  ...        0 min, 24.683 sec
     gradient                   ...        0 min,  2.525 sec
 * total energy  : -1206.0342905 Eh     change       -0.3922442E-02 Eh
   gradient norm :     0.0350648 Eh/a0  converged?    E=F G=F D=F
   step length   :     3.3749940 a0

........................................................................
.............................. CYCLE   32 ..............................
........................................................................
   1  -1224.2358374 -0.122424E+04  0.665E-03    0.66       0.0  T
   2  -1224.2358539 -0.165205E-04  0.375E-03    0.66       1.0  T
   3  -1224.2358672 -0.133124E-04  0.228E-03    0.66       1.7  T
   4  -1224.2358759 -0.874430E-05  0.107E-03    0.66       3.5  T
   5  -1224.2358770 -0.106430E-05  0.481E-04    0.66       7.9  T
   6  -1224.2358771 -0.142771E-06  0.142E-04    0.66      26.6  T
   7  -1224.2358772 -0.266932E-07  0.605E-05    0.66      62.5  T
     SCC iter.                  ...        0 min, 24.707 sec
     gradient                   ...        0 min,  2.527 sec
 * total energy  : -1206.0378301 Eh     change       -0.3539656E-02 Eh
   gradient norm :     0.0323201 Eh/a0  converged?    E=F G=F D=F
   step length   :     5.1981218 a0

........................................................................
.............................. CYCLE   33 ..............................
........................................................................
   1  -1224.2606781 -0.122426E+04  0.647E-03    0.65       0.0  T
   2  -1224.2606967 -0.185987E-04  0.345E-03    0.65       1.1  T
   3  -1224.2607085 -0.117542E-04  0.219E-03    0.65       1.7  T
   4  -1224.2607174 -0.895053E-05  0.917E-04    0.65       4.1  T
   5  -1224.2607181 -0.676659E-06  0.430E-04    0.65       8.8  T
   6  -1224.2607182 -0.953594E-07  0.149E-04    0.65      25.3  T
   7  -1224.2607182 -0.305038E-07  0.594E-05    0.65      63.7  T
     SCC iter.                  ...        0 min, 24.647 sec
     gradient                   ...        0 min,  2.522 sec
 * total energy  : -1206.0409400 Eh     change       -0.3109855E-02 Eh
   gradient norm :     0.0314024 Eh/a0  converged?    E=F G=F D=F
   step length   :     2.4906717 a0

........................................................................
.............................. CYCLE   34 ..............................
........................................................................
   1  -1224.2806614 -0.122428E+04  0.620E-03    0.64       0.0  T
   2  -1224.2806791 -0.176832E-04  0.329E-03    0.64       1.2  T
   3  -1224.2806907 -0.115967E-04  0.208E-03    0.64       1.8  T
   4  -1224.2806994 -0.863941E-05  0.809E-04    0.64       4.7  T
   5  -1224.2806999 -0.514272E-06  0.374E-04    0.64      10.1  T
   6  -1224.2806999 -0.565235E-07  0.151E-04    0.64      25.0  T
   7  -1224.2807000 -0.319424E-07  0.581E-05    0.64      65.2  T
     SCC iter.                  ...        0 min, 24.654 sec
     gradient                   ...        0 min,  2.518 sec
 * total energy  : -1206.0435835 Eh     change       -0.2643520E-02 Eh
   gradient norm :     0.0327657 Eh/a0  converged?    E=F G=F D=F
   step length   :     3.1295196 a0

........................................................................
.............................. CYCLE   35 ..............................
........................................................................
   1  -1224.2980431 -0.122430E+04  0.594E-03    0.64       0.0  T
   2  -1224.2980598 -0.167305E-04  0.311E-03    0.64       1.2  T
   3  -1224.2980702 -0.103789E-04  0.199E-03    0.64       1.9  T
   4  -1224.2980784 -0.814805E-05  0.754E-04    0.64       5.0  T
   5  -1224.2980788 -0.455360E-06  0.333E-04    0.64      11.4  T
   6  -1224.2980789 -0.313819E-07  0.154E-04    0.64      24.6  T
   7  -1224.2980789 -0.368634E-07  0.535E-05    0.64      70.7  T
     SCC iter.                  ...        0 min, 24.669 sec
     gradient                   ...        0 min,  2.520 sec
 * total energy  : -1206.0461377 Eh     change       -0.2554223E-02 Eh
   gradient norm :     0.0336910 Eh/a0  converged?    E=F G=F D=F
   step length   :     4.8436624 a0

........................................................................
.............................. CYCLE   36 ..............................
........................................................................
   1  -1224.3138900 -0.122431E+04  0.564E-03    0.63       0.0  T
   2  -1224.3139067 -0.166665E-04  0.294E-03    0.63       1.3  T
   3  -1224.3139157 -0.906554E-05  0.186E-03    0.63       2.0  T
   4  -1224.3139227 -0.694685E-05  0.745E-04    0.63       5.1  T
   5  -1224.3139231 -0.425636E-06  0.314E-04    0.63      12.1  T
   6  -1224.3139231 -0.175651E-07  0.161E-04    0.63      23.5  T
   7  -1224.3139232 -0.469997E-07  0.520E-05    0.63      72.8  T
     SCC iter.                  ...        0 min, 24.750 sec
     gradient                   ...        0 min,  2.519 sec
 * total energy  : -1206.0485195 Eh     change       -0.2381774E-02 Eh
   gradient norm :     0.0326304 Eh/a0  converged?    E=F G=F D=F
   step length   :     3.1717229 a0

........................................................................
.............................. CYCLE   37 ..............................
........................................................................
   1  -1224.3248819 -0.122432E+04  0.532E-03    0.63       0.0  T
   2  -1224.3248966 -0.147286E-04  0.283E-03    0.63       1.3  T
   3  -1224.3249054 -0.883497E-05  0.172E-03    0.63       2.2  T
   4  -1224.3249115 -0.605361E-05  0.694E-04    0.63       5.5  T
   5  -1224.3249119 -0.394990E-06  0.292E-04    0.63      13.0  T
   6  -1224.3249119 -0.113162E-07  0.157E-04    0.63      24.1  T
   7  -1224.3249120 -0.459536E-07  0.486E-05    0.63      77.9  T
     SCC iter.                  ...        0 min, 24.696 sec
     gradient                   ...        0 min,  2.518 sec
 * total energy  : -1206.0505970 Eh     change       -0.2077553E-02 Eh
   gradient norm :     0.0313777 Eh/a0  converged?    E=F G=F D=F
   step length   :     4.3416471 a0

........................................................................
.............................. CYCLE   38 ..............................
........................................................................
   1  -1224.3286470 -0.122433E+04  0.503E-03    0.63       0.0  T
   2  -1224.3286600 -0.130449E-04  0.275E-03    0.63       1.4  T
   3  -1224.3286687 -0.867937E-05  0.161E-03    0.63       2.3  T
   4  -1224.3286740 -0.527979E-05  0.681E-04    0.63       5.6  T
   5  -1224.3286744 -0.374608E-06  0.283E-04    0.63      13.4  T
   6  -1224.3286744 -0.159273E-07  0.157E-04    0.63      24.2  T
   7  -1224.3286744 -0.483365E-07  0.467E-05    0.63      81.0  T
     SCC iter.                  ...        0 min, 24.820 sec
     gradient                   ...        0 min,  2.516 sec
 * total energy  : -1206.0526773 Eh     change       -0.2080298E-02 Eh
   gradient norm :     0.0295034 Eh/a0  converged?    E=F G=F D=F
   step length   :     3.8765896 a0

........................................................................
.............................. CYCLE   39 ..............................
........................................................................
   1  -1224.3371924 -0.122434E+04  0.479E-03    0.64       0.0  T
   2  -1224.3372048 -0.123467E-04  0.273E-03    0.64       1.4  T
   3  -1224.3372128 -0.807503E-05  0.155E-03    0.64       2.4  T
   4  -1224.3372168 -0.396670E-05  0.800E-04    0.64       4.7  T
   5  -1224.3372173 -0.465659E-06  0.346E-04    0.64      11.0  T
   6  -1224.3372173 -0.604482E-07  0.176E-04    0.64      21.6  T
   7  -1224.3372174 -0.694147E-07  0.497E-05    0.64      76.2  T
     SCC iter.                  ...        0 min, 24.792 sec
     gradient                   ...        0 min,  2.525 sec
 * total energy  : -1206.0547688 Eh     change       -0.2091457E-02 Eh
   gradient norm :     0.0255683 Eh/a0  converged?    E=F G=F D=F
   step length   :     2.5189941 a0

........................................................................
.............................. CYCLE   40 ..............................
........................................................................
   1  -1224.3245533 -0.122432E+04  0.457E-03    0.64       0.0  T
   2  -1224.3245625 -0.917000E-05  0.282E-03    0.64       1.3  T
   3  -1224.3245721 -0.964184E-05  0.146E-03    0.64       2.6  T
   4  -1224.3245753 -0.321109E-05  0.804E-04    0.64       4.7  T
   5  -1224.3245758 -0.506675E-06  0.353E-04    0.64      10.7  T
   6  -1224.3245760 -0.124049E-06  0.148E-04    0.64      25.5  T
   7  -1224.3245760 -0.456744E-07  0.489E-05    0.64      77.4  T
     SCC iter.                  ...        0 min, 24.729 sec
     gradient                   ...        0 min,  2.521 sec
 * total energy  : -1206.0563135 Eh     change       -0.1544746E-02 Eh
   gradient norm :     0.0249959 Eh/a0  converged?    E=F G=F D=F
   step length   :     3.5467209 a0

........................................................................
.............................. CYCLE   41 ..............................
........................................................................
   1  -1224.3189598 -0.122432E+04  0.420E-03    0.65       0.0  T
   2  -1224.3189678 -0.800631E-05  0.282E-03    0.65       1.3  T
   3  -1224.3189801 -0.122523E-04  0.126E-03    0.65       3.0  T
   4  -1224.3189824 -0.233832E-05  0.709E-04    0.65       5.3  T
   5  -1224.3189827 -0.328581E-06  0.351E-04    0.65      10.8  T
   6  -1224.3189828 -0.125719E-06  0.155E-04    0.65      24.5  T
   7  -1224.3189829 -0.488217E-07  0.518E-05    0.65      73.0  T
     SCC iter.                  ...        0 min, 24.684 sec
     gradient                   ...        0 min,  2.528 sec
 * total energy  : -1206.0582271 Eh     change       -0.1913507E-02 Eh
   gradient norm :     0.0229517 Eh/a0  converged?    E=F G=F D=F
   step length   :     2.4859824 a0

........................................................................
.............................. CYCLE   42 ..............................
........................................................................
   1  -1224.2844906 -0.122428E+04  0.122E-02    0.67       0.0  T
   2  -1224.2845320 -0.413879E-04  0.703E-03    0.67       1.0  T
   3  -1224.2845527 -0.207830E-04  0.468E-03    0.67       1.0  T
   4  -1224.2845681 -0.153623E-04  0.272E-03    0.67       1.4  T
   5  -1224.2845779 -0.978635E-05  0.851E-04    0.67       4.4  T
   6  -1224.2845792 -0.131107E-05  0.338E-04    0.67      11.2  T
   7  -1224.2845794 -0.233915E-06  0.955E-05    0.67      39.6  T
   8  -1224.2845794 -0.159430E-07  0.407E-05    0.67      93.1  T
     SCC iter.                  ...        0 min, 28.170 sec
     gradient                   ...        0 min,  2.525 sec
 * total energy  : -1206.0598404 Eh     change       -0.1613330E-02 Eh
   gradient norm :     0.0352099 Eh/a0  converged?    E=F G=F D=F
   step length   :     1.6122106 a0
 * RMSD in coord.:     0.6717252 a0     energy gain  -0.1316062E+00 Eh
 * calculating model hessian...
Using Lindh-Hessian (1995)
 Shifting diagonal of input Hessian by    1.0023268987206393E-002
 Lowest  eigenvalues of input Hessian
    0.010000    0.010000    0.010002    0.010004    0.010009    0.010013
    0.010014    0.010014    0.010014    0.010014    0.010014    0.010015
    0.010015    0.010015    0.010018    0.010019    0.010020    0.010020
 Highest eigenvalues
    3.000375    3.001216    3.006399    3.006714    3.006879    3.007101


........................................................................
.............................. CYCLE   43 ..............................
........................................................................
   1  -1224.2982762 -0.122430E+04  0.538E-03    0.67       0.0  T
   2  -1224.2982822 -0.601667E-05  0.322E-03    0.67       1.2  T
   3  -1224.2982830 -0.740232E-06  0.209E-03    0.67       1.8  T
   4  -1224.2982837 -0.717760E-06  0.121E-03    0.67       3.1  T
   5  -1224.2982864 -0.270559E-05  0.328E-04    0.67      11.5  T
   6  -1224.2982866 -0.182579E-06  0.104E-04    0.67      36.5  T
   7  -1224.2982866 -0.189814E-07  0.426E-05    0.67      88.8  T
     SCC iter.                  ...        0 min, 24.842 sec
     gradient                   ...        0 min,  2.525 sec
 * total energy  : -1206.0616196 Eh     change       -0.1779189E-02 Eh
   gradient norm :     0.0171673 Eh/a0  converged?    E=F G=F D=F
   step length   :     0.2687999 a0

........................................................................
.............................. CYCLE   44 ..............................
........................................................................
   1  -1224.3170265 -0.122432E+04  0.105E-02    0.65       0.0  T
   2  -1224.3170517 -0.251735E-04  0.628E-03    0.65       1.0  T
   3  -1224.3170566 -0.490050E-05  0.399E-03    0.65       1.0  T
   4  -1224.3170579 -0.133541E-05  0.224E-03    0.65       1.7  T
   5  -1224.3170673 -0.942171E-05  0.651E-04    0.65       5.8  T
   6  -1224.3170681 -0.755762E-06  0.188E-04    0.65      20.1  T
   7  -1224.3170682 -0.617290E-07  0.891E-05    0.65      42.5  T
     SCC iter.                  ...        0 min, 24.672 sec
     gradient                   ...        0 min,  2.526 sec
 * total energy  : -1206.0600570 Eh     change        0.1562617E-02 Eh
   gradient norm :     0.0415415 Eh/a0  converged?    E=F G=F D=F
   step length   :     0.6579763 a0

........................................................................
.............................. CYCLE   45 ..............................
........................................................................
   1  -1224.3212674 -0.122432E+04  0.636E-03    0.65       0.0  T
   2  -1224.3212710 -0.350914E-05  0.455E-03    0.65       1.0  T
   3  -1224.3212711 -0.148059E-06  0.258E-03    0.65       1.5  T
   4  -1224.3212711  0.376181E-07  0.119E-03    0.65       3.2  T
   5  -1224.3212751 -0.398456E-05  0.333E-04    0.65      11.4  T
   6  -1224.3212753 -0.282596E-06  0.654E-05    0.65      57.9  T
   7  -1224.3212753 -0.601153E-08  0.244E-05    0.65     155.1  T
     SCC iter.                  ...        0 min, 24.675 sec
     gradient                   ...        0 min,  2.530 sec
 * total energy  : -1206.0632969 Eh     change       -0.3239953E-02 Eh
   gradient norm :     0.0186320 Eh/a0  converged?    E=F G=F D=F
   step length   :     0.3315412 a0

........................................................................
.............................. CYCLE   46 ..............................
........................................................................
   1  -1224.3010344 -0.122430E+04  0.454E-03    0.66       0.0  T
   2  -1224.3010378 -0.344100E-05  0.284E-03    0.66       1.3  T
   3  -1224.3010378  0.200043E-08  0.174E-03    0.66       2.2  T
   4  -1224.3010382 -0.305774E-06  0.917E-04    0.66       4.1  T
   5  -1224.3010396 -0.140285E-05  0.295E-04    0.66      12.8  T
   6  -1224.3010398 -0.197618E-06  0.862E-05    0.66      43.9  T
   7  -1224.3010398 -0.129317E-07  0.277E-05    0.66     136.5  T
     SCC iter.                  ...        0 min, 24.672 sec
     gradient                   ...        0 min,  2.525 sec
 * total energy  : -1206.0628728 Eh     change        0.4241477E-03 Eh
   gradient norm :     0.0182578 Eh/a0  converged?    E=F G=F D=F
   step length   :     0.3633559 a0

........................................................................
.............................. CYCLE   47 ..............................
........................................................................
   1  -1224.3066911 -0.122431E+04  0.254E-03    0.65       0.0  T
   2  -1224.3066925 -0.138419E-05  0.195E-03    0.65       1.9  T
   3  -1224.3066950 -0.252112E-05  0.973E-04    0.65       3.9  T
   4  -1224.3066947  0.319751E-06  0.731E-04    0.65       5.2  T
   5  -1224.3066955 -0.831643E-06  0.193E-04    0.65      19.6  T
   6  -1224.3066955 -0.521279E-07  0.679E-05    0.65      55.8  T
     SCC iter.                  ...        0 min, 21.267 sec
     gradient                   ...        0 min,  2.530 sec
 * total energy  : -1206.0646982 Eh     change       -0.1825392E-02 Eh
   gradient norm :     0.0119579 Eh/a0  converged?    E=F G=F D=F
   step length   :     0.3928931 a0

........................................................................
.............................. CYCLE   48 ..............................
........................................................................
   1  -1224.3136738 -0.122431E+04  0.541E-03    0.65       0.0  T
   2  -1224.3136811 -0.736863E-05  0.333E-03    0.65       1.1  T
   3  -1224.3136871 -0.598520E-05  0.199E-03    0.65       1.9  T
   4  -1224.3136885 -0.143314E-05  0.112E-03    0.65       3.4  T
   5  -1224.3136905 -0.195972E-05  0.370E-04    0.65      10.2  T
   6  -1224.3136907 -0.194246E-06  0.112E-04    0.65      33.9  T
   7  -1224.3136907 -0.211717E-07  0.576E-05    0.65      65.7  T
     SCC iter.                  ...        0 min, 24.645 sec
     gradient                   ...        0 min,  2.531 sec
 * total energy  : -1206.0644896 Eh     change        0.2085928E-03 Eh
   gradient norm :     0.0246612 Eh/a0  converged?    E=F G=F D=F
   step length   :     0.7151394 a0

........................................................................
.............................. CYCLE   49 ..............................
........................................................................
   1  -1224.3148481 -0.122431E+04  0.307E-03    0.65       0.0  T
   2  -1224.3148510 -0.298427E-05  0.273E-03    0.65       1.4  T
   3  -1224.3148567 -0.563430E-05  0.117E-03    0.65       3.2  T
   4  -1224.3148551  0.155194E-05  0.105E-03    0.65       3.6  T
   5  -1224.3148569 -0.181137E-05  0.265E-04    0.65      14.3  T
   6  -1224.3148570 -0.105171E-06  0.918E-05    0.65      41.2  T
   7  -1224.3148571 -0.160953E-07  0.243E-05    0.65     155.5  T
     SCC iter.                  ...        0 min, 24.631 sec
     gradient                   ...        0 min,  2.521 sec
 * total energy  : -1206.0659266 Eh     change       -0.1437023E-02 Eh
   gradient norm :     0.0225171 Eh/a0  converged?    E=F G=F D=F
   step length   :     0.5183143 a0

........................................................................
.............................. CYCLE   50 ..............................
........................................................................
   1  -1224.2991309 -0.122430E+04  0.600E-03    0.66       0.0  T
   2  -1224.2991395 -0.854187E-05  0.380E-03    0.66       1.0  T
   3  -1224.2991418 -0.236008E-05  0.220E-03    0.66       1.7  T
   4  -1224.2991396  0.224660E-05  0.152E-03    0.66       2.5  T
   5  -1224.2991441 -0.456314E-05  0.369E-04    0.66      10.3  T
   6  -1224.2991444 -0.258183E-06  0.124E-04    0.66      30.5  T
   7  -1224.2991444 -0.280263E-07  0.426E-05    0.66      88.8  T
     SCC iter.                  ...        0 min, 24.646 sec
     gradient                   ...        0 min,  2.515 sec
 * total energy  : -1206.0664415 Eh     change       -0.5149318E-03 Eh
   gradient norm :     0.0195290 Eh/a0  converged?    E=F G=F D=F
   step length   :     0.5907653 a0

........................................................................
.............................. CYCLE   51 ..............................
........................................................................
   1  -1224.3043521 -0.122430E+04  0.334E-03    0.66       0.0  T
   2  -1224.3043540 -0.196421E-05  0.223E-03    0.66       1.7  T
   3  -1224.3043567 -0.272369E-05  0.134E-03    0.66       2.8  T
   4  -1224.3043576 -0.892181E-06  0.752E-04    0.66       5.0  T
   5  -1224.3043585 -0.852328E-06  0.244E-04    0.66      15.5  T
   6  -1224.3043586 -0.104326E-06  0.895E-05    0.66      42.3  T
   7  -1224.3043586 -0.184816E-07  0.305E-05    0.66     123.9  T
     SCC iter.                  ...        0 min, 24.740 sec
     gradient                   ...        0 min,  2.519 sec
 * total energy  : -1206.0679237 Eh     change       -0.1482218E-02 Eh
   gradient norm :     0.0165442 Eh/a0  converged?    E=F G=F D=F
   step length   :     0.5709654 a0

........................................................................
.............................. CYCLE   52 ..............................
........................................................................
   1  -1224.3009572 -0.122430E+04  0.663E-03    0.66       0.0  T
   2  -1224.3009637 -0.652900E-05  0.447E-03    0.66       1.0  T
   3  -1224.3009764 -0.127391E-04  0.259E-03    0.66       1.5  T
   4  -1224.3009790 -0.255747E-05  0.145E-03    0.66       2.6  T
   5  -1224.3009823 -0.331089E-05  0.467E-04    0.66       8.1  T
   6  -1224.3009827 -0.362163E-06  0.161E-04    0.66      23.6  T
   7  -1224.3009827 -0.558205E-07  0.604E-05    0.66      62.7  T
     SCC iter.                  ...        0 min, 24.623 sec
     gradient                   ...        0 min,  2.523 sec
 * total energy  : -1206.0674843 Eh     change        0.4393871E-03 Eh
   gradient norm :     0.0296135 Eh/a0  converged?    E=F G=F D=F
   step length   :     1.0843455 a0

........................................................................
.............................. CYCLE   53 ..............................
........................................................................
   1  -1224.3163204 -0.122432E+04  0.474E-03    0.66       0.0  T
   2  -1224.3163233 -0.288302E-05  0.345E-03    0.66       1.1  T
   3  -1224.3163263 -0.292816E-05  0.192E-03    0.66       2.0  T
   4  -1224.3163240  0.223321E-05  0.123E-03    0.66       3.1  T
   5  -1224.3163274 -0.343098E-05  0.250E-04    0.66      15.1  T
   6  -1224.3163276 -0.121474E-06  0.694E-05    0.66      54.5  T
   7  -1224.3163276 -0.879800E-08  0.237E-05    0.66     159.4  T
     SCC iter.                  ...        0 min, 24.630 sec
     gradient                   ...        0 min,  2.528 sec
 * total energy  : -1206.0698178 Eh     change       -0.2333448E-02 Eh
   gradient norm :     0.0117526 Eh/a0  converged?    E=F G=F D=F
   step length   :     0.2887563 a0

........................................................................
.............................. CYCLE   54 ..............................
........................................................................
   1  -1224.3074486 -0.122431E+04  0.331E-03    0.66       0.0  T
   2  -1224.3074514 -0.278822E-05  0.221E-03    0.66       1.7  T
   3  -1224.3074537 -0.238228E-05  0.136E-03    0.66       2.8  T
   4  -1224.3074548 -0.102403E-05  0.845E-04    0.66       4.5  T
   5  -1224.3074558 -0.103798E-05  0.275E-04    0.66      13.8  T
   6  -1224.3074559 -0.113519E-06  0.115E-04    0.66      32.9  T
   7  -1224.3074560 -0.321684E-07  0.297E-05    0.66     127.4  T
     SCC iter.                  ...        0 min, 24.642 sec
     gradient                   ...        0 min,  2.522 sec
 * total energy  : -1206.0697526 Eh     change        0.6522090E-04 Eh
   gradient norm :     0.0159271 Eh/a0  converged?    E=F G=F D=F
   step length   :     0.6365325 a0

........................................................................
.............................. CYCLE   55 ..............................
........................................................................
   1  -1224.3000499 -0.122430E+04  0.358E-03    0.66       0.0  T
   2  -1224.3000521 -0.224936E-05  0.237E-03    0.66       1.6  T
   3  -1224.3000595 -0.732998E-05  0.131E-03    0.66       2.9  T
   4  -1224.3000617 -0.223274E-05  0.666E-04    0.66       5.7  T
   5  -1224.3000620 -0.318145E-06  0.282E-04    0.66      13.4  T
   6  -1224.3000621 -0.115595E-06  0.118E-04    0.66      32.0  T
   7  -1224.3000622 -0.327032E-07  0.365E-05    0.66     103.6  T
     SCC iter.                  ...        0 min, 24.694 sec
     gradient                   ...        0 min,  2.522 sec
 * total energy  : -1206.0712942 Eh     change       -0.1541584E-02 Eh
   gradient norm :     0.0138950 Eh/a0  converged?    E=F G=F D=F
   step length   :     0.8485102 a0

........................................................................
.............................. CYCLE   56 ..............................
........................................................................
   1  -1224.3128831 -0.122431E+04  0.391E-03    0.67       0.0  T
   2  -1224.3128874 -0.429790E-05  0.257E-03    0.67       1.5  T
   3  -1224.3128962 -0.872988E-05  0.136E-03    0.67       2.8  T
   4  -1224.3128985 -0.232531E-05  0.760E-04    0.67       5.0  T
   5  -1224.3128989 -0.404518E-06  0.332E-04    0.67      11.4  T
   6  -1224.3128990 -0.141029E-06  0.144E-04    0.67      26.3  T
   7  -1224.3128991 -0.461391E-07  0.420E-05    0.67      90.1  T
     SCC iter.                  ...        0 min, 24.594 sec
     gradient                   ...        0 min,  2.517 sec
 * total energy  : -1206.0720251 Eh     change       -0.7309397E-03 Eh
   gradient norm :     0.0159221 Eh/a0  converged?    E=F G=F D=F
   step length   :     0.9907000 a0

........................................................................
.............................. CYCLE   57 ..............................
........................................................................
   1  -1224.3187590 -0.122432E+04  0.357E-03    0.67       0.0  T
   2  -1224.3187621 -0.306480E-05  0.242E-03    0.67       1.6  T
   3  -1224.3187717 -0.959795E-05  0.121E-03    0.67       3.1  T
   4  -1224.3187740 -0.231413E-05  0.618E-04    0.67       6.1  T
   5  -1224.3187742 -0.215245E-06  0.305E-04    0.67      12.4  T
   6  -1224.3187743 -0.981699E-07  0.142E-04    0.67      26.6  T
   7  -1224.3187744 -0.469361E-07  0.348E-05    0.67     108.8  T
     SCC iter.                  ...        0 min, 24.592 sec
     gradient                   ...        0 min,  2.522 sec
 * total energy  : -1206.0730298 Eh     change       -0.1004750E-02 Eh
   gradient norm :     0.0156417 Eh/a0  converged?    E=F G=F D=F
   step length   :     1.0879038 a0

........................................................................
.............................. CYCLE   58 ..............................
........................................................................
   1  -1224.3064507 -0.122431E+04  0.362E-03    0.67       0.0  T
   2  -1224.3064532 -0.243694E-05  0.242E-03    0.67       1.6  T
   3  -1224.3064624 -0.921237E-05  0.128E-03    0.67       3.0  T
   4  -1224.3064650 -0.266043E-05  0.639E-04    0.67       5.9  T
   5  -1224.3064653 -0.266259E-06  0.296E-04    0.67      12.8  T
   6  -1224.3064654 -0.105731E-06  0.132E-04    0.67      28.6  T
   7  -1224.3064655 -0.399430E-07  0.350E-05    0.67     108.2  T
     SCC iter.                  ...        0 min, 24.608 sec
     gradient                   ...        0 min,  2.522 sec
 * total energy  : -1206.0738716 Eh     change       -0.8417104E-03 Eh
   gradient norm :     0.0145581 Eh/a0  converged?    E=F G=F D=F
   step length   :     2.1476338 a0

........................................................................
.............................. CYCLE   59 ..............................
........................................................................
   1  -1224.3153186 -0.122432E+04  0.405E-03    0.67       0.0  T
[...]
   435   6 C      467   1 H                                       1.0826511
   438   6 C      468   1 H                                       1.0925882
   438   6 C      469   1 H                                       1.0952471
   438   6 C      470   1 H                                       1.0952247
   440   6 C      471   1 H                                       1.0781987
   441   6 C      472   1 H                                       1.0783350
   444   7 N      473   1 H                                       1.0144169
   448   6 C      474   1 H                                       1.0966819
   448   6 C      475   1 H                                       1.0967864
   448   6 C      476   1 H                                       1.0916175
   449   6 C      477   1 H                                       1.0815354
   450   6 C      478   1 H                                       1.0841178
   451   6 C      479   1 H                                       1.0826539
   454   6 C      480   1 H                                       1.0951815
   454   6 C      481   1 H                                       1.0925847
   454   6 C      482   1 H                                       1.0951969
   483   6 C      484   6 C                                       1.4088282
   484   6 C      485   6 C                                       1.4189798
   485   6 C      486   6 C                                       1.3684534
   486   6 C      487   6 C                                       1.4211428
   484   6 C      488   7 N                                       1.3625919
   487   6 C      488   7 N                                       1.3695030
   487   6 C      489   6 C                                       1.3987531
   489   6 C      490   6 C                                       1.3935186
   490   6 C      491   6 C                                       1.4517521
   491   6 C      492   6 C                                       1.3495301
   490   6 C      493   7 N                                       1.3625095
   492   6 C      494   6 C                                       1.4496828
   493   7 N      494   6 C                                       1.3476609
   494   6 C      495   6 C                                       1.4105985
   495   6 C      496   6 C                                       1.4088215
   496   6 C      497   6 C                                       1.4191053
   497   6 C      498   6 C                                       1.3683517
   498   6 C      499   6 C                                       1.4211771
   499   6 C      500   6 C                                       1.3985461
   501   6 C      502   6 C                                       1.4095178
   502   6 C      503   8 O                                       1.3609963
   503   8 O      504   6 C                                       1.4133917
   502   6 C      505   6 C                                       1.3894767
   505   6 C      506   6 C                                       1.3901150
   506   6 C      507   6 C                                       1.3790176
   501   6 C      508   6 C                                       1.3971746
   507   6 C      508   6 C                                       1.4021104
   508   6 C      509   8 O                                       1.3573572
   509   8 O      510   6 C                                       1.4147862
   500   6 C      511   6 C                                       1.3937311
   511   6 C      512   6 C                                       1.4516854
   512   6 C      513   6 C                                       1.3496502
   483   6 C      514   6 C                                       1.4105073
   513   6 C      514   6 C                                       1.4495379
   511   6 C      515   7 N                                       1.3622669
   514   6 C      515   7 N                                       1.3478425
   496   6 C      516   7 N                                       1.3624808
   499   6 C      516   7 N                                       1.3696509
   517   6 C      518   6 C                                       1.4096435
   518   6 C      519   8 O                                       1.3610006
   519   8 O      520   6 C                                       1.4133710
   518   6 C      521   6 C                                       1.3894134
   521   6 C      522   6 C                                       1.3901493
   522   6 C      523   6 C                                       1.3789142
   517   6 C      524   6 C                                       1.3971336
   523   6 C      524   6 C                                       1.4022377
   524   6 C      525   8 O                                       1.3571338
   525   8 O      526   6 C                                       1.4146761
   485   6 C      527   1 H                                       1.0780849
   486   6 C      528   1 H                                       1.0779266
   488   7 N      529   1 H                                       1.0144318
   491   6 C      530   1 H                                       1.0781921
   492   6 C      531   1 H                                       1.0783380
   497   6 C      532   1 H                                       1.0780864
   498   6 C      533   1 H                                       1.0779227
   504   6 C      534   1 H                                       1.0916216
   504   6 C      535   1 H                                       1.0967746
   504   6 C      536   1 H                                       1.0966633
   505   6 C      537   1 H                                       1.0815393
   506   6 C      538   1 H                                       1.0841049
   507   6 C      539   1 H                                       1.0826433
   510   6 C      540   1 H                                       1.0925852
   510   6 C      541   1 H                                       1.0952702
   510   6 C      542   1 H                                       1.0952534
   512   6 C      543   1 H                                       1.0782047
   513   6 C      544   1 H                                       1.0783393
   516   7 N      545   1 H                                       1.0144238
   520   6 C      546   1 H                                       1.0966606
   520   6 C      547   1 H                                       1.0967552
   520   6 C      548   1 H                                       1.0916090
   521   6 C      549   1 H                                       1.0815328
   522   6 C      550   1 H                                       1.0840820
   523   6 C      551   1 H                                       1.0826411
   526   6 C      552   1 H                                       1.0951301
   526   6 C      553   1 H                                       1.0925447
   526   6 C      554   1 H                                       1.0952154
   555   6 C      556   6 C                                       1.4088111
   556   6 C      557   6 C                                       1.4190491
   557   6 C      558   6 C                                       1.3683841
   558   6 C      559   6 C                                       1.4211443
   556   6 C      560   7 N                                       1.3625680
   559   6 C      560   7 N                                       1.3695045
   559   6 C      561   6 C                                       1.3987393
   561   6 C      562   6 C                                       1.3937205
   562   6 C      563   6 C                                       1.4517997
   563   6 C      564   6 C                                       1.3496054
   562   6 C      565   7 N                                       1.3623942
   564   6 C      566   6 C                                       1.4495654
   565   7 N      566   6 C                                       1.3477987
   566   6 C      567   6 C                                       1.4105877
   567   6 C      568   6 C                                       1.4087524
   568   6 C      569   6 C                                       1.4190765
   569   6 C      570   6 C                                       1.3683812
   570   6 C      571   6 C                                       1.4211886
   571   6 C      572   6 C                                       1.3986437
   573   6 C      574   6 C                                       1.4095676
   574   6 C      575   8 O                                       1.3609982
   575   8 O      576   6 C                                       1.4133951
   574   6 C      577   6 C                                       1.3894589
   577   6 C      578   6 C                                       1.3901217
   578   6 C      579   6 C                                       1.3789911
   573   6 C      580   6 C                                       1.3971572
   579   6 C      580   6 C                                       1.4021532
   580   6 C      581   8 O                                       1.3573061
   581   8 O      582   6 C                                       1.4147510
   572   6 C      583   6 C                                       1.3936762
   583   6 C      584   6 C                                       1.4517650
   584   6 C      585   6 C                                       1.3496022
   555   6 C      586   6 C                                       1.4105444
   585   6 C      586   6 C                                       1.4495812
   583   6 C      587   7 N                                       1.3623232
   586   6 C      587   7 N                                       1.3477853
   568   6 C      588   7 N                                       1.3625689
   571   6 C      588   7 N                                       1.3695715
   589   6 C      590   6 C                                       1.4097105
   590   6 C      591   8 O                                       1.3610567
   591   8 O      592   6 C                                       1.4133944
   590   6 C      593   6 C                                       1.3893898
   593   6 C      594   6 C                                       1.3901491
   594   6 C      595   6 C                                       1.3789012
   589   6 C      596   6 C                                       1.3972571
   595   6 C      596   6 C                                       1.4022721
   596   6 C      597   8 O                                       1.3571182
   597   8 O      598   6 C                                       1.4146340
   557   6 C      599   1 H                                       1.0780842
   558   6 C      600   1 H                                       1.0779255
   560   7 N      601   1 H                                       1.0144275
   563   6 C      602   1 H                                       1.0781816
   564   6 C      603   1 H                                       1.0783342
   569   6 C      604   1 H                                       1.0780904
   570   6 C      605   1 H                                       1.0779315
   576   6 C      606   1 H                                       1.0916150
   576   6 C      607   1 H                                       1.0967684
   576   6 C      608   1 H                                       1.0966587
   577   6 C      609   1 H                                       1.0815353
   578   6 C      610   1 H                                       1.0841054
   579   6 C      611   1 H                                       1.0826424
   582   6 C      612   1 H                                       1.0925916
   582   6 C      613   1 H                                       1.0952567
   582   6 C      614   1 H                                       1.0952442
   584   6 C      615   1 H                                       1.0782011
   585   6 C      616   1 H                                       1.0783495
   588   7 N      617   1 H                                       1.0144268
   592   6 C      618   1 H                                       1.0966246
   592   6 C      619   1 H                                       1.0967129
   592   6 C      620   1 H                                       1.0915893
   593   6 C      621   1 H                                       1.0815349
   594   6 C      622   1 H                                       1.0840983
   595   6 C      623   1 H                                       1.0826475
   598   6 C      624   1 H                                       1.0952115
   598   6 C      625   1 H                                       1.0926022
   598   6 C      626   1 H                                       1.0952938
   627   6 C      628   6 C                                       1.4086174
   628   6 C      629   6 C                                       1.4192213
   629   6 C      630   6 C                                       1.3682125
   630   6 C      631   6 C                                       1.4213601
   628   6 C      632   7 N                                       1.3625712
   631   6 C      632   7 N                                       1.3695447
   631   6 C      633   6 C                                       1.3984194
   633   6 C      634   6 C                                       1.3942731
   634   6 C      635   6 C                                       1.4520527
   635   6 C      636   6 C                                       1.3494445
   634   6 C      637   7 N                                       1.3616213
   636   6 C      638   6 C                                       1.4497047
   637   7 N      638   6 C                                       1.3486434
   638   6 C      639   6 C                                       1.4094329
   639   6 C      640   6 C                                       1.4076999
   640   6 C      641   6 C                                       1.4194332
   641   6 C      642   6 C                                       1.3681419
   642   6 C      643   6 C                                       1.4214591
   643   6 C      644   6 C                                       1.3985299
   645   6 C      646   6 C                                       1.4095405
   646   6 C      647   8 O                                       1.3610176
   647   8 O      648   6 C                                       1.4133666
   646   6 C      649   6 C                                       1.3894785
   649   6 C      650   6 C                                       1.3901163
   650   6 C      651   6 C                                       1.3790057
   645   6 C      652   6 C                                       1.3971506
   651   6 C      652   6 C                                       1.4021509
   652   6 C      653   8 O                                       1.3573382
   653   8 O      654   6 C                                       1.4147972
   644   6 C      655   6 C                                       1.3937025
   655   6 C      656   6 C                                       1.4518200
   656   6 C      657   6 C                                       1.3495560
   627   6 C      658   6 C                                       1.4104826
   657   6 C      658   6 C                                       1.4497030
   655   6 C      659   7 N                                       1.3622375
   658   6 C      659   7 N                                       1.3477795
   640   6 C      660   7 N                                       1.3629400
   643   6 C      660   7 N                                       1.3693270
   661   6 C      662   6 C                                       1.4098760
   662   6 C      663   8 O                                       1.3610951
   663   8 O      664   6 C                                       1.4134293
   662   6 C      665   6 C                                       1.3893427
   665   6 C      666   6 C                                       1.3901560
   666   6 C      667   6 C                                       1.3788567
   661   6 C      668   6 C                                       1.3973024
   667   6 C      668   6 C                                       1.4023283
   668   6 C      669   8 O                                       1.3570597
   669   8 O      670   6 C                                       1.4145497
   629   6 C      671   1 H                                       1.0780966
   630   6 C      672   1 H                                       1.0779298
   632   7 N      673   1 H                                       1.0144247
   635   6 C      674   1 H                                       1.0781608
   636   6 C      675   1 H                                       1.0783199
   641   6 C      676   1 H                                       1.0781089
   642   6 C      677   1 H                                       1.0779458
   648   6 C      678   1 H                                       1.0916193
   648   6 C      679   1 H                                       1.0967793
   648   6 C      680   1 H                                       1.0966679
   649   6 C      681   1 H                                       1.0815425
   650   6 C      682   1 H                                       1.0841106
   651   6 C      683   1 H                                       1.0826454
   654   6 C      684   1 H                                       1.0925910
   654   6 C      685   1 H                                       1.0952381
   654   6 C      686   1 H                                       1.0952358
   656   6 C      687   1 H                                       1.0782054
   657   6 C      688   1 H                                       1.0783434
   660   7 N      689   1 H                                       1.0144199
   664   6 C      690   1 H                                       1.0966453
   664   6 C      691   1 H                                       1.0967672
   664   6 C      692   1 H                                       1.0916236
   665   6 C      693   1 H                                       1.0815280
   666   6 C      694   1 H                                       1.0840941
   667   6 C      695   1 H                                       1.0826479
   670   6 C      696   1 H                                       1.0951787
   670   6 C      697   1 H                                       1.0926193
   670   6 C      698   1 H                                       1.0953073

 * 5 distinct bonds (by element types)

   Z      Z             #   av. dist./Å        max./Å        min./Å
   1 H    6 C         236     1.0868549     1.0968277     1.0777102
   6 C    6 C         310     1.3881971     1.4526549     1.2234846
   1 H    7 N          18     1.0144294     1.0145185     1.0142960
   6 C    7 N          72     1.3605520     1.3700470     1.3473141
   6 C    8 O          72     1.3865761     1.4152104     1.3570597


optimized geometry written to: xtbopt.xyz


           -------------------------------------------------
          | TOTAL ENERGY            -1206.123414495463 Eh   |
          | GRADIENT NORM               0.000809589069 Eh/α |
          | HOMO-LUMO GAP               0.619857961049 eV   |
           -------------------------------------------------

------------------------------------------------------------------------
 * finished run on 2022/07/30 at 21:59:18.748     
------------------------------------------------------------------------
 total:
 * wall-time:     0 d,  2 h, 24 min, 24.160 sec
 *  cpu-time:     0 d,  2 h, 23 min, 20.282 sec
 * ratio c/w:     0.993 speedup
 SCF:
 * wall-time:     0 d,  0 h,  3 min, 20.039 sec
 *  cpu-time:     0 d,  0 h,  3 min, 18.852 sec
 * ratio c/w:     0.994 speedup
 ANC optimizer:
 * wall-time:     0 d,  2 h, 21 min,  3.087 sec
 *  cpu-time:     0 d,  2 h, 20 min,  0.488 sec
 * ratio c/w:     0.993 speedup

