      -----------------------------------------------------------      
     |                   =====================                   |     
     |                           x T B                           |     
     |                   =====================                   |     
     |                         S. Grimme                         |     
     |          Mulliken Center for Theoretical Chemistry        |     
     |                    University of Bonn                     |     
      -----------------------------------------------------------      

   * xtb version 6.5.1 (b24c23e) compiled by 'conda@728c89f4b128' on 2022-07-12

   xtb is free software: you can redistribute it and/or modify it under
   the terms of the GNU Lesser General Public License as published by
   the Free Software Foundation, either version 3 of the License, or
   (at your option) any later version.
   
   xtb is distributed in the hope that it will be useful,
   but WITHOUT ANY WARRANTY; without even the implied warranty of
   MERCHANTABILITY or FITNESS FOR A PARTICULAR PURPOSE.  See the
   GNU Lesser General Public License for more details.
   
   Cite this work as:
   * C. Bannwarth, E. Caldeweyher, S. Ehlert, A. Hansen, P. Pracht,
     J. Seibert, S. Spicher, S. Grimme, WIREs Comput. Mol. Sci., 2020, 11,
     e01493. DOI: 10.1002/wcms.1493
   
   for GFN2-xTB:
   * C. Bannwarth, S. Ehlert and S. Grimme., J. Chem. Theory Comput., 2019,
     15, 1652-1671. DOI: 10.1021/acs.jctc.8b01176
   for GFN1-xTB:
   * S. Grimme, C. Bannwarth, P. Shushkov, J. Chem. Theory Comput., 2017,
     13, 1989-2009. DOI: 10.1021/acs.jctc.7b00118
   for GFN0-xTB:
   * P. Pracht, E. Caldeweyher, S. Ehlert, S. Grimme, ChemRxiv, 2019, preprint.
     DOI: 10.26434/chemrxiv.8326202.v1
   for GFN-FF:
   * S. Spicher and S. Grimme, Angew. Chem. Int. Ed., 2020, 59, 15665-15673.
     DOI: 10.1002/anie.202004239
   
   for ALPB and GBSA implicit solvation:
   * S. Ehlert, M. Stahn, S. Spicher, S. Grimme, J. Chem. Theory Comput.,
     2021, 17, 4250-4261. DOI: 10.1021/acs.jctc.1c00471
   
   for DFT-D4:
   * E. Caldeweyher, C. Bannwarth and S. Grimme, J. Chem. Phys., 2017,
     147, 034112. DOI: 10.1063/1.4993215
   * E. Caldeweyher, S. Ehlert, A. Hansen, H. Neugebauer, S. Spicher,
     C. Bannwarth and S. Grimme, J. Chem. Phys., 2019, 150, 154122.
     DOI: 10.1063/1.5090222
   * E. Caldeweyher, J.-M. Mewes, S. Ehlert and S. Grimme, Phys. Chem. Chem. Phys.
     2020, 22, 8499-8512. DOI: 10.1039/D0CP00502A
   
   for sTDA-xTB:
   * S. Grimme and C. Bannwarth, J. Chem. Phys., 2016, 145, 054103.
     DOI: 10.1063/1.4959605
   
   in the mass-spec context:
   * V. Asgeirsson, C. Bauer and S. Grimme, Chem. Sci., 2017, 8, 4879.
     DOI: 10.1039/c7sc00601b
   * J. Koopman and S. Grimme, ACS Omega 2019, 4, 12, 15120-15133.
     DOI: 10.1021/acsomega.9b02011
   
   for metadynamics refer to:
   * S. Grimme, J. Chem. Theory Comput., 2019, 155, 2847-2862
     DOI: 10.1021/acs.jctc.9b00143
   
   for SPH calculations refer to:
   * S. Spicher and S. Grimme, J. Chem. Theory Comput., 2021, 17, 1701-1714
     DOI: 10.1021/acs.jctc.0c01306
   
   with help from (in alphabetical order)
   P. Atkinson, C. Bannwarth, F. Bohle, G. Brandenburg, E. Caldeweyher
   M. Checinski, S. Dohm, S. Ehlert, S. Ehrlich, I. Gerasimov, C. Hölzer
   A. Katbashev, J. Koopman, C. Lavigne, S. Lehtola, F. März, M. Müller,
   F. Musil, H. Neugebauer, J. Pisarek, C. Plett, P. Pracht, F. Pultar,
   J. Seibert, P. Shushkov, S. Spicher, M. Stahn, M. Steiner, T. Strunk,
   J. Stückrath, T. Rose, and J. Unsleber
   
 * started run on 2022/07/31 at 13:14:52.537     

           -------------------------------------------------
          |                Calculation Setup                |
           -------------------------------------------------

          program call               : xtb xtbopt.xyz --gfn 1 --vipea
          hostname                   : cx3-12-12.cx3.hpc.ic.ac.uk
          coordinate file            : xtbopt.xyz
          omp threads                :                     1

   ID    Z sym.   atoms
    1    6 C      1-5, 7-11, 16-20, 22-27, 29-33, 38-43, 66-70, 72-76, 81-85,
                  87-92, 94-98, 103-108, 131-147, 149-153, 158-162, 164-169,
                  171-175, 180-185, 207-211, 213-217, 222-226, 228-233,
                  235-239, 244-249
    2    7 N      6, 21, 28, 44, 71, 86, 93, 109, 148, 163, 170, 186, 212,
                  227, 234, 250
    3   16 S      12, 34, 77, 99, 154, 176, 218, 240
    4    8 O      13-15, 35-37, 78-80, 100-102, 155-157, 177-179, 219-221,
                  241-243
    5    1 H      45-65, 110-130, 187-206, 251-270

           -------------------------------------------------
          |                 I P E A - x T B                 |
           -------------------------------------------------

        Reference                      10.1039/c7sc00601b
      * Hamiltonian:
        H0-scaling (s, p, d)           2.150000    2.300000    2.000000
        zeta-weighting                 0.000000
      * Dispersion:
        s8                             2.400000
        a1                             0.630000
        a2                             5.000000
        s9                             0.000000
      * Repulsion:
        kExp                           1.500000
        rExp                           1.000000
      * Coulomb:
        alpha                          1.000000
        third order                    atomic
        anisotropic                    false
      * Halogen bond correction:
        rad-scale                      1.300000
        damping                        0.440000


          ...................................................
          :                      SETUP                      :
          :.................................................:
          :  # basis functions                1144          :
          :  # atomic orbitals                1136          :
          :  # shells                          728          :
          :  # electrons                       914          :
          :  # halogen bonds                     0          :
          :  max. iterations                   250          :
          :  Hamiltonian                  GFN1-xTB          :
          :  restarted?                      false          :
          :  GBSA solvation                  false          :
          :  PC potential                    false          :
          :  electronic temp.          300.0000000     K    :
          :  accuracy                    1.0000000          :
          :  -> integral cutoff          0.2500000E+02      :
          :  -> integral neglect         0.1000000E-07      :
          :  -> SCF convergence          0.1000000E-05 Eh   :
          :  -> wf. convergence          0.2000000E-04 e    :
          :  Broyden damping             0.4000000          :
          ...................................................

 iter      E             dE          RMSdq      gap      omega  full diag
   1   -591.0360047 -0.591036E+03  0.103E+01    0.79       0.0  T
   2   -590.4831360  0.552869E+00  0.685E+00    1.31       1.0  T
   3   -590.1966665  0.286469E+00  0.486E+00    0.69       1.0  T
   4   -596.4340952 -0.623743E+01  0.129E+00    1.29       1.0  T
   5   -597.4226968 -0.988602E+00  0.430E-01    1.13       1.0  T
   6   -597.5079651 -0.852683E-01  0.203E-01    1.18       1.0  T
   7   -597.5201922 -0.122271E-01  0.926E-02    1.15       1.0  T
   8   -597.5200944  0.978024E-04  0.752E-02    1.15       1.0  T
   9   -597.5221462 -0.205178E-02  0.286E-02    1.15       1.0  T
  10   -597.5225334 -0.387204E-03  0.117E-02    1.15       1.0  T
  11   -597.5225951 -0.617164E-04  0.553E-03    1.15       1.1  T
  12   -597.5226122 -0.170256E-04  0.154E-03    1.15       4.0  T
  13   -597.5226134 -0.125525E-05  0.398E-04    1.15      15.3  T
  14   -597.5226135 -0.714443E-07  0.163E-04    1.15      37.3  T
  15   -597.5226135 -0.774799E-08  0.110E-04    1.15      55.4  T

   *** convergence criteria satisfied after 15 iterations ***

         #    Occupation            Energy/Eh            Energy/eV
      -------------------------------------------------------------
         1        2.0000           -1.1177672             -30.4160
       ...           ...                  ...                  ...
       451        2.0000           -0.3994465             -10.8695
       452        2.0000           -0.3984256             -10.8417
       453        2.0000           -0.3973276             -10.8118
       454        2.0000           -0.3885041             -10.5717
       455        2.0000           -0.3819275             -10.3928
       456        2.0000           -0.3801441             -10.3442
       457        2.0000           -0.3727620             -10.1434 (HOMO)
       458                         -0.3304033              -8.9907 (LUMO)
       459                         -0.3193864              -8.6909
       460                         -0.3172411              -8.6326
       461                         -0.3156170              -8.5884
       462                         -0.3147782              -8.5656
       ...                                ...                  ...
      1136                        566.7986391           15423.3760
      -------------------------------------------------------------
                  HL-Gap            0.0423587 Eh            1.1526 eV
             Fermi-level           -0.3515824 Eh           -9.5670 eV

 SCC (total)                   0 d,  0 h,  0 min, 10.952 sec
 SCC setup                      ...        0 min,  0.010 sec (  0.087%)
 Dispersion                     ...        0 min,  0.014 sec (  0.127%)
 classical contributions        ...        0 min,  0.004 sec (  0.039%)
 integral evaluation            ...        0 min,  0.853 sec (  7.784%)
 iterations                     ...        0 min,  8.133 sec ( 74.253%)
 molecular gradient             ...        0 min,  1.816 sec ( 16.584%)
 printout                       ...        0 min,  0.123 sec (  1.125%)

         :::::::::::::::::::::::::::::::::::::::::::::::::::::
         ::                     SUMMARY                     ::
         :::::::::::::::::::::::::::::::::::::::::::::::::::::
         :: total energy            -587.312541752685 Eh    ::
         :: gradient norm              0.114878521800 Eh/a0 ::
         :: HOMO-LUMO gap              1.152639897665 eV    ::
         ::.................................................::
         :: SCC energy              -597.522613496083 Eh    ::
         :: -> electrostatic           0.585190742996 Eh    ::
         :: repulsion energy          10.448317402281 Eh    ::
         :: dispersion energy         -0.238245658882 Eh    ::
         :: halogen bond corr.         0.000000000000 Eh    ::
         :: add. restraining           0.000000000000 Eh    ::
         :: total charge               0.000000000000 e     ::
         :::::::::::::::::::::::::::::::::::::::::::::::::::::

           ------------------------------------------------- 
          |        vertical delta SCC IP calculation        |
           ------------------------------------------------- 
   1   -597.1122218 -0.597112E+03  0.989E-02    1.15       0.0  T
   2   -597.0883223  0.238996E-01  0.169E-01    0.94       1.0  T
   3   -597.1085328 -0.202106E-01  0.101E-01    1.10       1.0  T
   4   -597.1205312 -0.119983E-01  0.606E-02    1.14       1.0  T
   5   -597.1245009 -0.396973E-02  0.294E-02    1.14       1.0  T
   6   -597.1249017 -0.400786E-03  0.181E-02    1.13       1.0  T
   7   -597.1249729 -0.712207E-04  0.121E-02    1.14       1.0  T
   8   -597.1251096 -0.136700E-03  0.483E-03    1.13       1.3  T
   9   -597.1251270 -0.174314E-04  0.158E-03    1.14       3.8  T
  10   -597.1251274 -0.326562E-06  0.137E-03    1.13       4.4  T
  11   -597.1251286 -0.128293E-05  0.511E-04    1.14      11.9  T
  12   -597.1251288 -0.145229E-06  0.248E-04    1.14      24.5  T
  13   -597.1251288 -0.292603E-07  0.147E-04    1.14      41.5  T
  14   -597.1251288 -0.294808E-07  0.468E-05    1.14     129.9  T
     SCC iter.                  ...        0 min,  7.307 sec
     gradient                   ...        0 min,  1.828 sec
------------------------------------------------------------------------
empirical IP shift (eV):    4.8455
delta SCC IP (eV):    5.9706
------------------------------------------------------------------------
           ------------------------------------------------- 
          |        vertical delta SCC EA calculation        |
           ------------------------------------------------- 
   1   -597.7952715 -0.597795E+03  0.160E-01    0.36       0.0  T
   2   -597.7917315  0.353998E-02  0.172E-01    0.03       1.0  T
   3   -597.8182999 -0.265684E-01  0.924E-02    0.20       1.0  T
   4   -597.8256494 -0.734952E-02  0.553E-02    0.09       1.0  T
   5   -597.8242530  0.139640E-02  0.414E-02    0.08       1.0  T
   6   -597.8156058  0.864717E-02  0.685E-02    0.09       1.0  T
   7   -597.8246620 -0.905616E-02  0.350E-02    0.13       1.0  T
   8   -597.8263846 -0.172263E-02  0.118E-02    0.10       1.0  T
   9   -597.8265976 -0.212942E-03  0.472E-03    0.10       1.3  T
  10   -597.8266132 -0.155891E-04  0.244E-03    0.10       2.5  T
  11   -597.8266161 -0.292254E-05  0.196E-03    0.09       3.1  T
  12   -597.8266226 -0.654542E-05  0.651E-04    0.10       9.4  T
  13   -597.8266230 -0.374812E-06  0.313E-04    0.10      19.5  T
  14   -597.8266231 -0.614046E-07  0.124E-04    0.10      49.3  T
  15   -597.8266231 -0.770808E-08  0.745E-05    0.10      81.7  T
     SCC iter.                  ...        0 min,  7.816 sec
     gradient                   ...        0 min,  1.815 sec
------------------------------------------------------------------------
empirical EA shift (eV):    4.8455
delta SCC EA (eV):    3.4270
------------------------------------------------------------------------
           -------------------------------------------------
          |                Property Printout                |
           -------------------------------------------------

    * Orbital Energies and Occupations

         #    Occupation            Energy/Eh            Energy/eV
      -------------------------------------------------------------
         1        2.0000           -1.0871813             -29.5837
       ...           ...                  ...                  ...
       446        2.0000           -0.3785751             -10.3016
       447        2.0000           -0.3772754             -10.2662
       448        2.0000           -0.3731967             -10.1552
       449        2.0000           -0.3700878             -10.0706
       450        2.0000           -0.3570778              -9.7166
       451        2.0000           -0.3566469              -9.7049
       452        2.0000           -0.3488940              -9.4939
       453        2.0000           -0.3483999              -9.4804
       454        2.0000           -0.3405362              -9.2665
       455        2.0000           -0.3391319              -9.2282
       456        2.0000           -0.3349325              -9.1140
       457        2.0000           -0.3219521              -8.7608
       458        0.8459           -0.2796294              -7.6091 (HOMO)
       459        0.1201           -0.2761194              -7.5136 (LUMO)
       460        0.0285           -0.2746573              -7.4738
       461        0.0040           -0.2727648              -7.4223
       462        0.0015           -0.2718648              -7.3978
       463        0.0000           -0.2661116              -7.2413
       464        0.0000           -0.2651365              -7.2147
       465                         -0.2615397              -7.1169
       466                         -0.2372541              -6.4560
       467                         -0.2368313              -6.4445
       468                         -0.2345920              -6.3836
       469                         -0.2287604              -6.2249
       ...                                ...                  ...
      1136                        566.8475566           15424.7071
      -------------------------------------------------------------
                  HL-Gap            0.0035100 Eh            0.0955 eV
             Fermi-level           -0.2894084 Eh           -7.8752 eV

  Mulliken/CM5 charges         n(s)   n(p)   n(d)
     1C    -0.02437 -0.06521   1.086  2.938  0.000
     2C     0.06119  0.12157   1.105  2.834  0.000
     3C    -0.03641 -0.08175   1.080  2.956  0.000
     4C    -0.03474 -0.07969   1.074  2.961  0.000
     5C     0.06162  0.12565   1.099  2.839  0.000
     6N    -0.15932 -0.51235   1.312  3.848  0.000
     7C     0.00623  0.01200   1.088  2.906  0.000
     8C     0.01530  0.00671   1.093  2.891  0.000
     9C    -0.01785 -0.07092   1.079  2.939  0.000
    10C    -0.01168 -0.06232   1.096  2.916  0.000
    11C     0.03100  0.03996   1.151  2.818  0.000
    12S     0.45075  0.53777   1.583  2.657  1.309
    13O    -0.28244 -0.33311   1.699  4.584  0.000
    14O    -0.29318 -0.48790   1.691  4.602  0.000
    15O    -0.27883 -0.32900   1.701  4.577  0.000
    16C    -0.01044 -0.06108   1.096  2.914  0.000
    17C    -0.01599 -0.06918   1.080  2.936  0.000
    18C     0.05927  0.12761   1.117  2.824  0.000
    19C    -0.03799 -0.08400   1.084  2.954  0.000
    20C    -0.03694 -0.08242   1.092  2.945  0.000
    21N    -0.28663 -0.47327   1.292  3.994  0.000
    22C     0.06421  0.13480   1.130  2.805  0.000
    23C     0.01629  0.02351   1.084  2.899  0.000
    24C     0.06550  0.13030   1.109  2.825  0.000
    25C    -0.03372 -0.07818   1.079  2.954  0.000
    26C    -0.03456 -0.07954   1.073  2.962  0.000
    27C     0.06125  0.12474   1.098  2.841  0.000
    28N    -0.15729 -0.50953   1.314  3.843  0.000
    29C     0.00522  0.01103   1.087  2.907  0.000
    30C     0.01516  0.00658   1.093  2.892  0.000
    31C    -0.01735 -0.07046   1.079  2.938  0.000
    32C    -0.01118 -0.06181   1.096  2.915  0.000
    33C     0.03081  0.03978   1.151  2.818  0.000
    34S     0.45039  0.53738   1.583  2.658  1.309
    35O    -0.28179 -0.33218   1.700  4.582  0.000
    36O    -0.29210 -0.48682   1.691  4.601  0.000
    37O    -0.28175 -0.33212   1.700  4.581  0.000
    38C    -0.01120 -0.06184   1.096  2.915  0.000
    39C    -0.01679 -0.06999   1.080  2.936  0.000
    40C     0.06013  0.12958   1.120  2.820  0.000
    41C    -0.03843 -0.08446   1.085  2.953  0.000
    42C    -0.03977 -0.08619   1.092  2.948  0.000
    43C     0.05858  0.12427   1.125  2.816  0.000
    44N    -0.28933 -0.47642   1.292  3.998  0.000
    45H     0.02730  0.08634   0.973  0.000  0.000
    46H     0.03821  0.09491   0.962  0.000  0.000
    47H     0.03121  0.08990   0.969  0.000  0.000
    48H     0.16382  0.37213   0.836  0.000  0.000
    49H     0.03236  0.09031   0.968  0.000  0.000
    50H     0.04243  0.10331   0.958  0.000  0.000
    51H     0.22663  0.40485   0.773  0.000  0.000
    52H     0.04375  0.10470   0.956  0.000  0.000
    53H     0.03366  0.09163   0.966  0.000  0.000
    54H     0.02259  0.08136   0.977  0.000  0.000
    55H     0.02541  0.08347   0.975  0.000  0.000
    56H     0.03433  0.09247   0.966  0.000  0.000
    57H     0.03204  0.09081   0.968  0.000  0.000
    58H     0.16224  0.37051   0.838  0.000  0.000
    59H     0.03318  0.09115   0.967  0.000  0.000
    60H     0.04315  0.10403   0.957  0.000  0.000
    61H     0.22748  0.40564   0.773  0.000  0.000
    62H     0.04245  0.10339   0.958  0.000  0.000
    63H     0.03224  0.09024   0.968  0.000  0.000
    64H     0.02149  0.08017   0.979  0.000  0.000
    65H     0.02902  0.08548   0.971  0.000  0.000
    66C    -0.02433 -0.06516   1.086  2.938  0.000
    67C     0.06139  0.12178   1.105  2.834  0.000
    68C    -0.03624 -0.08157   1.080  2.956  0.000
    69C    -0.03449 -0.07944   1.074  2.960  0.000
    70C     0.06170  0.12574   1.099  2.839  0.000
    71N    -0.15929 -0.51234   1.312  3.848  0.000
    72C     0.00660  0.01237   1.088  2.905  0.000
    73C     0.01535  0.00676   1.093  2.891  0.000
    74C    -0.01769 -0.07077   1.079  2.939  0.000
    75C    -0.01155 -0.06218   1.095  2.916  0.000
    76C     0.03112  0.04007   1.151  2.817  0.000
    77S     0.45081  0.53781   1.583  2.657  1.309
    78O    -0.28226 -0.33298   1.698  4.584  0.000
    79O    -0.29328 -0.48799   1.691  4.602  0.000
    80O    -0.27864 -0.32878   1.702  4.577  0.000
    81C    -0.01044 -0.06107   1.096  2.914  0.000
    82C    -0.01595 -0.06912   1.081  2.935  0.000
    83C     0.05924  0.12756   1.117  2.824  0.000
    84C    -0.03783 -0.08385   1.084  2.954  0.000
    85C    -0.03684 -0.08231   1.091  2.946  0.000
    86N    -0.28622 -0.47292   1.292  3.994  0.000
    87C     0.06443  0.13504   1.130  2.805  0.000
    88C     0.01663  0.02386   1.085  2.899  0.000
    89C     0.06570  0.13050   1.109  2.825  0.000
    90C    -0.03347 -0.07792   1.079  2.954  0.000
    91C    -0.03422 -0.07920   1.073  2.961  0.000
    92C     0.06133  0.12481   1.098  2.841  0.000
    93N    -0.15712 -0.50938   1.314  3.843  0.000
    94C     0.00557  0.01139   1.088  2.907  0.000
    95C     0.01512  0.00656   1.093  2.892  0.000
    96C    -0.01725 -0.07034   1.079  2.938  0.000
    97C    -0.01112 -0.06175   1.096  2.915  0.000
    98C     0.03087  0.03984   1.151  2.818  0.000
    99S     0.45039  0.53739   1.583  2.658  1.309
   100O    -0.28174 -0.33208   1.700  4.582  0.000
   101O    -0.29197 -0.48671   1.691  4.601  0.000
   102O    -0.28191 -0.33232   1.700  4.582  0.000
   103C    -0.01118 -0.06183   1.096  2.915  0.000
   104C    -0.01677 -0.06999   1.080  2.936  0.000
   105C     0.06020  0.12966   1.120  2.820  0.000
   106C    -0.03830 -0.08434   1.085  2.953  0.000
   107C    -0.03975 -0.08617   1.092  2.948  0.000
   108C     0.05872  0.12441   1.125  2.816  0.000
   109N    -0.28910 -0.47617   1.292  3.997  0.000
   110H     0.02740  0.08644   0.973  0.000  0.000
   111H     0.03835  0.09504   0.962  0.000  0.000
   112H     0.03132  0.09001   0.969  0.000  0.000
   113H     0.16392  0.37224   0.836  0.000  0.000
   114H     0.03265  0.09059   0.967  0.000  0.000
   115H     0.04271  0.10358   0.957  0.000  0.000
   116H     0.22654  0.40479   0.773  0.000  0.000
   117H     0.04361  0.10458   0.956  0.000  0.000
   118H     0.03350  0.09149   0.966  0.000  0.000
   119H     0.02285  0.08160   0.977  0.000  0.000
   120H     0.02588  0.08396   0.974  0.000  0.000
   121H     0.03475  0.09286   0.965  0.000  0.000
   122H     0.03229  0.09104   0.968  0.000  0.000
   123H     0.16231  0.37060   0.838  0.000  0.000
   124H     0.03345  0.09146   0.967  0.000  0.000
   125H     0.04325  0.10413   0.957  0.000  0.000
   126H     0.22757  0.40571   0.772  0.000  0.000
   127H     0.04250  0.10345   0.957  0.000  0.000
   128H     0.03217  0.09018   0.968  0.000  0.000
   129H     0.02160  0.08031   0.978  0.000  0.000
   130H     0.02910  0.08556   0.971  0.000  0.000
   131C    -0.02026 -0.02112   1.061  2.959  0.000
   132C    -0.02253 -0.02418   1.088  2.935  0.000
   133C    -0.02493 -0.02577   1.057  2.968  0.000
   134C    -0.01805 -0.01966   1.094  2.924  0.000
   135C    -0.02419 -0.02502   1.059  2.965  0.000
   136C    -0.02247 -0.02406   1.089  2.933  0.000
   137C    -0.02437 -0.02520   1.059  2.966  0.000
   138C    -0.02228 -0.02387   1.089  2.933  0.000
   139C    -0.02458 -0.02541   1.057  2.967  0.000
   140C    -0.01779 -0.01937   1.094  2.924  0.000
   141C    -0.01992 -0.02078   1.061  2.959  0.000
   142C    -0.02233 -0.02397   1.088  2.934  0.000
   143C     0.01031  0.01756   1.079  2.911  0.000
   144C     0.06498  0.12979   1.110  2.825  0.000
   145C    -0.03693 -0.08139   1.078  2.959  0.000
   146C    -0.03522 -0.08015   1.073  2.962  0.000
   147C     0.05866  0.12219   1.094  2.847  0.000
   148N    -0.15784 -0.51027   1.313  3.845  0.000
   149C     0.00893  0.01460   1.090  2.901  0.000
   150C     0.01625  0.00759   1.094  2.890  0.000
   151C    -0.01564 -0.06884   1.080  2.935  0.000
   152C    -0.01059 -0.06123   1.096  2.915  0.000
   153C     0.03103  0.03998   1.151  2.818  0.000
   154S     0.45034  0.53740   1.583  2.658  1.309
   155O    -0.28251 -0.33311   1.699  4.584  0.000
   156O    -0.29275 -0.48748   1.691  4.602  0.000
   157O    -0.28012 -0.33035   1.701  4.579  0.000
   158C    -0.01137 -0.06201   1.096  2.916  0.000
   159C    -0.01704 -0.07015   1.079  2.938  0.000
   160C     0.05645  0.12454   1.114  2.830  0.000
   161C    -0.03940 -0.08542   1.083  2.956  0.000
   162C    -0.03966 -0.08513   1.089  2.950  0.000
   163N    -0.28618 -0.47248   1.292  3.994  0.000
   164C     0.06351  0.13436   1.130  2.806  0.000
   165C     0.01304  0.02029   1.082  2.905  0.000
   166C     0.06508  0.12999   1.110  2.825  0.000
   167C    -0.03584 -0.08030   1.077  2.959  0.000
   168C    -0.03506 -0.08002   1.073  2.962  0.000
   169C     0.05884  0.12229   1.094  2.847  0.000
   170N    -0.15684 -0.50930   1.314  3.843  0.000
   171C     0.00822  0.01390   1.089  2.902  0.000
   172C     0.01611  0.00745   1.094  2.890  0.000
   173C    -0.01589 -0.06911   1.081  2.935  0.000
   174C    -0.01077 -0.06141   1.096  2.915  0.000
   175C     0.03097  0.03993   1.151  2.818  0.000
   176S     0.45017  0.53725   1.583  2.658  1.309
   177O    -0.28082 -0.33108   1.701  4.580  0.000
   178O    -0.29227 -0.48705   1.691  4.601  0.000
   179O    -0.28262 -0.33315   1.699  4.583  0.000
   180C    -0.01125 -0.06189   1.095  2.916  0.000
   181C    -0.01691 -0.07003   1.079  2.938  0.000
   182C     0.05712  0.12542   1.115  2.828  0.000
   183C    -0.03929 -0.08531   1.084  2.955  0.000
   184C    -0.03996 -0.08545   1.090  2.950  0.000
   185C     0.06313  0.13370   1.130  2.807  0.000
   186N    -0.28770 -0.47392   1.291  3.996  0.000
   187H     0.03085  0.08893   0.969  0.000  0.000
   188H     0.02978  0.08858   0.970  0.000  0.000
   189H     0.16210  0.37008   0.838  0.000  0.000
   190H     0.03313  0.09109   0.967  0.000  0.000
   191H     0.04275  0.10370   0.957  0.000  0.000
   192H     0.22641  0.40458   0.774  0.000  0.000
   193H     0.04219  0.10308   0.958  0.000  0.000
   194H     0.03265  0.09058   0.967  0.000  0.000
   195H     0.02032  0.07912   0.980  0.000  0.000
   196H     0.02274  0.08079   0.977  0.000  0.000
   197H     0.03286  0.09095   0.967  0.000  0.000
   198H     0.02972  0.08855   0.970  0.000  0.000
   199H     0.16173  0.36971   0.838  0.000  0.000
   200H     0.03255  0.09052   0.967  0.000  0.000
   201H     0.04229  0.10323   0.958  0.000  0.000
   202H     0.22640  0.40456   0.774  0.000  0.000
   203H     0.04253  0.10343   0.957  0.000  0.000
   204H     0.03307  0.09105   0.967  0.000  0.000
   205H     0.02082  0.07964   0.979  0.000  0.000
   206H     0.02161  0.07967   0.978  0.000  0.000
   207C     0.01284  0.02009   1.082  2.905  0.000
   208C     0.06512  0.13006   1.110  2.825  0.000
   209C    -0.03593 -0.08039   1.077  2.959  0.000
   210C    -0.03515 -0.08009   1.073  2.962  0.000
   211C     0.05880  0.12224   1.094  2.847  0.000
   212N    -0.15681 -0.50931   1.314  3.843  0.000
   213C     0.00845  0.01413   1.090  2.902  0.000
   214C     0.01602  0.00736   1.094  2.890  0.000
   215C    -0.01592 -0.06909   1.080  2.936  0.000
   216C    -0.01080 -0.06143   1.096  2.915  0.000
   217C     0.03100  0.03994   1.151  2.818  0.000
   218S     0.45011  0.53724   1.582  2.657  1.310
   219O    -0.28315 -0.33399   1.698  4.585  0.000
   220O    -0.29152 -0.48626   1.691  4.600  0.000
   221O    -0.27982 -0.32995   1.702  4.578  0.000
   222C    -0.01119 -0.06183   1.095  2.916  0.000
   223C    -0.01681 -0.06992   1.079  2.938  0.000
   224C     0.05720  0.12551   1.115  2.828  0.000
   225C    -0.03882 -0.08484   1.084  2.955  0.000
   226C    -0.03972 -0.08521   1.090  2.950  0.000
   227N    -0.28746 -0.47374   1.291  3.996  0.000
   228C     0.06324  0.13380   1.130  2.807  0.000
   229C     0.01073  0.01801   1.080  2.910  0.000
   230C     0.06502  0.12981   1.110  2.825  0.000
   231C    -0.03672 -0.08119   1.078  2.959  0.000
   232C    -0.03485 -0.07981   1.073  2.961  0.000
   233C     0.05878  0.12232   1.094  2.847  0.000
   234N    -0.15767 -0.51013   1.313  3.845  0.000
   235C     0.00899  0.01467   1.090  2.901  0.000
   236C     0.01614  0.00749   1.094  2.890  0.000
   237C    -0.01571 -0.06892   1.081  2.935  0.000
   238C    -0.01062 -0.06126   1.096  2.915  0.000
   239C     0.03105  0.04001   1.151  2.818  0.000
   240S     0.45017  0.53729   1.582  2.658  1.309
   241O    -0.28156 -0.33185   1.700  4.581  0.000
   242O    -0.29116 -0.48594   1.691  4.600  0.000
   243O    -0.28284 -0.33330   1.700  4.583  0.000
   244C    -0.01131 -0.06195   1.096  2.916  0.000
   245C    -0.01695 -0.07006   1.079  2.938  0.000
   246C     0.05638  0.12445   1.114  2.830  0.000
   247C    -0.03953 -0.08556   1.083  2.956  0.000
   248C    -0.03978 -0.08525   1.089  2.951  0.000
   249C     0.06347  0.13435   1.130  2.806  0.000
   250N    -0.28613 -0.47243   1.292  3.994  0.000
   251H     0.03282  0.09090   0.967  0.000  0.000
   252H     0.03058  0.08939   0.969  0.000  0.000
   253H     0.16180  0.36979   0.838  0.000  0.000
   254H     0.03242  0.09039   0.968  0.000  0.000
   255H     0.04199  0.10300   0.958  0.000  0.000
   256H     0.22702  0.40528   0.773  0.000  0.000
   257H     0.04289  0.10374   0.957  0.000  0.000
   258H     0.03310  0.09103   0.967  0.000  0.000
   259H     0.02038  0.07916   0.980  0.000  0.000
   260H     0.02212  0.08016   0.978  0.000  0.000
   261H     0.03108  0.08916   0.969  0.000  0.000
   262H     0.02913  0.08796   0.971  0.000  0.000
   263H     0.16203  0.37003   0.838  0.000  0.000
   264H     0.03269  0.09066   0.967  0.000  0.000
   265H     0.04281  0.10370   0.957  0.000  0.000
   266H     0.22732  0.40540   0.773  0.000  0.000
   267H     0.04215  0.10309   0.958  0.000  0.000
   268H     0.03300  0.09098   0.967  0.000  0.000
   269H     0.02115  0.07995   0.979  0.000  0.000
   270H     0.02266  0.08069   0.977  0.000  0.000

Wiberg/Mayer (AO) data.
largest (>0.10) Wiberg bond orders for each atom

 ---------------------------------------------------------------------------
     #   Z sym  total        # sym  WBO       # sym  WBO       # sym  WBO
 ---------------------------------------------------------------------------
     1   6 C    3.807 --    43 C    1.388     2 C    1.367    45 H    0.996
     2   6 C    3.920 --     1 C    1.367     3 C    1.243     6 N    1.230
     3   6 C    3.832 --     4 C    1.592     2 C    1.243    46 H    0.993
     4   6 C    3.817 --     3 C    1.592     5 C    1.253    47 H    0.999
     5   6 C    3.894 --     7 C    1.337     4 C    1.253     6 N    1.230
     6   7 N    3.247 --     5 C    1.230     2 C    1.230    48 H    0.961
     7   6 C    3.834 --    18 C    1.368     5 C    1.337     8 C    1.052
     8   6 C    3.895 --    17 C    1.421     9 C    1.421     7 C    1.052
     9   6 C    3.863 --    10 C    1.454     8 C    1.421    49 H    0.987
    10   6 C    3.914 --     9 C    1.454    11 C    1.418    50 H    0.985
    11   6 C    3.937 --    16 C    1.419    10 C    1.418    12 S    0.891
    12  16 S    5.802 --    15 O    1.898    13 O    1.889    14 O    1.078
                            11 C    0.891
    13   8 O    2.222 --    12 S    1.889    15 O    0.135
    14   8 O    2.281 --    12 S    1.078    51 H    0.938    15 O    0.101
    15   8 O    2.237 --    12 S    1.898    13 O    0.135    14 O    0.101
    16   6 C    3.914 --    17 C    1.454    11 C    1.419    52 H    0.985
    17   6 C    3.866 --    16 C    1.454     8 C    1.421    53 H    0.987
    18   6 C    3.926 --     7 C    1.368    21 N    1.358    19 C    1.158
    19   6 C    3.839 --    20 C    1.697    18 C    1.158    54 H    0.998
    20   6 C    3.852 --    19 C    1.697    22 C    1.163    55 H    0.999
    21   7 N    2.554 --    22 C    1.406    18 C    1.358
    22   6 C    3.946 --    21 N    1.406    23 C    1.300    20 C    1.163
    23   6 C    3.836 --    22 C    1.300    24 C    1.290   132 C    1.201
    24   6 C    3.901 --    23 C    1.290    25 C    1.268    28 N    1.246
    25   6 C    3.826 --    26 C    1.579    24 C    1.268    56 H    0.998
    26   6 C    3.810 --    25 C    1.579    27 C    1.260    57 H    0.998
    27   6 C    3.889 --    29 C    1.336    26 C    1.260    28 N    1.224
    28   7 N    3.258 --    24 C    1.246    27 C    1.224    58 H    0.960
    29   6 C    3.820 --    40 C    1.359    27 C    1.336    30 C    1.055
    30   6 C    3.895 --    39 C    1.420    31 C    1.419    29 C    1.055
    31   6 C    3.862 --    32 C    1.455    30 C    1.419    59 H    0.987
    32   6 C    3.913 --    31 C    1.455    33 C    1.417    60 H    0.985
    33   6 C    3.936 --    38 C    1.418    32 C    1.417    34 S    0.891
    34  16 S    5.800 --    37 O    1.893    35 O    1.892    36 O    1.078
                            33 C    0.891
    35   8 O    2.227 --    34 S    1.892    37 O    0.134
    36   8 O    2.281 --    34 S    1.078    61 H    0.938
    37   8 O    2.229 --    34 S    1.893    35 O    0.134
    38   6 C    3.914 --    39 C    1.455    33 C    1.418    62 H    0.985
    39   6 C    3.865 --    38 C    1.455    30 C    1.420    63 H    0.987
    40   6 C    3.944 --    44 N    1.380    29 C    1.359    41 C    1.151
    41   6 C    3.842 --    42 C    1.709    40 C    1.151    64 H    0.999
    42   6 C    3.862 --    41 C    1.709    43 C    1.145    65 H    0.993
    43   6 C    3.966 --     1 C    1.388    44 N    1.373    42 C    1.145
    44   7 N    2.539 --    40 C    1.380    43 C    1.373
    45   1 H    1.033 --     1 C    0.996
    46   1 H    1.016 --     3 C    0.993
    47   1 H    1.030 --     4 C    0.999
    48   1 H    1.082 --     6 N    0.961
    49   1 H    1.044 --     9 C    0.987
    50   1 H    1.042 --    10 C    0.985
    51   1 H    1.017 --    14 O    0.938
    52   1 H    1.043 --    16 C    0.985
    53   1 H    1.047 --    17 C    0.987
    54   1 H    1.035 --    19 C    0.998
    55   1 H    1.030 --    20 C    0.999
    56   1 H    1.026 --    25 C    0.998
    57   1 H    1.029 --    26 C    0.998
    58   1 H    1.086 --    28 N    0.960
    59   1 H    1.044 --    31 C    0.987
    60   1 H    1.042 --    32 C    0.985
    61   1 H    1.016 --    36 O    0.938
    62   1 H    1.043 --    38 C    0.985
    63   1 H    1.047 --    39 C    0.987
    64   1 H    1.036 --    41 C    0.999
    65   1 H    1.019 --    42 C    0.993
    66   6 C    3.807 --   108 C    1.387    67 C    1.368   110 H    0.996
    67   6 C    3.921 --    66 C    1.368    68 C    1.242    71 N    1.230
    68   6 C    3.833 --    69 C    1.593    67 C    1.242   111 H    0.993
    69   6 C    3.818 --    68 C    1.593    70 C    1.252   112 H    0.999
    70   6 C    3.895 --    72 C    1.338    69 C    1.252    71 N    1.229
    71   7 N    3.246 --    67 C    1.230    70 C    1.229   113 H    0.961
    72   6 C    3.836 --    83 C    1.367    70 C    1.338    73 C    1.053
    73   6 C    3.896 --    74 C    1.421    82 C    1.421    72 C    1.053
    74   6 C    3.863 --    75 C    1.454    73 C    1.421   114 H    0.987
    75   6 C    3.913 --    74 C    1.454    76 C    1.418   115 H    0.985
    76   6 C    3.938 --    81 C    1.419    75 C    1.418    77 S    0.891
    77  16 S    5.802 --    80 O    1.899    78 O    1.889    79 O    1.078
                            76 C    0.891
    78   8 O    2.221 --    77 S    1.889    80 O    0.135
    79   8 O    2.281 --    77 S    1.078   116 H    0.939    80 O    0.101
    80   8 O    2.238 --    77 S    1.899    78 O    0.135    79 O    0.101
    81   6 C    3.914 --    82 C    1.454    76 C    1.419   117 H    0.985
    82   6 C    3.867 --    81 C    1.454    73 C    1.421   118 H    0.987
    83   6 C    3.925 --    72 C    1.367    86 N    1.358    84 C    1.158
    84   6 C    3.839 --    85 C    1.696    83 C    1.158   119 H    0.998
    85   6 C    3.851 --    84 C    1.696    87 C    1.164   120 H    0.999
    86   7 N    2.555 --    87 C    1.407    83 C    1.358
    87   6 C    3.946 --    86 N    1.407    88 C    1.298    85 C    1.164
    88   6 C    3.837 --    87 C    1.298    89 C    1.290   142 C    1.203
    89   6 C    3.902 --    88 C    1.290    90 C    1.268    93 N    1.247
    90   6 C    3.827 --    91 C    1.579    89 C    1.268   121 H    0.998
    91   6 C    3.811 --    90 C    1.579    92 C    1.259   122 H    0.998
    92   6 C    3.889 --    94 C    1.336    91 C    1.259    93 N    1.225
    93   7 N    3.258 --    89 C    1.247    92 C    1.225   123 H    0.960
    94   6 C    3.822 --   105 C    1.359    92 C    1.336    95 C    1.055
    95   6 C    3.895 --   104 C    1.420    96 C    1.419    94 C    1.055
    96   6 C    3.862 --    97 C    1.455    95 C    1.419   124 H    0.987
    97   6 C    3.914 --    96 C    1.455    98 C    1.417   125 H    0.985
    98   6 C    3.936 --   103 C    1.418    97 C    1.417    99 S    0.891
    99  16 S    5.800 --   102 O    1.893   100 O    1.892   101 O    1.079
                            98 C    0.891
   100   8 O    2.228 --    99 S    1.892   102 O    0.134
   101   8 O    2.281 --    99 S    1.079   126 H    0.938
   102   8 O    2.228 --    99 S    1.893   100 O    0.134
   103   6 C    3.914 --   104 C    1.455    98 C    1.418   127 H    0.985
   104   6 C    3.865 --   103 C    1.455    95 C    1.420   128 H    0.987
   105   6 C    3.944 --   109 N    1.380    94 C    1.359   106 C    1.151
   106   6 C    3.842 --   107 C    1.709   105 C    1.151   129 H    0.999
   107   6 C    3.862 --   106 C    1.709   108 C    1.146   130 H    0.993
   108   6 C    3.966 --    66 C    1.387   109 N    1.373   107 C    1.146
   109   7 N    2.541 --   105 C    1.380   108 C    1.373
   110   1 H    1.033 --    66 C    0.996
   111   1 H    1.016 --    68 C    0.993
   112   1 H    1.030 --    69 C    0.999
   113   1 H    1.082 --    71 N    0.961
   114   1 H    1.044 --    74 C    0.987
   115   1 H    1.042 --    75 C    0.985
   116   1 H    1.017 --    79 O    0.939
   117   1 H    1.043 --    81 C    0.985
   118   1 H    1.047 --    82 C    0.987
   119   1 H    1.035 --    84 C    0.998
   120   1 H    1.031 --    85 C    0.999
   121   1 H    1.027 --    90 C    0.998
   122   1 H    1.029 --    91 C    0.998
   123   1 H    1.086 --    93 N    0.960
   124   1 H    1.044 --    96 C    0.987
   125   1 H    1.042 --    97 C    0.985
   126   1 H    1.016 --   101 O    0.938
   127   1 H    1.043 --   103 C    0.985
   128   1 H    1.047 --   104 C    0.987
   129   1 H    1.036 --   106 C    0.999
   130   1 H    1.019 --   107 C    0.993
   131   6 C    3.796 --   132 C    2.515   133 C    1.310
   132   6 C    3.790 --   131 C    2.515    23 C    1.201   134 C    0.177
   133   6 C    3.791 --   134 C    2.512   131 C    1.310
   134   6 C    3.794 --   133 C    2.512   143 C    1.204   132 C    0.177
   135   6 C    3.794 --   136 C    2.482   137 C    1.340
   136   6 C    3.798 --   135 C    2.482   165 C    1.234   138 C    0.177
   137   6 C    3.794 --   138 C    2.482   135 C    1.340
   138   6 C    3.798 --   137 C    2.482   207 C    1.234   136 C    0.177
   139   6 C    3.792 --   140 C    2.510   141 C    1.312
   140   6 C    3.794 --   139 C    2.510   229 C    1.207   142 C    0.177
   141   6 C    3.797 --   142 C    2.513   139 C    1.312
   142   6 C    3.791 --   141 C    2.513    88 C    1.203   140 C    0.177
   143   6 C    3.814 --   185 C    1.292   144 C    1.286   134 C    1.204
   144   6 C    3.906 --   143 C    1.286   145 C    1.270   148 N    1.250
   145   6 C    3.821 --   146 C    1.576   144 C    1.270   187 H    0.999
   146   6 C    3.816 --   145 C    1.576   147 C    1.264   188 H    0.999
   147   6 C    3.882 --   149 C    1.335   146 C    1.264   148 N    1.219
   148   7 N    3.245 --   144 C    1.250   147 C    1.219   189 H    0.962
   149   6 C    3.833 --   160 C    1.373   147 C    1.335   150 C    1.051
   150   6 C    3.896 --   151 C    1.422   159 C    1.422   149 C    1.051
   151   6 C    3.867 --   152 C    1.454   150 C    1.422   190 H    0.987
   152   6 C    3.914 --   151 C    1.454   153 C    1.419   191 H    0.985
   153   6 C    3.937 --   152 C    1.419   158 C    1.418   154 S    0.891
   154  16 S    5.801 --   157 O    1.896   155 O    1.890   156 O    1.079
                           153 C    0.891
   155   8 O    2.223 --   154 S    1.890   157 O    0.134
   156   8 O    2.282 --   154 S    1.079   192 H    0.938   157 O    0.100
   157   8 O    2.234 --   154 S    1.896   155 O    0.134   156 O    0.100
   158   6 C    3.914 --   159 C    1.454   153 C    1.418   193 H    0.985
   159   6 C    3.863 --   158 C    1.454   150 C    1.422   194 H    0.987
   160   6 C    3.920 --   149 C    1.373   163 N    1.349   161 C    1.162
   161   6 C    3.836 --   162 C    1.689   160 C    1.162   195 H    0.999
   162   6 C    3.844 --   161 C    1.689   164 C    1.169   196 H    1.000
   163   7 N    2.544 --   164 C    1.419   160 C    1.349
   164   6 C    3.941 --   163 N    1.419   165 C    1.279   162 C    1.169
   165   6 C    3.814 --   164 C    1.279   166 C    1.275   136 C    1.234
   166   6 C    3.901 --   167 C    1.276   165 C    1.275   170 N    1.252
   167   6 C    3.821 --   168 C    1.570   166 C    1.276   197 H    0.999
   168   6 C    3.811 --   167 C    1.570   169 C    1.267   198 H    0.998
   169   6 C    3.881 --   171 C    1.330   168 C    1.267   170 N    1.222
   170   7 N    3.249 --   166 C    1.252   169 C    1.222   199 H    0.962
   171   6 C    3.827 --   182 C    1.376   169 C    1.330   172 C    1.052
   172   6 C    3.896 --   173 C    1.422   181 C    1.421   171 C    1.052
   173   6 C    3.866 --   174 C    1.454   172 C    1.422   200 H    0.988
   174   6 C    3.914 --   173 C    1.454   175 C    1.418   201 H    0.985
   175   6 C    3.937 --   174 C    1.418   180 C    1.418   176 S    0.891
   176  16 S    5.801 --   177 O    1.895   179 O    1.890   178 O    1.079
                           175 C    0.891
   177   8 O    2.232 --   176 S    1.895   179 O    0.134   178 O    0.100
   178   8 O    2.283 --   176 S    1.079   202 H    0.938   177 O    0.100
   179   8 O    2.224 --   176 S    1.890   177 O    0.134
   180   6 C    3.913 --   181 C    1.454   175 C    1.418   203 H    0.985
   181   6 C    3.863 --   180 C    1.454   172 C    1.421   204 H    0.987
   182   6 C    3.925 --   171 C    1.376   186 N    1.351   183 C    1.159
   183   6 C    3.840 --   184 C    1.694   182 C    1.159   205 H    0.999
   184   6 C    3.847 --   183 C    1.694   185 C    1.165   206 H    1.000
   185   6 C    3.947 --   186 N    1.411   143 C    1.292   184 C    1.165
   186   7 N    2.539 --   185 C    1.411   182 C    1.351
   187   1 H    1.027 --   145 C    0.999
   188   1 H    1.030 --   146 C    0.999
   189   1 H    1.084 --   148 N    0.962
   190   1 H    1.047 --   151 C    0.987
   191   1 H    1.043 --   152 C    0.985
   192   1 H    1.017 --   156 O    0.938
   193   1 H    1.042 --   158 C    0.985
   194   1 H    1.045 --   159 C    0.987
   195   1 H    1.035 --   161 C    0.999
   196   1 H    1.031 --   162 C    1.000
   197   1 H    1.027 --   167 C    0.999
   198   1 H    1.032 --   168 C    0.998
   199   1 H    1.084 --   170 N    0.962
   200   1 H    1.048 --   173 C    0.988
   201   1 H    1.044 --   174 C    0.985
   202   1 H    1.017 --   178 O    0.938
   203   1 H    1.042 --   180 C    0.985
   204   1 H    1.044 --   181 C    0.987
   205   1 H    1.034 --   183 C    0.999
   206   1 H    1.030 --   184 C    1.000
   207   6 C    3.814 --   249 C    1.279   208 C    1.274   138 C    1.234
   208   6 C    3.901 --   209 C    1.276   207 C    1.274   212 N    1.253
   209   6 C    3.821 --   210 C    1.570   208 C    1.276   251 H    0.999
   210   6 C    3.813 --   209 C    1.570   211 C    1.267   252 H    0.999
   211   6 C    3.882 --   213 C    1.331   210 C    1.267   212 N    1.221
   212   7 N    3.249 --   208 C    1.253   211 C    1.221   253 H    0.962
   213   6 C    3.828 --   224 C    1.375   211 C    1.331   214 C    1.052
   214   6 C    3.896 --   215 C    1.422   223 C    1.421   213 C    1.052
   215   6 C    3.866 --   216 C    1.454   214 C    1.422   254 H    0.987
   216   6 C    3.914 --   215 C    1.454   217 C    1.419   255 H    0.985
   217   6 C    3.937 --   216 C    1.419   222 C    1.418   218 S    0.890
   218  16 S    5.804 --   221 O    1.899   219 O    1.888   220 O    1.082
                           217 C    0.890
   219   8 O    2.219 --   218 S    1.888   221 O    0.134
   220   8 O    2.284 --   218 S    1.082   256 H    0.938   221 O    0.101
   221   8 O    2.239 --   218 S    1.899   219 O    0.134   220 O    0.101
   222   6 C    3.913 --   223 C    1.454   217 C    1.418   257 H    0.985
   223   6 C    3.863 --   222 C    1.454   214 C    1.421   258 H    0.987
   224   6 C    3.925 --   213 C    1.375   227 N    1.351   225 C    1.159
   225   6 C    3.840 --   226 C    1.694   224 C    1.159   259 H    0.999
   226   6 C    3.847 --   225 C    1.694   228 C    1.166   260 H    0.999
   227   7 N    2.539 --   228 C    1.412   224 C    1.351
   228   6 C    3.946 --   227 N    1.412   229 C    1.291   226 C    1.166
   229   6 C    3.815 --   228 C    1.291   230 C    1.285   140 C    1.207
   230   6 C    3.906 --   229 C    1.285   231 C    1.271   234 N    1.250
   231   6 C    3.821 --   232 C    1.575   230 C    1.271   261 H    0.998
   232   6 C    3.816 --   231 C    1.575   233 C    1.264   262 H    0.999
   233   6 C    3.882 --   235 C    1.334   232 C    1.264   234 N    1.220
   234   7 N    3.245 --   230 C    1.250   233 C    1.220   263 H    0.962
   235   6 C    3.833 --   246 C    1.373   233 C    1.334   236 C    1.052
   236   6 C    3.896 --   237 C    1.422   245 C    1.421   235 C    1.052
   237   6 C    3.867 --   238 C    1.454   236 C    1.422   264 H    0.988
   238   6 C    3.914 --   237 C    1.454   239 C    1.418   265 H    0.985
   239   6 C    3.937 --   244 C    1.418   238 C    1.418   240 S    0.891
   240  16 S    5.802 --   241 O    1.893   243 O    1.891   242 O    1.081
                           239 C    0.891
   241   8 O    2.230 --   240 S    1.893   243 O    0.134
   242   8 O    2.284 --   240 S    1.081   266 H    0.938
   243   8 O    2.225 --   240 S    1.891   241 O    0.134
   244   6 C    3.913 --   245 C    1.454   239 C    1.418   267 H    0.985
   245   6 C    3.863 --   244 C    1.454   236 C    1.421   268 H    0.987
   246   6 C    3.921 --   235 C    1.373   250 N    1.348   247 C    1.162
   247   6 C    3.836 --   248 C    1.689   246 C    1.162   269 H    0.999
   248   6 C    3.844 --   247 C    1.689   249 C    1.169   270 H    1.000
   249   6 C    3.941 --   250 N    1.420   207 C    1.279   248 C    1.169
   250   7 N    2.545 --   249 C    1.420   246 C    1.348
   251   1 H    1.027 --   209 C    0.999
   252   1 H    1.030 --   210 C    0.999
   253   1 H    1.084 --   212 N    0.962
   254   1 H    1.048 --   215 C    0.987
   255   1 H    1.045 --   216 C    0.985
   256   1 H    1.017 --   220 O    0.938
   257   1 H    1.041 --   222 C    0.985
   258   1 H    1.044 --   223 C    0.987
   259   1 H    1.037 --   225 C    0.999
   260   1 H    1.031 --   226 C    0.999
   261   1 H    1.028 --   231 C    0.998
   262   1 H    1.032 --   232 C    0.999
   263   1 H    1.084 --   234 N    0.962
   264   1 H    1.048 --   237 C    0.988
   265   1 H    1.043 --   238 C    0.985
   266   1 H    1.016 --   242 O    0.938
   267   1 H    1.043 --   244 C    0.985
   268   1 H    1.044 --   245 C    0.987
   269   1 H    1.034 --   247 C    0.999
   270   1 H    1.031 --   248 C    1.000
 ---------------------------------------------------------------------------

Topologies differ in total number of bonds
Writing topology from bond orders to xtbtopo.mol

 dipole moment from electron density (au)
     X       Y       Z   
-133.6006  -0.0999   1.2291  total (Debye):  339.593


           -------------------------------------------------
          | TOTAL ENERGY             -587.616551335739 Eh   |
          | GRADIENT NORM               0.115725890823 Eh/α |
          | HOMO-LUMO GAP               0.095513042823 eV   |
           -------------------------------------------------
########################################################################
[WARNING] Runtime exception occurred
-1- restart_readRestart: Dimension missmatch in restart file.
########################################################################

------------------------------------------------------------------------
 * finished run on 2022/07/31 at 13:15:25.010     
------------------------------------------------------------------------
 total:
 * wall-time:     0 d,  0 h,  0 min, 32.472 sec
 *  cpu-time:     0 d,  0 h,  0 min, 32.237 sec
 * ratio c/w:     0.993 speedup
 SCF:
 * wall-time:     0 d,  0 h,  0 min, 31.680 sec
 *  cpu-time:     0 d,  0 h,  0 min, 31.480 sec
 * ratio c/w:     0.994 speedup

