      -----------------------------------------------------------      
     |                   =====================                   |     
     |                           x T B                           |     
     |                   =====================                   |     
     |                         S. Grimme                         |     
     |          Mulliken Center for Theoretical Chemistry        |     
     |                    University of Bonn                     |     
      -----------------------------------------------------------      

   * xtb version 6.5.1 (b24c23e) compiled by 'conda@728c89f4b128' on 2022-07-12

   xtb is free software: you can redistribute it and/or modify it under
   the terms of the GNU Lesser General Public License as published by
   the Free Software Foundation, either version 3 of the License, or
   (at your option) any later version.
   
   xtb is distributed in the hope that it will be useful,
   but WITHOUT ANY WARRANTY; without even the implied warranty of
   MERCHANTABILITY or FITNESS FOR A PARTICULAR PURPOSE.  See the
   GNU Lesser General Public License for more details.
   
   Cite this work as:
   * C. Bannwarth, E. Caldeweyher, S. Ehlert, A. Hansen, P. Pracht,
     J. Seibert, S. Spicher, S. Grimme, WIREs Comput. Mol. Sci., 2020, 11,
     e01493. DOI: 10.1002/wcms.1493
   
   for GFN2-xTB:
   * C. Bannwarth, S. Ehlert and S. Grimme., J. Chem. Theory Comput., 2019,
     15, 1652-1671. DOI: 10.1021/acs.jctc.8b01176
   for GFN1-xTB:
   * S. Grimme, C. Bannwarth, P. Shushkov, J. Chem. Theory Comput., 2017,
     13, 1989-2009. DOI: 10.1021/acs.jctc.7b00118
   for GFN0-xTB:
   * P. Pracht, E. Caldeweyher, S. Ehlert, S. Grimme, ChemRxiv, 2019, preprint.
     DOI: 10.26434/chemrxiv.8326202.v1
   for GFN-FF:
   * S. Spicher and S. Grimme, Angew. Chem. Int. Ed., 2020, 59, 15665-15673.
     DOI: 10.1002/anie.202004239
   
   for ALPB and GBSA implicit solvation:
   * S. Ehlert, M. Stahn, S. Spicher, S. Grimme, J. Chem. Theory Comput.,
     2021, 17, 4250-4261. DOI: 10.1021/acs.jctc.1c00471
   
   for DFT-D4:
   * E. Caldeweyher, C. Bannwarth and S. Grimme, J. Chem. Phys., 2017,
     147, 034112. DOI: 10.1063/1.4993215
   * E. Caldeweyher, S. Ehlert, A. Hansen, H. Neugebauer, S. Spicher,
     C. Bannwarth and S. Grimme, J. Chem. Phys., 2019, 150, 154122.
     DOI: 10.1063/1.5090222
   * E. Caldeweyher, J.-M. Mewes, S. Ehlert and S. Grimme, Phys. Chem. Chem. Phys.
     2020, 22, 8499-8512. DOI: 10.1039/D0CP00502A
   
   for sTDA-xTB:
   * S. Grimme and C. Bannwarth, J. Chem. Phys., 2016, 145, 054103.
     DOI: 10.1063/1.4959605
   
   in the mass-spec context:
   * V. Asgeirsson, C. Bauer and S. Grimme, Chem. Sci., 2017, 8, 4879.
     DOI: 10.1039/c7sc00601b
   * J. Koopman and S. Grimme, ACS Omega 2019, 4, 12, 15120-15133.
     DOI: 10.1021/acsomega.9b02011
   
   for metadynamics refer to:
   * S. Grimme, J. Chem. Theory Comput., 2019, 155, 2847-2862
     DOI: 10.1021/acs.jctc.9b00143
   
   for SPH calculations refer to:
   * S. Spicher and S. Grimme, J. Chem. Theory Comput., 2021, 17, 1701-1714
     DOI: 10.1021/acs.jctc.0c01306
   
   with help from (in alphabetical order)
   P. Atkinson, C. Bannwarth, F. Bohle, G. Brandenburg, E. Caldeweyher
   M. Checinski, S. Dohm, S. Ehlert, S. Ehrlich, I. Gerasimov, C. Hölzer
   A. Katbashev, J. Koopman, C. Lavigne, S. Lehtola, F. März, M. Müller,
   F. Musil, H. Neugebauer, J. Pisarek, C. Plett, P. Pracht, F. Pultar,
   J. Seibert, P. Shushkov, S. Spicher, M. Stahn, M. Steiner, T. Strunk,
   J. Stückrath, T. Rose, and J. Unsleber
   
 * started run on 2022/07/30 at 01:46:43.549     

           -------------------------------------------------
          |                Calculation Setup                |
           -------------------------------------------------

          program call               : xtb xtbopt.xyz --gfn 1 --vipea
          hostname                   : cx3-15-15.cx3.hpc.ic.ac.uk
          coordinate file            : xtbopt.xyz
          omp threads                :                     1

   ID    Z sym.   atoms
    1   27 Co     1, 63, 149, 210
    2    6 C      2-6, 8-12, 15-20, 22-27, 29-35, 38-42, 64-68, 70-74, 77-82,
                  84-89, 91-97, 100-104, 125-148, 150-154, 156-160, 163-168,
                  170-175, 177-183, 186-190, 211-215, 217-221, 224-229,
                  231-236, 238-244, 247-251
    3    7 N      7, 21, 28, 43, 69, 83, 90, 105, 155, 169, 176, 191, 216,
                  230, 237, 252
    4    8 O      13, 14, 36, 37, 75, 76, 98, 99, 161, 162, 184, 185, 222,
                  223, 245, 246
    5    1 H      44-62, 106-124, 192-209, 253-270

           -------------------------------------------------
          |                 I P E A - x T B                 |
           -------------------------------------------------

        Reference                      10.1039/c7sc00601b
      * Hamiltonian:
        H0-scaling (s, p, d)           2.150000    2.300000    2.000000
        zeta-weighting                 0.000000
      * Dispersion:
        s8                             2.400000
        a1                             0.630000
        a2                             5.000000
        s9                             0.000000
      * Repulsion:
        kExp                           1.500000
        rExp                           1.000000
      * Coulomb:
        alpha                          1.000000
        third order                    atomic
        anisotropic                    false
      * Halogen bond correction:
        rad-scale                      1.300000
        damping                        0.440000


          ...................................................
          :                      SETUP                      :
          :.................................................:
          :  # basis functions                1148          :
          :  # atomic orbitals                1144          :
          :  # shells                          736          :
          :  # electrons                       926          :
          :  # halogen bonds                     0          :
          :  max. iterations                   250          :
          :  Hamiltonian                  GFN1-xTB          :
          :  restarted?                      false          :
          :  GBSA solvation                  false          :
          :  PC potential                    false          :
          :  electronic temp.          300.0000000     K    :
          :  accuracy                    1.0000000          :
          :  -> integral cutoff          0.2500000E+02      :
          :  -> integral neglect         0.1000000E-07      :
          :  -> SCF convergence          0.1000000E-05 Eh   :
          :  -> wf. convergence          0.2000000E-04 e    :
          :  Broyden damping             0.4000000          :
          ...................................................

 iter      E             dE          RMSdq      gap      omega  full diag
   1   -583.7554258 -0.583755E+03  0.106E+01    0.14       0.0  T
   2   -558.6424941  0.251129E+02  0.972E+00    0.03       1.0  T
   3   -540.9198105  0.177227E+02  0.799E+00    0.11       1.0  T
   4   -278.9878990  0.261932E+03  0.879E+00    0.01       1.0  T
   5   1066.5258937  0.134551E+04  0.155E+01    0.02       1.0  T
   6   -500.5685186 -0.156709E+04  0.663E+00    0.05       1.0  T
   7   -573.0299174 -0.724614E+02  0.411E+00    0.02       1.0  T
   8   -579.2390469 -0.620913E+01  0.307E+00    0.01       1.0  T
   9   -585.2751978 -0.603615E+01  0.260E+00    0.30       1.0  T
  10   -584.8365352  0.438663E+00  0.219E+00    0.04       1.0  T
  11   -585.3357536 -0.499218E+00  0.216E+00    0.17       1.0  T
  12   -583.8158030  0.151995E+01  0.239E+00    0.01       1.0  T
  13   -583.5554902  0.260313E+00  0.243E+00    0.03       1.0  T
  14   -582.8057536  0.749737E+00  0.271E+00    0.07       1.0  T
  15   -585.9098313 -0.310408E+01  0.167E+00    0.02       1.0  T
  16   -585.9357563 -0.259250E-01  0.157E+00    0.12       1.0  T
  17   -586.1005929 -0.164837E+00  0.137E+00    0.04       1.0  T
  18   -586.2684057 -0.167813E+00  0.130E+00    0.09       1.0  T
  19   -586.8106477 -0.542242E+00  0.128E+00    0.12       1.0  T
  20   -586.7211475  0.895002E-01  0.138E+00    0.13       1.0  T
  21   -586.6680519  0.530957E-01  0.139E+00    0.10       1.0  T
  22   -586.8223792 -0.154327E+00  0.127E+00    0.11       1.0  T
  23   -587.1097911 -0.287412E+00  0.928E-01    0.02       1.0  T
  24   -586.8133032  0.296488E+00  0.128E+00    0.12       1.0  T
  25   -587.2730029 -0.459700E+00  0.605E-01    0.03       1.0  T
  26   -587.1084853  0.164518E+00  0.907E-01    0.04       1.0  T
  27   -587.3647617 -0.256276E+00  0.503E-01    0.02       1.0  T
  28   -587.4027793 -0.380177E-01  0.328E-01    0.01       1.0  T
  29   -587.2243733  0.178406E+00  0.752E-01    0.03       1.0  T
  30   -587.2825275 -0.581542E-01  0.632E-01    0.02       1.0  T
  31   -587.3549469 -0.724194E-01  0.497E-01    0.03       1.0  T
  32   -587.3256410  0.293059E-01  0.542E-01    0.03       1.0  T
  33   -587.4179948 -0.923537E-01  0.289E-01    0.00       1.0  T
  34   -587.4225690 -0.457426E-02  0.271E-01    0.00       1.0  T
  35   -587.4288839 -0.631486E-02  0.234E-01    0.01       1.0  T
  36   -587.4450743 -0.161904E-01  0.113E-01    0.00       1.0  T
  37   -587.4464545 -0.138024E-02  0.964E-02    0.00       1.0  T
  38   -587.4485688 -0.211428E-02  0.621E-02    0.00       1.0  T
  39   -587.4459118  0.265701E-02  0.972E-02    0.00       1.0  T
  40   -587.4488705 -0.295873E-02  0.513E-02    0.00       1.0  T
  41   -587.4486859  0.184630E-03  0.544E-02    0.00       1.0  T
  42   -587.4491923 -0.506384E-03  0.420E-02    0.00       1.0  T
  43   -587.4492188 -0.264604E-04  0.407E-02    0.00       1.0  T
  44   -587.4496301 -0.411330E-03  0.264E-02    0.00       1.0  T
  45   -587.4495763  0.538266E-04  0.284E-02    0.00       1.0  T
  46   -587.4497949 -0.218647E-03  0.172E-02    0.00       1.0  T
  47   -587.4499038 -0.108847E-03  0.890E-03    0.00       1.0  T
  48   -587.4499087 -0.498349E-05  0.827E-03    0.00       1.0  T
  49   -587.4499080  0.794111E-06  0.868E-03    0.00       1.0  T
  50   -587.4499316 -0.236629E-04  0.472E-03    0.00       1.3  T
  51   -587.4499333 -0.168855E-05  0.420E-03    0.00       1.5  T
  52   -587.4499365 -0.321077E-05  0.317E-03    0.00       1.9  T
  53   -587.4499390 -0.251425E-05  0.196E-03    0.00       3.1  T
  54   -587.4499396 -0.525512E-06  0.168E-03    0.00       3.6  T
  55   -587.4499406 -0.106441E-05  0.760E-04    0.00       8.0  T
  56   -587.4499408 -0.185125E-06  0.417E-04    0.00      14.6  T
  57   -587.4499408 -0.346241E-07  0.315E-04    0.00      19.3  T
  58   -587.4499409 -0.291570E-07  0.208E-04    0.00      29.2  T
  59   -587.4499409  0.524403E-08  0.248E-04    0.00      24.6  T
  60   -587.4499409 -0.136286E-07  0.161E-04    0.00      37.8  T
  61   -587.4499409  0.980435E-09  0.161E-04    0.00      37.8  T

   *** convergence criteria satisfied after 61 iterations ***

         #    Occupation            Energy/Eh            Energy/eV
      -------------------------------------------------------------
         1        2.0000           -1.0627929             -28.9201
       ...           ...                  ...                  ...
       457        1.9999           -0.3655083              -9.9460
       458        1.9999           -0.3653916              -9.9428
       459        1.9998           -0.3650405              -9.9333
       460        1.9997           -0.3648195              -9.9272
       461        1.9887           -0.3612678              -9.8306
       462        1.0515           -0.3564566              -9.6997
       463        1.0220           -0.3564005              -9.6982 (HOMO)
       464        0.9983           -0.3563554              -9.6969 (LUMO)
       465        0.9407           -0.3562458              -9.6939
       466                         -0.3235007              -8.8029
       467                         -0.3174252              -8.6376
       468                         -0.3158932              -8.5959
       ...                                ...                  ...
      1144                        500.9024983           13630.2508
      -------------------------------------------------------------
                  HL-Gap            0.0000451 Eh            0.0012 eV
             Fermi-level           -0.3563587 Eh           -9.6970 eV

 SCC (total)                   0 d,  0 h,  0 min, 37.973 sec
 SCC setup                      ...        0 min,  0.010 sec (  0.027%)
 Dispersion                     ...        0 min,  0.014 sec (  0.036%)
 classical contributions        ...        0 min,  0.004 sec (  0.010%)
 integral evaluation            ...        0 min,  0.897 sec (  2.362%)
 iterations                     ...        0 min, 35.149 sec ( 92.565%)
 molecular gradient             ...        0 min,  1.785 sec (  4.701%)
 printout                       ...        0 min,  0.114 sec (  0.299%)

         :::::::::::::::::::::::::::::::::::::::::::::::::::::
         ::                     SUMMARY                     ::
         :::::::::::::::::::::::::::::::::::::::::::::::::::::
         :: total energy            -576.439159193898 Eh    ::
         :: gradient norm              0.121385614907 Eh/a0 ::
         :: HOMO-LUMO gap              0.001228122735 eV    ::
         ::.................................................::
         :: SCC energy              -587.449940872983 Eh    ::
         :: -> electrostatic           0.516705651476 Eh    ::
         :: repulsion energy          11.252086453596 Eh    ::
         :: dispersion energy         -0.241304774511 Eh    ::
         :: halogen bond corr.         0.000000000000 Eh    ::
         :: add. restraining           0.000000000000 Eh    ::
         :: total charge              -0.000000000001 e     ::
         :::::::::::::::::::::::::::::::::::::::::::::::::::::

           ------------------------------------------------- 
          |        vertical delta SCC IP calculation        |
           ------------------------------------------------- 
   1   -587.0500865 -0.587050E+03  0.261E-01    0.00       0.0  T
   2   -586.8943045  0.155782E+00  0.651E-01    0.03       1.0  T
   3   -584.4598232  0.243448E+01  0.228E+00    0.00       1.0  T
   4   -584.4283056  0.315176E-01  0.223E+00    0.03       1.0  T
   5   -586.8500270 -0.242172E+01  0.662E-01    0.00       1.0  T
   6   -586.7884937  0.615334E-01  0.752E-01    0.02       1.0  T
   7   -586.9068380 -0.118344E+00  0.603E-01    0.02       1.0  T
   8   -587.0452882 -0.138450E+00  0.217E-01    0.00       1.0  T
   9   -587.0471865 -0.189827E-02  0.201E-01    0.01       1.0  T
  10   -587.0314943  0.156922E-01  0.284E-01    0.01       1.0  T
  11   -587.0663841 -0.348898E-01  0.618E-02    0.00       1.0  T
  12   -587.0681397 -0.175562E-02  0.794E-03    0.00       1.0  T
  13   -587.0674801  0.659636E-03  0.388E-02    0.00       1.0  T
  14   -587.0681122 -0.632132E-03  0.120E-02    0.00       1.0  T
  15   -587.0681461 -0.338600E-04  0.773E-03    0.00       1.0  T
  16   -587.0680822  0.639011E-04  0.142E-02    0.00       1.0  T
  17   -587.0681575 -0.752847E-04  0.604E-03    0.00       1.0  T
  18   -587.0681527  0.479582E-05  0.658E-03    0.00       1.0  T
  19   -587.0681686 -0.159115E-04  0.316E-03    0.00       1.9  T
  20   -587.0681675  0.103310E-05  0.330E-03    0.00       1.8  T
  21   -587.0681707 -0.316550E-05  0.193E-03    0.00       3.2  T
  22   -587.0681721 -0.135672E-05  0.818E-04    0.00       7.4  T
  23   -587.0681721 -0.206181E-07  0.751E-04    0.00       8.1  T
  24   -587.0681723 -0.175263E-06  0.451E-04    0.00      13.5  T
  25   -587.0681723 -0.675639E-07  0.234E-04    0.00      26.0  T
  26   -587.0681723 -0.154771E-07  0.143E-04    0.00      42.6  T
  27   -587.0681723 -0.555679E-08  0.916E-05    0.00      66.4  T
     SCC iter.                  ...        0 min, 15.585 sec
     gradient                   ...        0 min,  1.782 sec
------------------------------------------------------------------------
empirical IP shift (eV):    4.8455
delta SCC IP (eV):    5.5429
------------------------------------------------------------------------
           ------------------------------------------------- 
          |        vertical delta SCC EA calculation        |
           ------------------------------------------------- 
   1   -587.7184939 -0.587718E+03  0.499E-01    0.01       0.0  T
   2   -587.4104792  0.308015E+00  0.920E-01    0.07       1.0  T
   3   -586.6719437  0.738535E+00  0.161E+00    0.10       1.0  T
   4   -587.1303148 -0.458371E+00  0.124E+00    0.18       1.0  T
   5   -587.1807905 -0.504758E-01  0.115E+00    0.19       1.0  T
   6   -587.4960919 -0.315301E+00  0.818E-01    0.09       1.0  T
   7   -587.5171555 -0.210635E-01  0.774E-01    0.00       1.0  T
   8   -587.5864952 -0.693397E-01  0.651E-01    0.03       1.0  T
   9   -587.4803140  0.106181E+00  0.818E-01    0.05       1.0  T
  10   -587.3989657  0.813484E-01  0.909E-01    0.13       1.0  T
  11   -587.7650861 -0.366120E+00  0.182E-01    0.02       1.0  T
  12   -587.6894019  0.756841E-01  0.436E-01    0.01       1.0  T
  13   -587.7362148 -0.468129E-01  0.303E-01    0.01       1.0  T
  14   -587.7562499 -0.200350E-01  0.227E-01    0.02       1.0  T
  15   -587.7625605 -0.631067E-02  0.201E-01    0.02       1.0  T
  16   -587.7686370 -0.607651E-02  0.164E-01    0.00       1.0  T
  17   -587.7746192 -0.598216E-02  0.115E-01    0.00       1.0  T
  18   -587.7767757 -0.215652E-02  0.925E-02    0.00       1.0  T
  19   -587.7794551 -0.267939E-02  0.518E-02    0.01       1.0  T
  20   -587.7804989 -0.104382E-02  0.193E-02    0.00       1.0  T
  21   -587.7806398 -0.140857E-03  0.712E-03    0.00       1.0  T
  22   -587.7806497 -0.988766E-05  0.564E-03    0.00       1.1  T
  23   -587.7806616 -0.118791E-04  0.243E-03    0.00       2.5  T
  24   -587.7806643 -0.271379E-05  0.501E-04    0.00      12.2  T
  25   -587.7806643 -0.492917E-07  0.375E-04    0.00      16.2  T
  26   -587.7806644 -0.503201E-07  0.200E-04    0.00      30.4  T
  27   -587.7806644  0.901537E-08  0.244E-04    0.00      24.9  T
  28   -587.7806644 -0.256712E-07  0.707E-05    0.00      86.0  T
  29   -587.7806644 -0.108048E-08  0.511E-05    0.00     119.2  T
     SCC iter.                  ...        0 min, 16.728 sec
     gradient                   ...        0 min,  1.778 sec
------------------------------------------------------------------------
empirical EA shift (eV):    4.8455
delta SCC EA (eV):    4.1539
------------------------------------------------------------------------
           -------------------------------------------------
          |                Property Printout                |
           -------------------------------------------------

    * Orbital Energies and Occupations

         #    Occupation            Energy/Eh            Energy/eV
      -------------------------------------------------------------
         1        2.0000           -1.0339463             -28.1351
       ...           ...                  ...                  ...
       452        2.0000           -0.3170586              -8.6276
       453        2.0000           -0.3168894              -8.6230
       454        2.0000           -0.3168371              -8.6216
       455        2.0000           -0.3168167              -8.6210
       456        2.0000           -0.3161160              -8.6020
       457        2.0000           -0.3159870              -8.5984
       458        1.9999           -0.3155131              -8.5855
       459        1.9998           -0.3146930              -8.5632
       460        1.9998           -0.3146646              -8.5625
       461        1.9966           -0.3119090              -8.4875
       462        1.2777           -0.3062923              -8.3346
       463        1.2648           -0.3062640              -8.3339
       464        1.2485           -0.3062285              -8.3329 (HOMO)
       465        1.2131           -0.3061524              -8.3308 (LUMO)
       466                         -0.2819118              -7.6712
       467                         -0.2755871              -7.4991
       468                         -0.2745587              -7.4711
       469                         -0.2679672              -7.2918
       470                         -0.2662161              -7.2441
       471                         -0.2660767              -7.2403
       472                         -0.2638727              -7.1803
       473                         -0.2598015              -7.0696
       474                         -0.2456444              -6.6843
       475                         -0.2413392              -6.5672
       ...                                ...                  ...
      1144                        500.9424194           13631.3371
      -------------------------------------------------------------
                  HL-Gap            0.0000761 Eh            0.0021 eV
             Fermi-level           -0.3057100 Eh           -8.3188 eV

  Mulliken/CM5 charges         n(s)   n(p)   n(d)
     1Co    0.31768  0.73264   0.325  0.969  7.389
     2C    -0.01916 -0.06052   1.088  2.931  0.000
     3C     0.05619  0.11648   1.112  2.832  0.000
     4C    -0.03832 -0.08475   1.086  2.952  0.000
     5C    -0.03724 -0.08311   1.077  2.960  0.000
     6C     0.05889  0.12341   1.105  2.836  0.000
     7N    -0.21366 -0.47765   1.316  3.897  0.000
     8C     0.00878  0.01415   1.083  2.908  0.000
     9C     0.01212  0.00356   1.087  2.901  0.000
    10C    -0.00884 -0.05770   1.085  2.924  0.000
    11C     0.00672  0.00325   1.089  2.904  0.000
    12C     0.23384  0.28882   1.195  2.571  0.000
    13O    -0.28098 -0.47755   1.681  4.600  0.000
    14O    -0.32899 -0.37882   1.629  4.700  0.000
    15C    -0.01709 -0.06875   1.087  2.930  0.000
    16C    -0.02302 -0.07866   1.086  2.937  0.000
    17C    -0.01355 -0.06711   1.084  2.929  0.000
    18C     0.05692  0.11994   1.104  2.839  0.000
    19C    -0.03704 -0.08322   1.078  2.959  0.000
    20C    -0.03771 -0.08323   1.082  2.956  0.000
    21N    -0.21352 -0.47532   1.318  3.896  0.000
    22C     0.06173  0.12733   1.116  2.822  0.000
    23C     0.01758  0.02449   1.080  2.902  0.000
    24C     0.06138  0.12646   1.117  2.822  0.000
    25C    -0.03753 -0.08304   1.084  2.954  0.000
    26C    -0.03695 -0.08281   1.077  2.960  0.000
    27C     0.05720  0.12079   1.103  2.840  0.000
    28N    -0.21273 -0.47592   1.317  3.896  0.000
    29C     0.00836  0.01370   1.084  2.908  0.000
    30C     0.01114  0.00252   1.087  2.902  0.000
    31C    -0.01430 -0.06739   1.088  2.926  0.000
    32C    -0.02212 -0.07768   1.088  2.934  0.000
    33C    -0.01471 -0.06633   1.090  2.925  0.000
    34C     0.00682  0.00330   1.088  2.905  0.000
    35C     0.23385  0.28881   1.195  2.571  0.000
    36O    -0.27861 -0.47541   1.680  4.598  0.000
    37O    -0.33135 -0.38108   1.628  4.703  0.000
    38C    -0.01028 -0.05966   1.079  2.932  0.000
    39C     0.05776  0.12166   1.106  2.836  0.000
    40C    -0.03761 -0.08380   1.077  2.960  0.000
    41C    -0.03856 -0.08499   1.084  2.955  0.000
    42C     0.05634  0.11715   1.110  2.833  0.000
    43N    -0.21485 -0.47712   1.317  3.898  0.000
    44H     0.02664  0.08551   0.973  0.000  0.000
    45H     0.02922  0.08584   0.971  0.000  0.000
    46H     0.02267  0.08140   0.977  0.000  0.000
    47H     0.03525  0.09760   0.965  0.000  0.000
    48H     0.24201  0.41780   0.758  0.000  0.000
    49H     0.04535  0.10658   0.955  0.000  0.000
    50H     0.03651  0.09245   0.963  0.000  0.000
    51H     0.02653  0.08447   0.973  0.000  0.000
    52H     0.02160  0.08045   0.978  0.000  0.000
    53H     0.02548  0.08355   0.975  0.000  0.000
    54H     0.02550  0.08354   0.975  0.000  0.000
    55H     0.02318  0.08189   0.977  0.000  0.000
    56H     0.02652  0.08425   0.973  0.000  0.000
    57H     0.03699  0.09291   0.963  0.000  0.000
    58H     0.04481  0.10528   0.955  0.000  0.000
    59H     0.24128  0.41709   0.759  0.000  0.000
    60H     0.03614  0.09960   0.964  0.000  0.000
    61H     0.02332  0.08230   0.977  0.000  0.000
    62H     0.03021  0.08684   0.970  0.000  0.000
    63Co    0.32031  0.73928   0.325  0.969  7.386
    64C    -0.01935 -0.06071   1.088  2.932  0.000
    65C     0.05652  0.11729   1.111  2.833  0.000
    66C    -0.03781 -0.08424   1.084  2.954  0.000
    67C    -0.03660 -0.08283   1.078  2.959  0.000
    68C     0.05820  0.12208   1.106  2.836  0.000
    69N    -0.21480 -0.47798   1.317  3.898  0.000
    70C     0.00866  0.01409   1.084  2.908  0.000
    71C     0.01189  0.00338   1.087  2.901  0.000
    72C    -0.00800 -0.05737   1.081  2.927  0.000
    73C     0.00689  0.00337   1.088  2.905  0.000
    74C     0.23397  0.28893   1.195  2.571  0.000
    75O    -0.28068 -0.47726   1.681  4.600  0.000
    76O    -0.32904 -0.37895   1.629  4.700  0.000
    77C    -0.01704 -0.06869   1.087  2.930  0.000
    78C    -0.02328 -0.07887   1.087  2.936  0.000
    79C    -0.01450 -0.06759   1.089  2.926  0.000
    80C     0.05738  0.12117   1.102  2.840  0.000
    81C    -0.03717 -0.08303   1.077  2.960  0.000
    82C    -0.03743 -0.08292   1.084  2.954  0.000
    83N    -0.21254 -0.47700   1.317  3.896  0.000
    84C     0.06101  0.12591   1.117  2.822  0.000
    85C     0.01802  0.02492   1.081  2.901  0.000
    86C     0.06170  0.12735   1.116  2.822  0.000
    87C    -0.03746 -0.08296   1.082  2.955  0.000
    88C    -0.03703 -0.08321   1.078  2.959  0.000
    89C     0.05649  0.11949   1.104  2.840  0.000
    90N    -0.21341 -0.47624   1.318  3.896  0.000
    91C     0.00823  0.01363   1.084  2.908  0.000
    92C     0.01117  0.00260   1.086  2.902  0.000
    93C    -0.01332 -0.06686   1.084  2.929  0.000
    94C    -0.02195 -0.07755   1.087  2.935  0.000
    95C    -0.01483 -0.06646   1.090  2.925  0.000
    96C     0.00653  0.00307   1.089  2.904  0.000
    97C     0.23378  0.28878   1.195  2.571  0.000
    98O    -0.27853 -0.47524   1.680  4.598  0.000
    99O    -0.33169 -0.38141   1.628  4.704  0.000
   100C    -0.01117 -0.06005   1.082  2.929  0.000
   101C     0.05811  0.12273   1.104  2.837  0.000
   102C    -0.03799 -0.08384   1.077  2.961  0.000
   103C    -0.03871 -0.08513   1.086  2.953  0.000
   104C     0.05581  0.11597   1.112  2.832  0.000
   105N    -0.21393 -0.47895   1.316  3.898  0.000
   106H     0.02679  0.08564   0.973  0.000  0.000
   107H     0.03037  0.08700   0.970  0.000  0.000
   108H     0.02298  0.08195   0.977  0.000  0.000
   109H     0.03558  0.09828   0.964  0.000  0.000
   110H     0.24207  0.41786   0.758  0.000  0.000
   111H     0.04548  0.10671   0.955  0.000  0.000
   112H     0.03598  0.09191   0.964  0.000  0.000
   113H     0.02601  0.08380   0.974  0.000  0.000
   114H     0.02241  0.08108   0.978  0.000  0.000
   115H     0.02523  0.08322   0.975  0.000  0.000
   116H     0.02595  0.08397   0.974  0.000  0.000
   117H     0.02198  0.08078   0.978  0.000  0.000
   118H     0.02701  0.08498   0.973  0.000  0.000
   119H     0.03754  0.09347   0.962  0.000  0.000
   120H     0.04459  0.10505   0.955  0.000  0.000
   121H     0.24142  0.41721   0.759  0.000  0.000
   122H     0.03599  0.09920   0.964  0.000  0.000
   123H     0.02294  0.08162   0.977  0.000  0.000
   124H     0.02931  0.08592   0.971  0.000  0.000
   125C    -0.01284 -0.01443   1.097  2.916  0.000
   126C    -0.01964 -0.02032   1.064  2.956  0.000
   127C    -0.01060 -0.01069   1.078  2.933  0.000
   128C    -0.01375 -0.01377   1.073  2.940  0.000
   129C    -0.01257 -0.01264   1.076  2.937  0.000
   130C    -0.02021 -0.02045   1.095  2.925  0.000
   131C     0.01682  0.01645   1.144  2.839  0.000
   132C    -0.05280 -0.05059   1.330  2.723  0.000
   133C    -0.01463 -0.01608   1.096  2.919  0.000
   134C    -0.01989 -0.02053   1.064  2.956  0.000
   135C    -0.01233 -0.01241   1.078  2.934  0.000
   136C    -0.01430 -0.01430   1.075  2.939  0.000
   137C    -0.01347 -0.01348   1.076  2.938  0.000
   138C    -0.01223 -0.01230   1.077  2.935  0.000
   139C    -0.01807 -0.01870   1.064  2.954  0.000
   140C    -0.01318 -0.01465   1.094  2.919  0.000
   141C    -0.01287 -0.01435   1.095  2.918  0.000
   142C    -0.01906 -0.01970   1.064  2.955  0.000
   143C    -0.01199 -0.01206   1.078  2.934  0.000
   144C    -0.01424 -0.01424   1.075  2.939  0.000
   145C    -0.01396 -0.01396   1.076  2.938  0.000
   146C    -0.01274 -0.01281   1.078  2.935  0.000
   147C    -0.01921 -0.01986   1.064  2.955  0.000
   148C    -0.01415 -0.01569   1.095  2.919  0.000
   149Co    0.33722  0.79011   0.327  0.963  7.373
   150C     0.03524  0.04152   1.160  2.805  0.000
   151C     0.05500  0.12202   1.110  2.835  0.000
   152C    -0.04106 -0.08640   1.079  2.962  0.000
   153C    -0.03814 -0.08383   1.075  2.963  0.000
   154C     0.05246  0.11494   1.098  2.850  0.000
   155N    -0.20792 -0.47191   1.311  3.897  0.000
   156C     0.01681  0.02235   1.092  2.891  0.000
   157C     0.01255  0.00412   1.087  2.900  0.000
   158C    -0.00861 -0.05741   1.086  2.923  0.000
   159C     0.00731  0.00385   1.089  2.903  0.000
   160C     0.23430  0.28938   1.195  2.571  0.000
   161O    -0.28022 -0.47681   1.681  4.600  0.000
   162O    -0.32848 -0.37831   1.629  4.700  0.000
   163C    -0.01643 -0.06808   1.087  2.930  0.000
   164C    -0.02245 -0.07810   1.086  2.936  0.000
   165C    -0.01306 -0.06663   1.084  2.929  0.000
   166C     0.05350  0.11705   1.098  2.849  0.000
   167C    -0.03742 -0.08339   1.077  2.961  0.000
   168C    -0.03930 -0.08469   1.082  2.957  0.000
   169N    -0.21043 -0.48117   1.317  3.893  0.000
   170C     0.06088  0.12602   1.118  2.821  0.000
   171C     0.01628  0.02318   1.082  2.901  0.000
   172C     0.06100  0.12696   1.117  2.822  0.000
   173C    -0.03412 -0.07950   1.087  2.948  0.000
   174C    -0.03669 -0.08251   1.077  2.959  0.000
   175C     0.06137  0.12459   1.109  2.829  0.000
   176N    -0.21225 -0.48669   1.311  3.902  0.000
   177C    -0.00152  0.00417   1.071  2.931  0.000
   178C     0.00972  0.00139   1.084  2.906  0.000
   179C    -0.01530 -0.06883   1.083  2.932  0.000
   180C    -0.02282 -0.07843   1.087  2.936  0.000
   181C    -0.01537 -0.06698   1.090  2.925  0.000
   182C     0.00663  0.00318   1.090  2.903  0.000
   183C     0.23416  0.28928   1.194  2.571  0.000
   184O    -0.27737 -0.47410   1.680  4.597  0.000
   185O    -0.33127 -0.38101   1.628  4.703  0.000
   186C    -0.01170 -0.06050   1.083  2.929  0.000
   187C     0.07164  0.13968   1.118  2.810  0.000
   188C    -0.03286 -0.07910   1.073  2.959  0.000
   189C    -0.02303 -0.06923   1.113  2.910  0.000
   190C     0.07853  0.13441   1.184  2.737  0.000
   191N    -0.21837 -0.49729   1.319  3.900  0.000
   192H     0.02600  0.08306   0.974  0.000  0.000
   193H     0.02380  0.08237   0.976  0.000  0.000
   194H     0.03564  0.09789   0.964  0.000  0.000
   195H     0.24257  0.41828   0.757  0.000  0.000
   196H     0.04602  0.10724   0.954  0.000  0.000
   197H     0.03714  0.09308   0.963  0.000  0.000
   198H     0.02703  0.08489   0.973  0.000  0.000
   199H     0.02177  0.08054   0.978  0.000  0.000
   200H     0.02479  0.08274   0.975  0.000  0.000
   201H     0.02723  0.08513   0.973  0.000  0.000
   202H     0.02518  0.08360   0.975  0.000  0.000
   203H     0.02517  0.08328   0.975  0.000  0.000
   204H     0.03665  0.09259   0.963  0.000  0.000
   205H     0.04437  0.10485   0.956  0.000  0.000
   206H     0.24259  0.41826   0.757  0.000  0.000
   207H     0.03732  0.10056   0.963  0.000  0.000
   208H     0.02754  0.08623   0.972  0.000  0.000
   209H     0.02737  0.08536   0.973  0.000  0.000
   210Co    0.32392  0.73622   0.323  0.978  7.375
   211C     0.01907  0.02620   1.080  2.901  0.000
   212C     0.06211  0.12769   1.116  2.822  0.000
   213C    -0.03630 -0.08186   1.082  2.954  0.000
   214C    -0.03518 -0.08140   1.078  2.957  0.000
   215C     0.05699  0.11999   1.104  2.839  0.000
   216N    -0.21204 -0.47400   1.317  3.895  0.000
   217C     0.01040  0.01590   1.084  2.906  0.000
   218C     0.01217  0.00369   1.086  2.901  0.000
   219C    -0.00744 -0.05659   1.083  2.925  0.000
   220C     0.00727  0.00377   1.088  2.904  0.000
   221C     0.23426  0.28924   1.195  2.571  0.000
   222O    -0.28068 -0.47725   1.681  4.600  0.000
   223O    -0.32779 -0.37768   1.628  4.699  0.000
   224C    -0.01670 -0.06836   1.087  2.930  0.000
   225C    -0.02315 -0.07877   1.087  2.936  0.000
   226C    -0.01396 -0.06723   1.087  2.927  0.000
   227C     0.05688  0.12047   1.103  2.841  0.000
   228C    -0.03687 -0.08294   1.077  2.960  0.000
   229C    -0.03781 -0.08337   1.083  2.955  0.000
   230N    -0.21245 -0.47489   1.317  3.896  0.000
   231C     0.06089  0.12590   1.116  2.823  0.000
   232C     0.01822  0.02535   1.080  2.902  0.000
   233C     0.06132  0.12673   1.116  2.823  0.000
   234C    -0.03749 -0.08305   1.082  2.956  0.000
   235C    -0.03638 -0.08257   1.078  2.959  0.000
   236C     0.05626  0.11941   1.104  2.840  0.000
   237N    -0.21254 -0.47451   1.317  3.895  0.000
   238C     0.00991  0.01537   1.084  2.906  0.000
   239C     0.01134  0.00280   1.086  2.903  0.000
   240C    -0.01386 -0.06711   1.087  2.927  0.000
   241C    -0.02212 -0.07769   1.087  2.935  0.000
   242C    -0.01440 -0.06602   1.090  2.924  0.000
   243C     0.00718  0.00368   1.089  2.904  0.000
   244C     0.23421  0.28922   1.194  2.571  0.000
   245O    -0.27764 -0.47441   1.680  4.598  0.000
   246O    -0.33120 -0.38092   1.628  4.703  0.000
   247C    -0.00967 -0.05884   1.080  2.930  0.000
   248C     0.05666  0.12007   1.103  2.841  0.000
   249C    -0.03673 -0.08280   1.077  2.959  0.000
   250C    -0.03723 -0.08278   1.083  2.954  0.000
   251C     0.06144  0.12667   1.116  2.822  0.000
   252N    -0.21231 -0.47465   1.317  3.895  0.000
   253H     0.02653  0.08442   0.973  0.000  0.000
   254H     0.02322  0.08205   0.977  0.000  0.000
   255H     0.03628  0.09905   0.964  0.000  0.000
   256H     0.24250  0.41828   0.758  0.000  0.000
   257H     0.04555  0.10676   0.954  0.000  0.000
   258H     0.03606  0.09200   0.964  0.000  0.000
   259H     0.02592  0.08389   0.974  0.000  0.000
   260H     0.02161  0.08034   0.978  0.000  0.000
   261H     0.02483  0.08279   0.975  0.000  0.000
   262H     0.02605  0.08401   0.974  0.000  0.000
   263H     0.02319  0.08201   0.977  0.000  0.000
   264H     0.02607  0.08402   0.974  0.000  0.000
   265H     0.03689  0.09282   0.963  0.000  0.000
   266H     0.04482  0.10529   0.955  0.000  0.000
   267H     0.24204  0.41780   0.758  0.000  0.000
   268H     0.03710  0.10068   0.963  0.000  0.000
   269H     0.02237  0.08108   0.978  0.000  0.000
   270H     0.02584  0.08385   0.974  0.000  0.000

Wiberg/Mayer (AO) data.
largest (>0.10) Wiberg bond orders for each atom

 ---------------------------------------------------------------------------
     #   Z sym  total        # sym  WBO       # sym  WBO       # sym  WBO
 ---------------------------------------------------------------------------
     1  27 Co   3.653 --     7 N    0.711    43 N    0.708    28 N    0.706
                            21 N    0.703
     2   6 C    3.840 --     3 C    1.396    42 C    1.385    44 H    0.998
     3   6 C    3.955 --     2 C    1.396     7 N    1.242     4 C    1.196
     4   6 C    3.859 --     5 C    1.644     3 C    1.196    45 H    0.994
     5   6 C    3.834 --     4 C    1.644     6 C    1.204    46 H    0.998
     6   6 C    3.931 --     8 C    1.354     7 N    1.258     5 C    1.204
     7   7 N    2.995 --     6 C    1.258     3 C    1.242     1 Co   0.711
     8   6 C    3.842 --    18 C    1.376     6 C    1.354     9 C    1.048
     9   6 C    3.896 --    10 C    1.440    17 C    1.421     8 C    1.048
    10   6 C    3.857 --     9 C    1.440    11 C    1.409    47 H    0.995
    11   6 C    3.911 --    10 C    1.409    15 C    1.401    12 C    1.035
    12   6 C    4.098 --    14 O    1.821    13 O    1.210    11 C    1.035
    13   8 O    2.366 --    12 C    1.210    48 H    0.944    14 O    0.184
    14   8 O    2.033 --    12 C    1.821    13 O    0.184
    15   6 C    3.887 --    16 C    1.454    11 C    1.401    49 H    0.987
    16   6 C    3.908 --    15 C    1.454    17 C    1.444    50 H    0.982
    17   6 C    3.867 --    16 C    1.444     9 C    1.421    51 H    0.990
    18   6 C    3.924 --     8 C    1.376    21 N    1.234    19 C    1.207
    19   6 C    3.832 --    20 C    1.632    18 C    1.207    52 H    0.998
    20   6 C    3.847 --    19 C    1.632    22 C    1.219    53 H    0.998
    21   7 N    3.002 --    22 C    1.277    18 C    1.234     1 Co   0.703
    22   6 C    3.933 --    23 C    1.297    21 N    1.277    20 C    1.219
    23   6 C    3.870 --    24 C    1.306    22 C    1.297   125 C    1.212
    24   6 C    3.933 --    23 C    1.306    28 N    1.267    25 C    1.216
    25   6 C    3.851 --    26 C    1.632    24 C    1.216    54 H    0.999
    26   6 C    3.832 --    25 C    1.632    27 C    1.208    55 H    0.998
    27   6 C    3.923 --    29 C    1.365    28 N    1.244    26 C    1.208
    28   7 N    3.001 --    24 C    1.267    27 C    1.244     1 Co   0.706
    29   6 C    3.842 --    39 C    1.365    27 C    1.365    30 C    1.048
    30   6 C    3.896 --    38 C    1.440    31 C    1.420    29 C    1.048
    31   6 C    3.875 --    32 C    1.444    30 C    1.420    56 H    0.989
    32   6 C    3.910 --    33 C    1.456    31 C    1.444    57 H    0.982
    33   6 C    3.892 --    32 C    1.456    34 C    1.402    58 H    0.987
    34   6 C    3.908 --    38 C    1.407    33 C    1.402    35 C    1.036
    35   6 C    4.098 --    37 O    1.817    36 O    1.212    34 C    1.036
    36   8 O    2.369 --    35 C    1.212    59 H    0.944    37 O    0.183
    37   8 O    2.030 --    35 C    1.817    36 O    0.183
    38   6 C    3.847 --    30 C    1.440    34 C    1.407    60 H    0.997
    39   6 C    3.931 --    29 C    1.365    43 N    1.248    40 C    1.203
    40   6 C    3.833 --    41 C    1.643    39 C    1.203    61 H    0.998
    41   6 C    3.855 --    40 C    1.643    42 C    1.199    62 H    0.993
    42   6 C    3.955 --     2 C    1.385    43 N    1.252    41 C    1.199
    43   7 N    2.995 --    42 C    1.252    39 C    1.248     1 Co   0.708
    44   1 H    1.037 --     2 C    0.998
    45   1 H    1.027 --     4 C    0.994
    46   1 H    1.041 --     5 C    0.998
    47   1 H    1.052 --    10 C    0.995
    48   1 H    0.980 --    13 O    0.944
    49   1 H    1.016 --    15 C    0.987
    50   1 H    1.029 --    16 C    0.982
    51   1 H    1.055 --    17 C    0.990
    52   1 H    1.044 --    19 C    0.998
    53   1 H    1.037 --    20 C    0.998
    54   1 H    1.038 --    25 C    0.999
    55   1 H    1.042 --    26 C    0.998
    56   1 H    1.054 --    31 C    0.989
    57   1 H    1.030 --    32 C    0.982
    58   1 H    1.026 --    33 C    0.987
    59   1 H    0.981 --    36 O    0.944
    60   1 H    1.043 --    38 C    0.997
    61   1 H    1.040 --    40 C    0.998
    62   1 H    1.026 --    41 C    0.993
    63  27 Co   3.654 --   105 N    0.711    69 N    0.710    83 N    0.707
                            90 N    0.704
    64   6 C    3.839 --   104 C    1.395    65 C    1.385   106 H    0.998
    65   6 C    3.954 --    64 C    1.385    69 N    1.252    66 C    1.199
    66   6 C    3.855 --    67 C    1.644    65 C    1.199   107 H    0.993
    67   6 C    3.834 --    66 C    1.644    68 C    1.202   108 H    0.998
    68   6 C    3.932 --    70 C    1.367    69 N    1.246    67 C    1.202
    69   7 N    2.995 --    65 C    1.252    68 C    1.246    63 Co   0.710
    70   6 C    3.841 --    68 C    1.367    80 C    1.360    71 C    1.051
    71   6 C    3.896 --    72 C    1.441    79 C    1.417    70 C    1.051
    72   6 C    3.850 --    71 C    1.441    73 C    1.407   109 H    0.996
    73   6 C    3.908 --    72 C    1.407    77 C    1.401    74 C    1.035
    74   6 C    4.097 --    76 O    1.820    75 O    1.210    73 C    1.035
    75   8 O    2.366 --    74 C    1.210   110 H    0.944    76 O    0.184
    76   8 O    2.033 --    74 C    1.820    75 O    0.184
    77   6 C    3.887 --    78 C    1.453    73 C    1.401   111 H    0.987
    78   6 C    3.910 --    77 C    1.453    79 C    1.446   112 H    0.982
    79   6 C    3.875 --    78 C    1.446    71 C    1.417   113 H    0.990
    80   6 C    3.922 --    70 C    1.360    83 N    1.246    81 C    1.210
    81   6 C    3.831 --    82 C    1.630    80 C    1.210   114 H    0.998
    82   6 C    3.851 --    81 C    1.630    84 C    1.218   115 H    0.999
    83   7 N    3.001 --    84 C    1.265    80 C    1.246    63 Co   0.707
    84   6 C    3.931 --    85 C    1.304    83 N    1.265    82 C    1.218
    85   6 C    3.870 --    84 C    1.304    86 C    1.293   148 C    1.218
    86   6 C    3.931 --    85 C    1.293    90 N    1.278    87 C    1.221
    87   6 C    3.847 --    88 C    1.630    86 C    1.221   116 H    0.998
    88   6 C    3.832 --    87 C    1.630    89 C    1.208   117 H    0.998
    89   6 C    3.924 --    91 C    1.376    90 N    1.232    88 C    1.208
    90   7 N    3.002 --    86 C    1.278    89 C    1.232    63 Co   0.704
    91   6 C    3.841 --    89 C    1.376   101 C    1.352    92 C    1.049
    92   6 C    3.896 --   100 C    1.437    93 C    1.422    91 C    1.049
    93   6 C    3.867 --    94 C    1.443    92 C    1.422   118 H    0.990
    94   6 C    3.907 --    95 C    1.457    93 C    1.443   119 H    0.981
    95   6 C    3.892 --    94 C    1.457    96 C    1.401   120 H    0.987
    96   6 C    3.911 --   100 C    1.409    95 C    1.401    97 C    1.036
    97   6 C    4.098 --    99 O    1.817    98 O    1.213    96 C    1.036
    98   8 O    2.369 --    97 C    1.213   121 H    0.943    99 O    0.183
    99   8 O    2.030 --    97 C    1.817    98 O    0.183
   100   6 C    3.854 --    92 C    1.437    96 C    1.409   122 H    0.996
   101   6 C    3.930 --    91 C    1.352   105 N    1.258   102 C    1.205
   102   6 C    3.834 --   103 C    1.642   101 C    1.205   123 H    0.999
   103   6 C    3.858 --   102 C    1.642   104 C    1.197   124 H    0.994
   104   6 C    3.954 --    64 C    1.395   105 N    1.240   103 C    1.197
   105   7 N    2.994 --   101 C    1.258   104 C    1.240    63 Co   0.711
   106   1 H    1.037 --    64 C    0.998
   107   1 H    1.026 --    66 C    0.993
   108   1 H    1.041 --    67 C    0.998
   109   1 H    1.052 --    72 C    0.996
   110   1 H    0.980 --    75 O    0.944
   111   1 H    1.016 --    77 C    0.987
   112   1 H    1.028 --    78 C    0.982
   113   1 H    1.054 --    79 C    0.990
   114   1 H    1.042 --    81 C    0.998
   115   1 H    1.038 --    82 C    0.999
   116   1 H    1.037 --    87 C    0.998
   117   1 H    1.044 --    88 C    0.998
   118   1 H    1.054 --    93 C    0.990
   119   1 H    1.029 --    94 C    0.981
   120   1 H    1.026 --    95 C    0.987
   121   1 H    0.980 --    98 O    0.943
   122   1 H    1.042 --   100 C    0.996
   123   1 H    1.040 --   102 C    0.999
   124   1 H    1.027 --   103 C    0.994
   125   6 C    3.771 --   126 C    2.485    23 C    1.212   128 C    0.175
   126   6 C    3.833 --   125 C    2.485   127 C    1.351
   127   6 C    3.834 --   128 C    2.377   126 C    1.351   130 C    0.173
   128   6 C    3.842 --   127 C    2.377   129 C    1.362   125 C    0.175
   129   6 C    3.878 --   130 C    2.429   128 C    1.362
   130   6 C    3.815 --   129 C    2.429   131 C    1.270   127 C    0.173
   131   6 C    4.009 --   132 C    1.570   130 C    1.270   150 C    1.133
   132   6 C    3.182 --   131 C    1.570   190 C    0.921   150 C    0.459
   133   6 C    3.760 --   134 C    2.459   171 C    1.227   136 C    0.172
   134   6 C    3.829 --   133 C    2.459   135 C    1.370
   135   6 C    3.808 --   136 C    2.338   134 C    1.370   138 C    0.166
   136   6 C    3.843 --   135 C    2.338   137 C    1.397   133 C    0.172
   137   6 C    3.845 --   138 C    2.341   136 C    1.397   140 C    0.172
   138   6 C    3.807 --   137 C    2.341   139 C    1.367   135 C    0.166
   139   6 C    3.830 --   140 C    2.465   138 C    1.367
   140   6 C    3.756 --   139 C    2.465   211 C    1.221   137 C    0.172
   141   6 C    3.759 --   142 C    2.471   232 C    1.217   144 C    0.172
   142   6 C    3.831 --   141 C    2.471   143 C    1.362
   143   6 C    3.810 --   144 C    2.349   142 C    1.362   146 C    0.166
   144   6 C    3.846 --   143 C    2.349   145 C    1.390   141 C    0.172
   145   6 C    3.846 --   146 C    2.350   144 C    1.390   148 C    0.172
   146   6 C    3.810 --   145 C    2.350   147 C    1.361   143 C    0.166
   147   6 C    3.832 --   148 C    2.472   146 C    1.361
   148   6 C    3.761 --   147 C    2.472    85 C    1.218   145 C    0.172
   149  27 Co   3.728 --   191 N    0.743   169 N    0.723   176 N    0.702
                           155 N    0.681
   150   6 C    3.856 --   151 C    1.214   131 C    1.133   190 C    0.972
                           132 C    0.459
   151   6 C    3.949 --   155 N    1.311   152 C    1.257   150 C    1.214
   152   6 C    3.856 --   153 C    1.580   151 C    1.257   192 H    0.995
   153   6 C    3.817 --   152 C    1.580   154 C    1.239   193 H    0.999
   154   6 C    3.922 --   156 C    1.358   153 C    1.239   155 N    1.216
   155   7 N    2.980 --   151 C    1.311   154 C    1.216   149 Co   0.681
   156   6 C    3.846 --   166 C    1.366   154 C    1.358   157 C    1.048
   157   6 C    3.898 --   158 C    1.440   165 C    1.421   156 C    1.048
   158   6 C    3.858 --   157 C    1.440   159 C    1.408   194 H    0.995
   159   6 C    3.911 --   158 C    1.408   163 C    1.402   160 C    1.034
   160   6 C    4.098 --   162 O    1.821   161 O    1.211   159 C    1.034
   161   8 O    2.368 --   160 C    1.211   195 H    0.943   162 O    0.185
   162   8 O    2.034 --   160 C    1.821   161 O    0.185
   163   6 C    3.888 --   164 C    1.454   159 C    1.402   196 H    0.987
   164   6 C    3.908 --   163 C    1.454   165 C    1.444   197 H    0.981
   165   6 C    3.867 --   164 C    1.444   157 C    1.421   198 H    0.990
   166   6 C    3.924 --   156 C    1.366   169 N    1.227   167 C    1.221
   167   6 C    3.831 --   168 C    1.618   166 C    1.221   199 H    0.998
   168   6 C    3.839 --   167 C    1.618   170 C    1.228   200 H    0.999
   169   7 N    3.009 --   170 C    1.280   166 C    1.227   149 Co   0.723
   170   6 C    3.927 --   169 N    1.280   171 C    1.270   168 C    1.228
   171   6 C    3.876 --   172 C    1.307   170 C    1.270   133 C    1.227
   172   6 C    3.931 --   171 C    1.307   176 N    1.268   173 C    1.207
   173   6 C    3.858 --   174 C    1.641   172 C    1.207   201 H    0.999
   174   6 C    3.828 --   173 C    1.641   175 C    1.201   202 H    0.998
   175   6 C    3.930 --   177 C    1.377   176 N    1.240   174 C    1.201
   176   7 N    2.985 --   172 C    1.268   175 C    1.240   149 Co   0.702
   177   6 C    3.812 --   175 C    1.377   187 C    1.324   178 C    1.057
   178   6 C    3.892 --   186 C    1.433   179 C    1.419   177 C    1.057
   179   6 C    3.864 --   180 C    1.444   178 C    1.419   203 H    0.991
   180   6 C    3.908 --   181 C    1.455   179 C    1.444   204 H    0.982
   181   6 C    3.890 --   180 C    1.455   182 C    1.401   205 H    0.987
   182   6 C    3.912 --   186 C    1.411   181 C    1.401   183 C    1.034
   183   6 C    4.098 --   185 O    1.818   184 O    1.215   182 C    1.034
   184   8 O    2.370 --   183 C    1.215   206 H    0.943   185 O    0.184
   185   8 O    2.031 --   183 C    1.818   184 O    0.184
   186   6 C    3.853 --   178 C    1.433   182 C    1.411   207 H    0.996
   187   6 C    3.965 --   191 N    1.339   177 C    1.324   188 C    1.155
   188   6 C    3.842 --   189 C    1.751   187 C    1.155   208 H    0.995
   189   6 C    3.881 --   188 C    1.751   190 C    1.043   209 H    0.993
   190   6 C    4.109 --   191 N    1.068   189 C    1.043   150 C    0.972
                           132 C    0.921
   191   7 N    2.967 --   187 C    1.339   190 C    1.068   149 Co   0.743
   192   1 H    1.033 --   152 C    0.995
   193   1 H    1.036 --   153 C    0.999
   194   1 H    1.052 --   158 C    0.995
   195   1 H    0.979 --   161 O    0.943
   196   1 H    1.016 --   163 C    0.987
   197   1 H    1.029 --   164 C    0.981
   198   1 H    1.054 --   165 C    0.990
   199   1 H    1.040 --   167 C    0.998
   200   1 H    1.038 --   168 C    0.999
   201   1 H    1.037 --   173 C    0.999
   202   1 H    1.037 --   174 C    0.998
   203   1 H    1.053 --   179 C    0.991
   204   1 H    1.029 --   180 C    0.982
   205   1 H    1.026 --   181 C    0.987
   206   1 H    0.979 --   184 O    0.943
   207   1 H    1.041 --   186 C    0.996
   208   1 H    1.037 --   188 C    0.995
   209   1 H    1.055 --   189 C    0.993
   210  27 Co   3.652 --   216 N    0.708   252 N    0.708   230 N    0.708
                           237 N    0.707
   211   6 C    3.862 --   251 C    1.300   212 C    1.296   140 C    1.221
   212   6 C    3.931 --   211 C    1.296   216 N    1.273   213 C    1.221
   213   6 C    3.846 --   214 C    1.631   212 C    1.221   253 H    0.998
   214   6 C    3.830 --   213 C    1.631   215 C    1.209   254 H    0.998
   215   6 C    3.921 --   217 C    1.371   216 N    1.233   214 C    1.209
   216   7 N    2.993 --   212 C    1.273   215 C    1.233   210 Co   0.708
   217   6 C    3.840 --   215 C    1.371   227 C    1.359   218 C    1.053
   218   6 C    3.895 --   219 C    1.438   226 C    1.418   217 C    1.053
   219   6 C    3.852 --   218 C    1.438   220 C    1.409   255 H    0.996
   220   6 C    3.909 --   219 C    1.409   224 C    1.401   221 C    1.035
   221   6 C    4.097 --   223 O    1.821   222 O    1.210   220 C    1.035
   222   8 O    2.367 --   221 C    1.210   256 H    0.943   223 O    0.184
   223   8 O    2.035 --   221 C    1.821   222 O    0.184
   224   6 C    3.887 --   225 C    1.453   220 C    1.401   257 H    0.987
   225   6 C    3.909 --   224 C    1.453   226 C    1.446   258 H    0.982
   226   6 C    3.870 --   225 C    1.446   218 C    1.418   259 H    0.990
   227   6 C    3.921 --   217 C    1.359   230 N    1.242   228 C    1.213
   228   6 C    3.832 --   229 C    1.628   227 C    1.213   260 H    0.998
   229   6 C    3.848 --   228 C    1.628   231 C    1.221   261 H    0.999
   230   7 N    2.991 --   231 C    1.264   227 C    1.242   210 Co   0.708
   231   6 C    3.931 --   232 C    1.303   230 N    1.264   229 C    1.221
   232   6 C    3.861 --   231 C    1.303   233 C    1.296   141 C    1.217
   233   6 C    3.931 --   232 C    1.296   237 N    1.271   234 C    1.222
   234   6 C    3.845 --   235 C    1.629   233 C    1.222   262 H    0.998
   235   6 C    3.830 --   234 C    1.629   236 C    1.211   263 H    0.998
   236   6 C    3.920 --   238 C    1.368   237 N    1.235   235 C    1.211
   237   7 N    2.992 --   233 C    1.271   236 C    1.235   210 Co   0.707
   238   6 C    3.839 --   236 C    1.368   248 C    1.363   239 C    1.052
   239   6 C    3.895 --   247 C    1.436   240 C    1.419   238 C    1.052
   240   6 C    3.870 --   241 C    1.444   239 C    1.419   264 H    0.990
   241   6 C    3.908 --   242 C    1.456   240 C    1.444   265 H    0.982
   242   6 C    3.891 --   241 C    1.456   243 C    1.401   266 H    0.987
   243   6 C    3.909 --   247 C    1.409   242 C    1.401   244 C    1.035
   244   6 C    4.097 --   246 O    1.818   245 O    1.214   243 C    1.035
   245   8 O    2.370 --   244 C    1.214   267 H    0.943   246 O    0.184
   246   8 O    2.032 --   244 C    1.818   245 O    0.184
   247   6 C    3.848 --   239 C    1.436   243 C    1.409   268 H    0.996
   248   6 C    3.921 --   238 C    1.363   252 N    1.240   249 C    1.212
   249   6 C    3.833 --   250 C    1.629   248 C    1.212   269 H    0.998
   250   6 C    3.848 --   249 C    1.629   251 C    1.220   270 H    0.999
   251   6 C    3.930 --   211 C    1.300   252 N    1.266   250 C    1.220
   252   7 N    2.992 --   251 C    1.266   248 C    1.240   210 Co   0.708
   253   1 H    1.036 --   213 C    0.998
   254   1 H    1.042 --   214 C    0.998
   255   1 H    1.052 --   219 C    0.996
   256   1 H    0.979 --   222 O    0.943
   257   1 H    1.016 --   224 C    0.987
   258   1 H    1.029 --   225 C    0.982
   259   1 H    1.054 --   226 C    0.990
   260   1 H    1.042 --   228 C    0.998
   261   1 H    1.036 --   229 C    0.999
   262   1 H    1.035 --   234 C    0.998
   263   1 H    1.042 --   235 C    0.998
   264   1 H    1.054 --   240 C    0.990
   265   1 H    1.030 --   241 C    0.982
   266   1 H    1.026 --   242 C    0.987
   267   1 H    0.980 --   245 O    0.943
   268   1 H    1.042 --   247 C    0.996
   269   1 H    1.041 --   249 C    0.998
   270   1 H    1.035 --   250 C    0.999
 ---------------------------------------------------------------------------

Topologies differ in total number of bonds
Writing topology from bond orders to xtbtopo.mol

 dipole moment from electron density (au)
     X       Y       Z   
-128.9593  -1.8530  -0.9517  total (Debye):  327.825


           -------------------------------------------------
          | TOTAL ENERGY             -576.769882717865 Eh   |
          | GRADIENT NORM               0.122794261181 Eh/α |
          | HOMO-LUMO GAP               0.002071212708 eV   |
           -------------------------------------------------
########################################################################
[WARNING] Runtime exception occurred
-1- restart_readRestart: Dimension missmatch in restart file.
########################################################################

------------------------------------------------------------------------
 * finished run on 2022/07/30 at 01:48:00.265     
------------------------------------------------------------------------
 total:
 * wall-time:     0 d,  0 h,  1 min, 16.715 sec
 *  cpu-time:     0 d,  0 h,  1 min, 16.268 sec
 * ratio c/w:     0.994 speedup
 SCF:
 * wall-time:     0 d,  0 h,  1 min, 15.920 sec
 *  cpu-time:     0 d,  0 h,  1 min, 15.482 sec
 * ratio c/w:     0.994 speedup

