      -----------------------------------------------------------      
     |                   =====================                   |     
     |                           x T B                           |     
     |                   =====================                   |     
     |                         S. Grimme                         |     
     |          Mulliken Center for Theoretical Chemistry        |     
     |                    University of Bonn                     |     
      -----------------------------------------------------------      

   * xtb version 6.5.1 (b24c23e) compiled by 'conda@728c89f4b128' on 2022-07-12

   xtb is free software: you can redistribute it and/or modify it under
   the terms of the GNU Lesser General Public License as published by
   the Free Software Foundation, either version 3 of the License, or
   (at your option) any later version.
   
   xtb is distributed in the hope that it will be useful,
   but WITHOUT ANY WARRANTY; without even the implied warranty of
   MERCHANTABILITY or FITNESS FOR A PARTICULAR PURPOSE.  See the
   GNU Lesser General Public License for more details.
   
   Cite this work as:
   * C. Bannwarth, E. Caldeweyher, S. Ehlert, A. Hansen, P. Pracht,
     J. Seibert, S. Spicher, S. Grimme, WIREs Comput. Mol. Sci., 2020, 11,
     e01493. DOI: 10.1002/wcms.1493
   
   for GFN2-xTB:
   * C. Bannwarth, S. Ehlert and S. Grimme., J. Chem. Theory Comput., 2019,
     15, 1652-1671. DOI: 10.1021/acs.jctc.8b01176
   for GFN1-xTB:
   * S. Grimme, C. Bannwarth, P. Shushkov, J. Chem. Theory Comput., 2017,
     13, 1989-2009. DOI: 10.1021/acs.jctc.7b00118
   for GFN0-xTB:
   * P. Pracht, E. Caldeweyher, S. Ehlert, S. Grimme, ChemRxiv, 2019, preprint.
     DOI: 10.26434/chemrxiv.8326202.v1
   for GFN-FF:
   * S. Spicher and S. Grimme, Angew. Chem. Int. Ed., 2020, 59, 15665-15673.
     DOI: 10.1002/anie.202004239
   
   for ALPB and GBSA implicit solvation:
   * S. Ehlert, M. Stahn, S. Spicher, S. Grimme, J. Chem. Theory Comput.,
     2021, 17, 4250-4261. DOI: 10.1021/acs.jctc.1c00471
   
   for DFT-D4:
   * E. Caldeweyher, C. Bannwarth and S. Grimme, J. Chem. Phys., 2017,
     147, 034112. DOI: 10.1063/1.4993215
   * E. Caldeweyher, S. Ehlert, A. Hansen, H. Neugebauer, S. Spicher,
     C. Bannwarth and S. Grimme, J. Chem. Phys., 2019, 150, 154122.
     DOI: 10.1063/1.5090222
   * E. Caldeweyher, J.-M. Mewes, S. Ehlert and S. Grimme, Phys. Chem. Chem. Phys.
     2020, 22, 8499-8512. DOI: 10.1039/D0CP00502A
   
   for sTDA-xTB:
   * S. Grimme and C. Bannwarth, J. Chem. Phys., 2016, 145, 054103.
     DOI: 10.1063/1.4959605
   
   in the mass-spec context:
   * V. Asgeirsson, C. Bauer and S. Grimme, Chem. Sci., 2017, 8, 4879.
     DOI: 10.1039/c7sc00601b
   * J. Koopman and S. Grimme, ACS Omega 2019, 4, 12, 15120-15133.
     DOI: 10.1021/acsomega.9b02011
   
   for metadynamics refer to:
   * S. Grimme, J. Chem. Theory Comput., 2019, 155, 2847-2862
     DOI: 10.1021/acs.jctc.9b00143
   
   for SPH calculations refer to:
   * S. Spicher and S. Grimme, J. Chem. Theory Comput., 2021, 17, 1701-1714
     DOI: 10.1021/acs.jctc.0c01306
   
   with help from (in alphabetical order)
   P. Atkinson, C. Bannwarth, F. Bohle, G. Brandenburg, E. Caldeweyher
   M. Checinski, S. Dohm, S. Ehlert, S. Ehrlich, I. Gerasimov, C. Hölzer
   A. Katbashev, J. Koopman, C. Lavigne, S. Lehtola, F. März, M. Müller,
   F. Musil, H. Neugebauer, J. Pisarek, C. Plett, P. Pracht, F. Pultar,
   J. Seibert, P. Shushkov, S. Spicher, M. Stahn, M. Steiner, T. Strunk,
   J. Stückrath, T. Rose, and J. Unsleber
   
 * started run on 2022/07/30 at 04:18:33.125     

           -------------------------------------------------
          |                Calculation Setup                |
           -------------------------------------------------

          program call               : xtb xtbopt.xyz --gfn 1 --vipea
          hostname                   : cx3-14-19.cx3.hpc.ic.ac.uk
          coordinate file            : xtbopt.xyz
          omp threads                :                     1

   ID    Z sym.   atoms
    1   29 Cu     1, 37
    2    6 C      2-6, 8-11, 13-18, 20-24, 38-42, 44-47, 49-54, 56-60, 73-78
    3    7 N      7, 12, 19, 25, 43, 48, 55, 61
    4    1 H      26-36, 62-72

           -------------------------------------------------
          |                 I P E A - x T B                 |
           -------------------------------------------------

        Reference                      10.1039/c7sc00601b
      * Hamiltonian:
        H0-scaling (s, p, d)           2.150000    2.300000    2.000000
        zeta-weighting                 0.000000
      * Dispersion:
        s8                             2.400000
        a1                             0.630000
        a2                             5.000000
        s9                             0.000000
      * Repulsion:
        kExp                           1.500000
        rExp                           1.000000
      * Coulomb:
        alpha                          1.000000
        third order                    atomic
        anisotropic                    false
      * Halogen bond correction:
        rad-scale                      1.300000
        damping                        0.440000


          ...................................................
          :                      SETUP                      :
          :.................................................:
          :  # basis functions                 334          :
          :  # atomic orbitals                 332          :
          :  # shells                          212          :
          :  # electrons                       268          :
          :  # halogen bonds                     0          :
          :  max. iterations                   250          :
          :  Hamiltonian                  GFN1-xTB          :
          :  restarted?                      false          :
          :  GBSA solvation                  false          :
          :  PC potential                    false          :
          :  electronic temp.          300.0000000     K    :
          :  accuracy                    1.0000000          :
          :  -> integral cutoff          0.2500000E+02      :
          :  -> integral neglect         0.1000000E-07      :
          :  -> SCF convergence          0.1000000E-05 Eh   :
          :  -> wf. convergence          0.2000000E-04 e    :
          :  Broyden damping             0.4000000          :
          ...................................................

 iter      E             dE          RMSdq      gap      omega  full diag
   1   -165.3568719 -0.165357E+03  0.106E+01    0.00       0.0  T
   2   -165.3439757  0.128962E-01  0.668E+00    0.00       1.0  T
   3   -162.1359680  0.320801E+01  0.529E+00    0.11       1.0  T
   4   -165.7416948 -0.360573E+01  0.118E+00    0.38       1.0  T
   5   -165.7550512 -0.133564E-01  0.124E+00    0.80       1.0  T
   6   -165.8493265 -0.942754E-01  0.989E-01    0.22       1.0  T
   7   -165.9957179 -0.146391E+00  0.260E-01    0.02       1.0  T
   8   -165.8813675  0.114350E+00  0.831E-01    0.10       1.0  T
   9   -165.8832859 -0.191838E-02  0.821E-01    0.09       1.0  T
  10   -166.0031118 -0.119826E+00  0.113E-01    0.00       1.0  T
  11   -165.9886346  0.144772E-01  0.310E-01    0.03       1.0  T
  12   -166.0044112 -0.157767E-01  0.546E-02    0.00       1.0  T
  13   -165.9987323  0.567899E-02  0.187E-01    0.02       1.0  T
  14   -166.0044983 -0.576601E-02  0.406E-02    0.00       1.0  T
  15   -166.0047303 -0.232010E-03  0.163E-02    0.00       1.0  T
  16   -166.0047163  0.139485E-04  0.188E-02    0.00       1.0  T
  17   -166.0047773 -0.609528E-04  0.226E-03    0.00       5.0  T
  18   -166.0047754  0.191085E-05  0.391E-03    0.00       2.9  T
  19   -166.0047778 -0.243334E-05  0.114E-03    0.00      10.0  T
  20   -166.0047780 -0.209243E-06  0.112E-04    0.00     101.2  T
  21   -166.0047780 -0.892243E-09  0.499E-05    0.00     227.1  T

   *** convergence criteria satisfied after 21 iterations ***

         #    Occupation            Energy/Eh            Energy/eV
      -------------------------------------------------------------
         1        2.0000           -1.0085657             -27.4445
       ...           ...                  ...                  ...
       128        2.0000           -0.4097989             -11.1512
       129        2.0000           -0.4031569             -10.9705
       130        2.0000           -0.3836377             -10.4393
       131        2.0000           -0.3836373             -10.4393
       132        2.0000           -0.3798151             -10.3353
       133        2.0000           -0.3698699             -10.0647
       134        0.8624           -0.3095360              -8.4229 (HOMO)
       135        0.8579           -0.3095274              -8.4227 (LUMO)
       136        0.2798           -0.3080737              -8.3831
       137        0.0000           -0.2981746              -8.1137
       138        0.0000           -0.2971349              -8.0855
       139        0.0000           -0.2971339              -8.0854
       ...           ...                  ...                  ...
       332                        478.7365306           13027.0841
      -------------------------------------------------------------
                  HL-Gap            0.0000087 Eh            0.0002 eV
             Fermi-level           -0.3097993 Eh           -8.4301 eV

 SCC (total)                   0 d,  0 h,  0 min,  1.422 sec
 SCC setup                      ...        0 min,  0.002 sec (  0.107%)
 Dispersion                     ...        0 min,  0.002 sec (  0.144%)
 classical contributions        ...        0 min,  0.001 sec (  0.055%)
 integral evaluation            ...        0 min,  0.224 sec ( 15.764%)
 iterations                     ...        0 min,  0.682 sec ( 47.985%)
 molecular gradient             ...        0 min,  0.503 sec ( 35.357%)
 printout                       ...        0 min,  0.008 sec (  0.585%)

         :::::::::::::::::::::::::::::::::::::::::::::::::::::
         ::                     SUMMARY                     ::
         :::::::::::::::::::::::::::::::::::::::::::::::::::::
         :: total energy            -162.820953673641 Eh    ::
         :: gradient norm              0.055712851666 Eh/a0 ::
         :: HOMO-LUMO gap              0.000235972994 eV    ::
         ::.................................................::
         :: SCC energy              -166.004778004929 Eh    ::
         :: -> electrostatic           0.106136831087 Eh    ::
         :: repulsion energy           3.249040981237 Eh    ::
         :: dispersion energy         -0.065216649950 Eh    ::
         :: halogen bond corr.         0.000000000000 Eh    ::
         :: add. restraining           0.000000000000 Eh    ::
         :: total charge              -0.000000000007 e     ::
         :::::::::::::::::::::::::::::::::::::::::::::::::::::

           ------------------------------------------------- 
          |        vertical delta SCC IP calculation        |
           ------------------------------------------------- 
   1   -165.6445488 -0.165645E+03  0.403E-01    0.00       0.0  T
   2   -165.6539390 -0.939026E-02  0.167E-01    0.00       1.0  T
   3   -165.6545196 -0.580578E-03  0.116E-01    0.00       1.0  T
   4   -165.6502734  0.424624E-02  0.178E-01    0.04       1.0  T
   5   -165.6325192  0.177541E-01  0.352E-01    0.10       1.0  T
   6   -165.6553343 -0.228151E-01  0.431E-02    0.00       1.0  T
   7   -165.6555518 -0.217520E-03  0.184E-02    0.00       1.0  T
   8   -165.6556103 -0.584950E-04  0.392E-03    0.00       2.9  T
   9   -165.6556129 -0.252052E-05  0.136E-03    0.00       8.3  T
  10   -165.6556129 -0.685859E-07  0.110E-03    0.00      10.3  T
  11   -165.6556128  0.890810E-07  0.117E-03    0.00       9.7  T
  12   -165.6556131 -0.235096E-06  0.321E-04    0.00      35.3  T
  13   -165.6556131 -0.151583E-07  0.891E-05    0.00     127.1  T
  14   -165.6556131 -0.571305E-09  0.334E-05    0.00     338.6  T
     SCC iter.                  ...        0 min,  0.450 sec
     gradient                   ...        0 min,  0.502 sec
------------------------------------------------------------------------
empirical IP shift (eV):    4.8455
delta SCC IP (eV):    4.6558
------------------------------------------------------------------------
           ------------------------------------------------- 
          |        vertical delta SCC EA calculation        |
           ------------------------------------------------- 
   1   -166.2262194 -0.166226E+03  0.901E-01    0.24       0.0  T
   2   -166.0549018  0.171318E+00  0.119E+00    0.08       1.0  T
   3   -166.2339210 -0.179019E+00  0.750E-01    0.24       1.0  T
   4   -166.2566887 -0.227677E-01  0.550E-01    0.11       1.0  T
   5   -166.2723019 -0.156132E-01  0.258E-01    0.04       1.0  T
   6   -166.2485626  0.237393E-01  0.394E-01    0.04       1.0  T
   7   -166.2486873 -0.124698E-03  0.391E-01    0.04       1.0  T
   8   -166.2770569 -0.283696E-01  0.375E-02    0.00       1.0  T
   9   -166.2772188 -0.161988E-03  0.175E-02    0.01       1.0  T
  10   -166.2772552 -0.363500E-04  0.555E-03    0.01       2.0  T
  11   -166.2772541  0.110523E-05  0.667E-03    0.01       1.7  T
  12   -166.2772576 -0.351088E-05  0.274E-03    0.01       4.1  T
  13   -166.2772585 -0.901400E-06  0.186E-03    0.01       6.1  T
  14   -166.2772590 -0.545018E-06  0.729E-04    0.01      15.5  T
  15   -166.2772591 -0.488119E-07  0.109E-04    0.01     104.3  T
  16   -166.2772591  0.181871E-09  0.115E-04    0.01      98.3  T
     SCC iter.                  ...        0 min,  0.516 sec
     gradient                   ...        0 min,  0.499 sec
------------------------------------------------------------------------
empirical EA shift (eV):    4.8455
delta SCC EA (eV):    2.5691
------------------------------------------------------------------------
           -------------------------------------------------
          |                Property Printout                |
           -------------------------------------------------

    * Orbital Energies and Occupations

         #    Occupation            Energy/Eh            Energy/eV
      -------------------------------------------------------------
         1        2.0000           -0.9361535             -25.4740
       ...           ...                  ...                  ...
       123        2.0000           -0.3484213              -9.4810
       124        2.0000           -0.3429352              -9.3317
       125        2.0000           -0.3405611              -9.2671
       126        2.0000           -0.3405577              -9.2670
       127        2.0000           -0.3402376              -9.2583
       128        2.0000           -0.3371317              -9.1738
       129        2.0000           -0.3295426              -8.9673
       130        2.0000           -0.3125750              -8.5056
       131        2.0000           -0.3125746              -8.5056
       132        2.0000           -0.3073259              -8.3628
       133        2.0000           -0.2973241              -8.0906
       134        1.0550           -0.2361100              -6.4249
       135        1.0522           -0.2361039              -6.4247 (HOMO)
       136        0.8924           -0.2357610              -6.4154 (LUMO)
       137        0.0001           -0.2267422              -6.1700
       138        0.0001           -0.2267412              -6.1699
       139        0.0001           -0.2260017              -6.1498
       140                         -0.1868016              -5.0831
       141                         -0.1811969              -4.9306
       142                         -0.1591386              -4.3304
       143                         -0.1541643              -4.1950
       144                         -0.1492721              -4.0619
       145                         -0.1420167              -3.8645
       146                         -0.1244619              -3.3868
       ...                                ...                  ...
       332                        478.8110908           13029.1130
      -------------------------------------------------------------
                  HL-Gap            0.0003429 Eh            0.0093 eV
             Fermi-level           -0.2359921 Eh           -6.4217 eV

  Mulliken/CM5 charges         n(s)   n(p)   n(d)
     1Cu    0.23748  0.59399   0.535  0.885  9.343
     2C    -0.03490 -0.07600   1.079  2.956  0.000
     3C     0.05607  0.11792   1.116  2.827  0.000
     4C    -0.04597 -0.09201   1.085  2.961  0.000
     5C    -0.04322 -0.08926   1.087  2.956  0.000
     6C     0.05214  0.11394   1.111  2.837  0.000
     7N    -0.21959 -0.47101   1.329  3.891  0.000
     8C    -0.02214 -0.06332   1.090  2.933  0.000
     9C     0.05161  0.11261   1.109  2.839  0.000
    10C    -0.04346 -0.08953   1.085  2.958  0.000
    11C    -0.04222 -0.08740   1.084  2.959  0.000
    12N    -0.21542 -0.46636   1.331  3.884  0.000
    13C     0.06194  0.12847   1.121  2.817  0.000
    14C     0.00717  0.01416   1.077  2.915  0.000
    15C     0.06169  0.12818   1.122  2.817  0.000
    16C    -0.04235 -0.08751   1.084  2.958  0.000
    17C    -0.04353 -0.08958   1.085  2.958  0.000
    18C     0.05160  0.11263   1.109  2.839  0.000
    19N    -0.21564 -0.46635   1.331  3.884  0.000
    20C    -0.02225 -0.06342   1.090  2.933  0.000
    21C     0.05213  0.11390   1.111  2.837  0.000
    22C    -0.04323 -0.08927   1.087  2.956  0.000
    23C    -0.04595 -0.09199   1.085  2.961  0.000
    24C     0.05606  0.11788   1.116  2.827  0.000
    25N    -0.21954 -0.47114   1.329  3.891  0.000
    26H     0.01172  0.07053   0.988  0.000  0.000
    27H     0.01918  0.07566   0.981  0.000  0.000
    28H     0.02049  0.07697   0.980  0.000  0.000
    29H     0.01670  0.07556   0.983  0.000  0.000
    30H     0.02117  0.07769   0.979  0.000  0.000
    31H     0.01930  0.07729   0.981  0.000  0.000
    32H     0.01900  0.07687   0.981  0.000  0.000
    33H     0.02108  0.07759   0.979  0.000  0.000
    34H     0.01660  0.07545   0.983  0.000  0.000
    35H     0.02046  0.07694   0.980  0.000  0.000
    36H     0.01920  0.07568   0.981  0.000  0.000
    37Cu    0.23737  0.59387   0.535  0.885  9.343
    38C    -0.03491 -0.07601   1.079  2.956  0.000
    39C     0.05607  0.11792   1.116  2.827  0.000
    40C    -0.04597 -0.09201   1.085  2.961  0.000
    41C    -0.04322 -0.08926   1.087  2.956  0.000
    42C     0.05214  0.11393   1.111  2.837  0.000
    43N    -0.21960 -0.47104   1.329  3.891  0.000
    44C    -0.02215 -0.06333   1.090  2.933  0.000
    45C     0.05161  0.11261   1.109  2.839  0.000
    46C    -0.04346 -0.08952   1.085  2.958  0.000
    47C    -0.04223 -0.08741   1.084  2.959  0.000
    48N    -0.21547 -0.46636   1.331  3.884  0.000
    49C     0.06193  0.12845   1.121  2.817  0.000
    50C     0.00716  0.01416   1.077  2.915  0.000
    51C     0.06170  0.12819   1.122  2.817  0.000
    52C    -0.04235 -0.08751   1.084  2.958  0.000
    53C    -0.04353 -0.08958   1.085  2.958  0.000
    54C     0.05160  0.11262   1.109  2.839  0.000
    55N    -0.21563 -0.46637   1.331  3.884  0.000
    56C    -0.02223 -0.06341   1.090  2.933  0.000
    57C     0.05212  0.11390   1.111  2.837  0.000
    58C    -0.04323 -0.08927   1.087  2.956  0.000
    59C    -0.04596 -0.09200   1.085  2.961  0.000
    60C     0.05606  0.11789   1.116  2.827  0.000
    61N    -0.21957 -0.47115   1.329  3.891  0.000
    62H     0.01172  0.07053   0.988  0.000  0.000
    63H     0.01919  0.07567   0.981  0.000  0.000
    64H     0.02049  0.07697   0.980  0.000  0.000
    65H     0.01670  0.07555   0.983  0.000  0.000
    66H     0.02117  0.07768   0.979  0.000  0.000
    67H     0.01931  0.07728   0.981  0.000  0.000
    68H     0.01900  0.07687   0.981  0.000  0.000
    69H     0.02108  0.07759   0.979  0.000  0.000
    70H     0.01660  0.07545   0.983  0.000  0.000
    71H     0.02046  0.07694   0.980  0.000  0.000
    72H     0.01919  0.07567   0.981  0.000  0.000
    73C    -0.03044 -0.03053   1.076  2.955  0.000
    74C    -0.03042 -0.03052   1.076  2.955  0.000
    75C    -0.03415 -0.03486   1.062  2.972  0.000
    76C    -0.02870 -0.03024   1.092  2.937  0.000
    77C    -0.03415 -0.03485   1.062  2.972  0.000
    78C    -0.02871 -0.03025   1.092  2.937  0.000

Wiberg/Mayer (AO) data.
largest (>0.10) Wiberg bond orders for each atom

 ---------------------------------------------------------------------------
     #   Z sym  total        # sym  WBO       # sym  WBO       # sym  WBO
 ---------------------------------------------------------------------------
     1  29 Cu   2.583 --    25 N    0.590     7 N    0.589    12 N    0.586
                            19 N    0.586
     2   6 C    3.784 --    24 C    1.379     3 C    1.379    26 H    0.998
     3   6 C    3.951 --     2 C    1.379     7 N    1.280     4 C    1.193
     4   6 C    3.832 --     5 C    1.643     3 C    1.193    27 H    0.996
     5   6 C    3.850 --     4 C    1.643     6 C    1.197    28 H    0.996
     6   6 C    3.936 --     8 C    1.392     7 N    1.259     5 C    1.197
     7   7 N    2.951 --     3 C    1.280     6 C    1.259     1 Cu   0.589
     8   6 C    3.837 --     6 C    1.392     9 C    1.387    29 H    0.999
     9   6 C    3.925 --     8 C    1.387    12 N    1.251    10 C    1.208
    10   6 C    3.838 --    11 C    1.621     9 C    1.208    30 H    0.995
    11   6 C    3.823 --    10 C    1.621    13 C    1.222    31 H    1.001
    12   7 N    2.970 --    13 C    1.307     9 C    1.251     1 Cu   0.586
    13   6 C    3.924 --    12 N    1.307    14 C    1.280    11 C    1.222
    14   6 C    3.802 --    15 C    1.282    13 C    1.280    76 C    1.229
    15   6 C    3.924 --    19 N    1.306    14 C    1.282    16 C    1.222
    16   6 C    3.823 --    17 C    1.621    15 C    1.222    32 H    1.001
    17   6 C    3.838 --    16 C    1.621    18 C    1.208    33 H    0.995
    18   6 C    3.925 --    20 C    1.386    19 N    1.251    17 C    1.208
    19   7 N    2.969 --    15 C    1.306    18 C    1.251     1 Cu   0.586
    20   6 C    3.837 --    21 C    1.392    18 C    1.386    34 H    0.999
    21   6 C    3.937 --    20 C    1.392    25 N    1.259    22 C    1.197
    22   6 C    3.850 --    23 C    1.643    21 C    1.197    35 H    0.996
    23   6 C    3.832 --    22 C    1.643    24 C    1.193    36 H    0.996
    24   6 C    3.951 --     2 C    1.379    25 N    1.279    23 C    1.193
    25   7 N    2.952 --    24 C    1.279    21 C    1.259     1 Cu   0.590
    26   1 H    1.039 --     2 C    0.998
    27   1 H    1.027 --     4 C    0.996
    28   1 H    1.026 --     5 C    0.996
    29   1 H    1.040 --     8 C    0.999
    30   1 H    1.026 --    10 C    0.995
    31   1 H    1.036 --    11 C    1.001
    32   1 H    1.036 --    16 C    1.001
    33   1 H    1.026 --    17 C    0.995
    34   1 H    1.040 --    20 C    0.999
    35   1 H    1.026 --    22 C    0.996
    36   1 H    1.027 --    23 C    0.996
    37  29 Cu   2.583 --    61 N    0.590    43 N    0.589    48 N    0.586
                            55 N    0.586
    38   6 C    3.784 --    60 C    1.379    39 C    1.379    62 H    0.998
    39   6 C    3.951 --    38 C    1.379    43 N    1.280    40 C    1.193
    40   6 C    3.832 --    41 C    1.643    39 C    1.193    63 H    0.996
    41   6 C    3.850 --    40 C    1.643    42 C    1.197    64 H    0.996
    42   6 C    3.936 --    44 C    1.392    43 N    1.259    41 C    1.197
    43   7 N    2.952 --    39 C    1.280    42 C    1.259    37 Cu   0.589
    44   6 C    3.837 --    42 C    1.392    45 C    1.387    65 H    0.999
    45   6 C    3.925 --    44 C    1.387    48 N    1.251    46 C    1.208
    46   6 C    3.838 --    47 C    1.621    45 C    1.208    66 H    0.995
    47   6 C    3.823 --    46 C    1.621    49 C    1.222    67 H    1.001
    48   7 N    2.970 --    49 C    1.307    45 C    1.251    37 Cu   0.586
    49   6 C    3.924 --    48 N    1.307    50 C    1.280    47 C    1.222
    50   6 C    3.802 --    51 C    1.281    49 C    1.280    78 C    1.229
    51   6 C    3.924 --    55 N    1.306    50 C    1.281    52 C    1.222
    52   6 C    3.823 --    53 C    1.621    51 C    1.222    68 H    1.001
    53   6 C    3.838 --    52 C    1.621    54 C    1.208    69 H    0.995
    54   6 C    3.925 --    56 C    1.386    55 N    1.251    53 C    1.208
    55   7 N    2.969 --    51 C    1.306    54 C    1.251    37 Cu   0.586
    56   6 C    3.837 --    57 C    1.392    54 C    1.386    70 H    0.999
    57   6 C    3.937 --    56 C    1.392    61 N    1.259    58 C    1.197
    58   6 C    3.850 --    59 C    1.643    57 C    1.197    71 H    0.996
    59   6 C    3.832 --    58 C    1.643    60 C    1.193    72 H    0.996
    60   6 C    3.951 --    38 C    1.379    61 N    1.279    59 C    1.193
    61   7 N    2.952 --    60 C    1.279    57 C    1.259    37 Cu   0.590
    62   1 H    1.039 --    38 C    0.998
    63   1 H    1.027 --    40 C    0.996
    64   1 H    1.026 --    41 C    0.996
    65   1 H    1.040 --    44 C    0.999
    66   1 H    1.026 --    46 C    0.995
    67   1 H    1.036 --    47 C    1.001
    68   1 H    1.036 --    52 C    1.001
    69   1 H    1.026 --    53 C    0.995
    70   1 H    1.040 --    56 C    0.999
    71   1 H    1.026 --    58 C    0.996
    72   1 H    1.027 --    59 C    0.996
    73   6 C    3.828 --    74 C    2.362    77 C    1.361    76 C    0.163
    74   6 C    3.828 --    73 C    2.362    75 C    1.361    78 C    0.163
    75   6 C    3.800 --    76 C    2.458    74 C    1.361
    76   6 C    3.762 --    75 C    2.458    14 C    1.229    73 C    0.163
    77   6 C    3.800 --    78 C    2.458    73 C    1.361
    78   6 C    3.762 --    77 C    2.458    50 C    1.229    74 C    0.163
 ---------------------------------------------------------------------------

Topologies differ in total number of bonds
Writing topology from bond orders to xtbtopo.mol

 dipole moment from electron density (au)
     X       Y       Z   
 -27.4668   0.0086  -0.0205  total (Debye):   69.814


           -------------------------------------------------
          | TOTAL ENERGY             -163.093434762678 Eh   |
          | GRADIENT NORM               0.080266104945 Eh/α |
          | HOMO-LUMO GAP               0.009331237230 eV   |
           -------------------------------------------------
########################################################################
[WARNING] Runtime exception occurred
-1- restart_readRestart: Dimension missmatch in restart file.
########################################################################

------------------------------------------------------------------------
 * finished run on 2022/07/30 at 04:18:37.223     
------------------------------------------------------------------------
 total:
 * wall-time:     0 d,  0 h,  0 min,  4.098 sec
 *  cpu-time:     0 d,  0 h,  0 min,  4.065 sec
 * ratio c/w:     0.992 speedup
 SCF:
 * wall-time:     0 d,  0 h,  0 min,  3.864 sec
 *  cpu-time:     0 d,  0 h,  0 min,  3.834 sec
 * ratio c/w:     0.992 speedup

