      -----------------------------------------------------------      
     |                   =====================                   |     
     |                           x T B                           |     
     |                   =====================                   |     
     |                         S. Grimme                         |     
     |          Mulliken Center for Theoretical Chemistry        |     
     |                    University of Bonn                     |     
      -----------------------------------------------------------      

   * xtb version 6.5.1 (b24c23e) compiled by 'conda@728c89f4b128' on 2022-07-12

   xtb is free software: you can redistribute it and/or modify it under
   the terms of the GNU Lesser General Public License as published by
   the Free Software Foundation, either version 3 of the License, or
   (at your option) any later version.
   
   xtb is distributed in the hope that it will be useful,
   but WITHOUT ANY WARRANTY; without even the implied warranty of
   MERCHANTABILITY or FITNESS FOR A PARTICULAR PURPOSE.  See the
   GNU Lesser General Public License for more details.
   
   Cite this work as:
   * C. Bannwarth, E. Caldeweyher, S. Ehlert, A. Hansen, P. Pracht,
     J. Seibert, S. Spicher, S. Grimme, WIREs Comput. Mol. Sci., 2020, 11,
     e01493. DOI: 10.1002/wcms.1493
   
   for GFN2-xTB:
   * C. Bannwarth, S. Ehlert and S. Grimme., J. Chem. Theory Comput., 2019,
     15, 1652-1671. DOI: 10.1021/acs.jctc.8b01176
   for GFN1-xTB:
   * S. Grimme, C. Bannwarth, P. Shushkov, J. Chem. Theory Comput., 2017,
     13, 1989-2009. DOI: 10.1021/acs.jctc.7b00118
   for GFN0-xTB:
   * P. Pracht, E. Caldeweyher, S. Ehlert, S. Grimme, ChemRxiv, 2019, preprint.
     DOI: 10.26434/chemrxiv.8326202.v1
   for GFN-FF:
   * S. Spicher and S. Grimme, Angew. Chem. Int. Ed., 2020, 59, 15665-15673.
     DOI: 10.1002/anie.202004239
   
   for ALPB and GBSA implicit solvation:
   * S. Ehlert, M. Stahn, S. Spicher, S. Grimme, J. Chem. Theory Comput.,
     2021, 17, 4250-4261. DOI: 10.1021/acs.jctc.1c00471
   
   for DFT-D4:
   * E. Caldeweyher, C. Bannwarth and S. Grimme, J. Chem. Phys., 2017,
     147, 034112. DOI: 10.1063/1.4993215
   * E. Caldeweyher, S. Ehlert, A. Hansen, H. Neugebauer, S. Spicher,
     C. Bannwarth and S. Grimme, J. Chem. Phys., 2019, 150, 154122.
     DOI: 10.1063/1.5090222
   * E. Caldeweyher, J.-M. Mewes, S. Ehlert and S. Grimme, Phys. Chem. Chem. Phys.
     2020, 22, 8499-8512. DOI: 10.1039/D0CP00502A
   
   for sTDA-xTB:
   * S. Grimme and C. Bannwarth, J. Chem. Phys., 2016, 145, 054103.
     DOI: 10.1063/1.4959605
   
   in the mass-spec context:
   * V. Asgeirsson, C. Bauer and S. Grimme, Chem. Sci., 2017, 8, 4879.
     DOI: 10.1039/c7sc00601b
   * J. Koopman and S. Grimme, ACS Omega 2019, 4, 12, 15120-15133.
     DOI: 10.1021/acsomega.9b02011
   
   for metadynamics refer to:
   * S. Grimme, J. Chem. Theory Comput., 2019, 155, 2847-2862
     DOI: 10.1021/acs.jctc.9b00143
   
   for SPH calculations refer to:
   * S. Spicher and S. Grimme, J. Chem. Theory Comput., 2021, 17, 1701-1714
     DOI: 10.1021/acs.jctc.0c01306
   
   with help from (in alphabetical order)
   P. Atkinson, C. Bannwarth, F. Bohle, G. Brandenburg, E. Caldeweyher
   M. Checinski, S. Dohm, S. Ehlert, S. Ehrlich, I. Gerasimov, C. Hölzer
   A. Katbashev, J. Koopman, C. Lavigne, S. Lehtola, F. März, M. Müller,
   F. Musil, H. Neugebauer, J. Pisarek, C. Plett, P. Pracht, F. Pultar,
   J. Seibert, P. Shushkov, S. Spicher, M. Stahn, M. Steiner, T. Strunk,
   J. Stückrath, T. Rose, and J. Unsleber
   
 * started run on 2022/07/30 at 09:19:01.270     

           -------------------------------------------------
          |                Calculation Setup                |
           -------------------------------------------------

          program call               : xtb xtbopt.xyz --gfn 1 --vipea
          hostname                   : cx3-15-13.cx3.hpc.ic.ac.uk
          coordinate file            : xtbopt.xyz
          omp threads                :                     1

   ID    Z sym.   atoms
    1   27 Co     1, 59, 141, 198
    2    6 C      2-6, 8-13, 15-19, 21-26, 28-33, 35-40, 60-64, 66-71, 73-77,
                  79-84, 86-91, 93-98, 117-140, 142-146, 148-153, 155-159,
                  161-166, 168-173, 175-180, 199-203, 205-210, 212-216,
                  218-223, 225-230, 232-237
    3    7 N      7, 14, 20, 27, 34, 41, 65, 72, 78, 85, 92, 99, 147, 154,
                  160, 167, 174, 181, 204, 211, 217, 224, 231, 238
    4    1 H      42-58, 100-116, 182-197, 239-254

           -------------------------------------------------
          |                 I P E A - x T B                 |
           -------------------------------------------------

        Reference                      10.1039/c7sc00601b
      * Hamiltonian:
        H0-scaling (s, p, d)           2.150000    2.300000    2.000000
        zeta-weighting                 0.000000
      * Dispersion:
        s8                             2.400000
        a1                             0.630000
        a2                             5.000000
        s9                             0.000000
      * Repulsion:
        kExp                           1.500000
        rExp                           1.000000
      * Coulomb:
        alpha                          1.000000
        third order                    atomic
        anisotropic                    false
      * Halogen bond correction:
        rad-scale                      1.300000
        damping                        0.440000


          ...................................................
          :                      SETUP                      :
          :.................................................:
          :  # basis functions                1092          :
          :  # atomic orbitals                1088          :
          :  # shells                          696          :
          :  # electrons                       862          :
          :  # halogen bonds                     0          :
          :  max. iterations                   250          :
          :  Hamiltonian                  GFN1-xTB          :
          :  restarted?                      false          :
          :  GBSA solvation                  false          :
          :  PC potential                    false          :
          :  electronic temp.          300.0000000     K    :
          :  accuracy                    1.0000000          :
          :  -> integral cutoff          0.2500000E+02      :
          :  -> integral neglect         0.1000000E-07      :
          :  -> SCF convergence          0.1000000E-05 Eh   :
          :  -> wf. convergence          0.2000000E-04 e    :
          :  Broyden damping             0.4000000          :
          ...................................................

 iter      E             dE          RMSdq      gap      omega  full diag
   1   -534.8986275 -0.534899E+03  0.109E+01    0.09       0.0  T
   2   -511.2677164  0.236309E+02  0.100E+01    0.00       1.0  T
   3   -509.4685384  0.179918E+01  0.770E+00    0.05       1.0  T
   4   -289.9781413  0.219490E+03  0.840E+00    0.03       1.0  T
   5   1218.8643446  0.150884E+04  0.157E+01    0.11       1.0  T
   6   -428.8469574 -0.164771E+04  0.747E+00    0.06       1.0  T
   7   -526.5151456 -0.976682E+02  0.422E+00    0.04       1.0  T
   8   -530.7781325 -0.426299E+01  0.331E+00    0.01       1.0  T
   9   -535.7241526 -0.494602E+01  0.279E+00    0.29       1.0  T
  10   -536.2771314 -0.552979E+00  0.247E+00    0.24       1.0  T
  11   -536.5553937 -0.278262E+00  0.210E+00    0.16       1.0  T
  12   -535.8841728  0.671221E+00  0.213E+00    0.00       1.0  T
  13   -535.9170257 -0.328528E-01  0.201E+00    0.00       1.0  T
  14   -536.1750115 -0.257986E+00  0.168E+00    0.00       1.0  T
  15   -536.0452194  0.129792E+00  0.167E+00    0.01       1.0  T
  16   -537.2972718 -0.125205E+01  0.964E-01    0.03       1.0  T
  17   -533.8065712  0.349070E+01  0.306E+00    0.02       1.0  T
  18   -536.9089345 -0.310236E+01  0.130E+00    0.05       1.0  T
  19   -537.2412144 -0.332280E+00  0.715E-01    0.03       1.0  T
  20   -535.9656951  0.127552E+01  0.191E+00    0.00       1.0  T
  21   -537.3433857 -0.137769E+01  0.107E+00    0.08       1.0  T
  22   -537.5351736 -0.191788E+00  0.717E-01    0.01       1.0  T
  23   -537.1297857  0.405388E+00  0.138E+00    0.11       1.0  T
  24   -537.3600277 -0.230242E+00  0.117E+00    0.04       1.0  T
  25   -537.3926752 -0.326475E-01  0.106E+00    0.02       1.0  T
  26   -537.1358581  0.256817E+00  0.136E+00    0.11       1.0  T
  27   -537.1704124 -0.345544E-01  0.130E+00    0.11       1.0  T
  28   -537.3804718 -0.210059E+00  0.107E+00    0.06       1.0  T
  29   -537.5830484 -0.202577E+00  0.783E-01    0.01       1.0  T
  30   -537.6289107 -0.458623E-01  0.608E-01    0.00       1.0  T
  31   -537.5923886  0.365221E-01  0.729E-01    0.04       1.0  T
  32   -537.7195945 -0.127206E+00  0.421E-01    0.03       1.0  T
  33   -537.7119928  0.760177E-02  0.447E-01    0.00       1.0  T
  34   -537.7544243 -0.424315E-01  0.296E-01    0.00       1.0  T
  35   -537.7756312 -0.212069E-01  0.202E-01    0.00       1.0  T
  36   -537.7637861  0.118450E-01  0.250E-01    0.01       1.0  T
  37   -537.7725032 -0.871709E-02  0.207E-01    0.01       1.0  T
  38   -537.7783774 -0.587415E-02  0.165E-01    0.01       1.0  T
  39   -537.7758715  0.250583E-02  0.185E-01    0.01       1.0  T
  40   -537.7852559 -0.938437E-02  0.973E-02    0.01       1.0  T
  41   -537.7867971 -0.154118E-02  0.720E-02    0.00       1.0  T
  42   -537.7881978 -0.140076E-02  0.417E-02    0.00       1.0  T
  43   -537.7884091 -0.211245E-03  0.319E-02    0.00       1.0  T
  44   -537.7883990  0.100767E-04  0.336E-02    0.00       1.0  T
  45   -537.7886281 -0.229134E-03  0.206E-02    0.00       1.0  T
  46   -537.7886371 -0.894376E-05  0.201E-02    0.00       1.0  T
  47   -537.7886932 -0.561531E-04  0.157E-02    0.00       1.0  T
  48   -537.7887518 -0.585893E-04  0.854E-03    0.00       1.0  T
  49   -537.7887629 -0.110300E-04  0.646E-03    0.00       1.0  T
  50   -537.7887766 -0.137499E-04  0.198E-03    0.00       3.2  T
  51   -537.7887761  0.539073E-06  0.196E-03    0.00       3.2  T
  52   -537.7887774 -0.129606E-05  0.102E-03    0.00       6.2  T
  53   -537.7887776 -0.280727E-06  0.702E-04    0.00       8.9  T
  54   -537.7887776  0.430517E-07  0.790E-04    0.00       7.9  T
  55   -537.7887778 -0.178658E-06  0.294E-04    0.00      21.4  T
  56   -537.7887778 -0.130426E-07  0.135E-04    0.00      46.6  T
  57   -537.7887778 -0.299588E-08  0.146E-04    0.00      42.9  T

   *** convergence criteria satisfied after 57 iterations ***

         #    Occupation            Energy/Eh            Energy/eV
      -------------------------------------------------------------
         1        2.0000           -1.0366155             -28.2077
       ...           ...                  ...                  ...
       425        1.9998           -0.3730208             -10.1504
       426        1.9998           -0.3730056             -10.1500
       427        1.9998           -0.3730040             -10.1500
       428        1.9998           -0.3728962             -10.1470
       429        1.9998           -0.3728128             -10.1448
       430        1.0247           -0.3641806              -9.9099
       431        1.0073           -0.3641476              -9.9090 (HOMO)
       432        0.9860           -0.3641071              -9.9079 (LUMO)
       433        0.9837           -0.3641028              -9.9077
       434                         -0.3291897              -8.9577
       435                         -0.3224387              -8.7740
       436                         -0.3169851              -8.6256
       ...                                ...                  ...
      1088                        515.9089158           14038.5962
      -------------------------------------------------------------
                  HL-Gap            0.0000405 Eh            0.0011 eV
             Fermi-level           -0.3641337 Eh           -9.9086 eV

 SCC (total)                   0 d,  0 h,  0 min, 45.812 sec
 SCC setup                      ...        0 min,  0.016 sec (  0.034%)
 Dispersion                     ...        0 min,  0.020 sec (  0.043%)
 classical contributions        ...        0 min,  0.005 sec (  0.011%)
 integral evaluation            ...        0 min,  1.343 sec (  2.932%)
 iterations                     ...        0 min, 41.399 sec ( 90.367%)
 molecular gradient             ...        0 min,  2.842 sec (  6.203%)
 printout                       ...        0 min,  0.188 sec (  0.410%)

         :::::::::::::::::::::::::::::::::::::::::::::::::::::
         ::                     SUMMARY                     ::
         :::::::::::::::::::::::::::::::::::::::::::::::::::::
         :: total energy            -526.268174076044 Eh    ::
         :: gradient norm              0.106170802455 Eh/a0 ::
         :: HOMO-LUMO gap              0.001102390693 eV    ::
         ::.................................................::
         :: SCC energy              -537.788777796976 Eh    ::
         :: -> electrostatic           0.376444338520 Eh    ::
         :: repulsion energy          11.751900990396 Eh    ::
         :: dispersion energy         -0.231297269464 Eh    ::
         :: halogen bond corr.         0.000000000000 Eh    ::
         :: add. restraining           0.000000000000 Eh    ::
         :: total charge               0.000000000002 e     ::
         :::::::::::::::::::::::::::::::::::::::::::::::::::::

           ------------------------------------------------- 
          |        vertical delta SCC IP calculation        |
           ------------------------------------------------- 
   1   -537.3801389 -0.537380E+03  0.277E-01    0.00       0.0  T
   2   -537.2052790  0.174860E+00  0.761E-01    0.00       1.0  T
   3   -536.3430859  0.862193E+00  0.158E+00    0.16       1.0  T
   4   -537.1268545 -0.783769E+00  0.807E-01    0.00       1.0  T
   5   -537.1322340 -0.537955E-02  0.776E-01    0.06       1.0  T
   6   -537.1291453  0.308873E-02  0.780E-01    0.04       1.0  T
   7   -537.3001265 -0.170981E+00  0.477E-01    0.01       1.0  T
   8   -537.3517660 -0.516395E-01  0.320E-01    0.01       1.0  T
   9   -537.3943275 -0.425616E-01  0.101E-01    0.01       1.0  T
  10   -537.3940422  0.285324E-03  0.101E-01    0.00       1.0  T
  11   -537.3872445  0.679773E-02  0.155E-01    0.01       1.0  T
  12   -537.3903229 -0.307837E-02  0.131E-01    0.00       1.0  T
  13   -537.3952613 -0.493841E-02  0.781E-02    0.01       1.0  T
  14   -537.3978675 -0.260623E-02  0.195E-02    0.00       1.0  T
  15   -537.3979719 -0.104391E-03  0.115E-02    0.00       1.0  T
  16   -537.3979974 -0.255143E-04  0.883E-03    0.00       1.0  T
  17   -537.3980268 -0.293955E-04  0.348E-03    0.00       1.8  T
  18   -537.3980279 -0.112310E-05  0.313E-03    0.00       2.0  T
  19   -537.3980307 -0.275189E-05  0.198E-03    0.00       3.2  T
  20   -537.3980322 -0.151499E-05  0.732E-04    0.00       8.6  T
  21   -537.3980324 -0.191034E-06  0.351E-04    0.00      17.9  T
  22   -537.3980324 -0.147611E-07  0.298E-04    0.00      21.1  T
  23   -537.3980324 -0.392131E-07  0.345E-05    0.00     181.7  T
  24   -537.3980324 -0.314913E-09  0.204E-05    0.00     307.7  T
     SCC iter.                  ...        0 min, 14.263 sec
     gradient                   ...        0 min,  2.750 sec
------------------------------------------------------------------------
empirical IP shift (eV):    4.8455
delta SCC IP (eV):    5.7872
------------------------------------------------------------------------
           ------------------------------------------------- 
          |        vertical delta SCC EA calculation        |
           ------------------------------------------------- 
   1   -538.0631613 -0.538063E+03  0.535E-01    0.00       0.0  T
   2   -537.8751531  0.188008E+00  0.787E-01    0.01       1.0  T
   3   -536.9763696  0.898784E+00  0.165E+00    0.09       1.0  T
   4   -537.8452094 -0.868840E+00  0.819E-01    0.06       1.0  T
   5   -537.9202228 -0.750134E-01  0.709E-01    0.08       1.0  T
   6   -538.0096478 -0.894250E-01  0.559E-01    0.02       1.0  T
   7   -537.9881468  0.215010E-01  0.576E-01    0.03       1.0  T
   8   -537.9447838  0.433630E-01  0.664E-01    0.01       1.0  T
   9   -538.0920809 -0.147297E+00  0.286E-01    0.03       1.0  T
  10   -538.0926383 -0.557402E-03  0.286E-01    0.00       1.0  T
  11   -538.1045304 -0.118922E-01  0.229E-01    0.00       1.0  T
  12   -538.1186336 -0.141031E-01  0.139E-01    0.00       1.0  T
  13   -538.1237415 -0.510797E-02  0.858E-02    0.00       1.0  T
  14   -538.1265711 -0.282957E-02  0.260E-02    0.00       1.0  T
  15   -538.1265747 -0.355695E-05  0.260E-02    0.00       1.0  T
  16   -538.1268583 -0.283682E-03  0.221E-03    0.00       2.8  T
  17   -538.1268321  0.262220E-04  0.817E-03    0.00       1.0  T
  18   -538.1268509 -0.187374E-04  0.477E-03    0.00       1.3  T
  19   -538.1268604 -0.953568E-05  0.312E-04    0.00      20.1  T
  20   -538.1268600  0.353391E-06  0.970E-04    0.00       6.5  T
  21   -538.1268604 -0.367197E-06  0.266E-04    0.00      23.6  T
  22   -538.1268604 -0.204215E-07  0.148E-04    0.00      42.3  T
  23   -538.1268604 -0.859313E-08  0.388E-05    0.00     161.7  T
     SCC iter.                  ...        0 min, 19.332 sec
     gradient                   ...        0 min,  2.225 sec
------------------------------------------------------------------------
empirical EA shift (eV):    4.8455
delta SCC EA (eV):    4.3542
------------------------------------------------------------------------
           -------------------------------------------------
          |                Property Printout                |
           -------------------------------------------------

    * Orbital Energies and Occupations

         #    Occupation            Energy/Eh            Energy/eV
      -------------------------------------------------------------
         1        2.0000           -0.9946205             -27.0650
       ...           ...                  ...                  ...
       420        2.0000           -0.3233331              -8.7983
       421        2.0000           -0.3233325              -8.7983
       422        2.0000           -0.3231695              -8.7939
       423        2.0000           -0.3231623              -8.7937
       424        1.9999           -0.3231273              -8.7927
       425        1.9999           -0.3229291              -8.7873
       426        1.9999           -0.3228619              -8.7855
       427        1.9999           -0.3228552              -8.7853
       428        1.9999           -0.3227906              -8.7836
       429        1.9999           -0.3227826              -8.7834
       430        1.2653           -0.3134858              -8.5304
       431        1.2552           -0.3134639              -8.5298
       432        1.2442           -0.3134400              -8.5291 (HOMO)
       433        1.2359           -0.3134221              -8.5286 (LUMO)
       434                         -0.2885996              -7.8532
       435                         -0.2821832              -7.6786
       436                         -0.2771454              -7.5415
       437                         -0.2731387              -7.4325
       438                         -0.2730738              -7.4307
       439                         -0.2727157              -7.4210
       440                         -0.2722019              -7.4070
       441                         -0.2721800              -7.4064
       442                         -0.2539296              -6.9098
       443                         -0.2479604              -6.7473
       ...                                ...                  ...
      1088                        515.9480909           14039.6622
      -------------------------------------------------------------
                  HL-Gap            0.0000179 Eh            0.0005 eV
             Fermi-level           -0.3129307 Eh           -8.5153 eV

  Mulliken/CM5 charges         n(s)   n(p)   n(d)
     1Co    0.32347  0.73233   0.325  0.981  7.371
     2C    -0.01955 -0.06077   1.086  2.933  0.000
     3C     0.05596  0.11639   1.111  2.833  0.000
     4C    -0.03836 -0.08483   1.085  2.954  0.000
     5C    -0.03738 -0.08356   1.077  2.960  0.000
     6C     0.05804  0.12202   1.106  2.836  0.000
     7N    -0.21486 -0.47611   1.317  3.897  0.000
     8C     0.00815  0.01359   1.082  2.910  0.000
     9C     0.01594  0.00724   1.089  2.895  0.000
    10C    -0.01688 -0.07013   1.077  2.940  0.000
    11C    -0.01218 -0.06425   1.092  2.920  0.000
    12C     0.01568  0.01194   1.076  2.908  0.000
    13C     0.11225  0.22978   1.210  2.678  0.000
    14N    -0.26793 -0.39251   1.544  3.724  0.000
    15C    -0.01166 -0.06372   1.092  2.920  0.000
    16C    -0.01640 -0.06960   1.077  2.939  0.000
    17C     0.05718  0.12044   1.104  2.839  0.000
    18C    -0.03636 -0.08249   1.077  2.960  0.000
    19C    -0.03671 -0.08228   1.083  2.954  0.000
    20N    -0.21315 -0.47409   1.318  3.895  0.000
    21C     0.06145  0.12655   1.116  2.822  0.000
    22C     0.01875  0.02581   1.079  2.902  0.000
    23C     0.06153  0.12674   1.116  2.822  0.000
    24C    -0.03671 -0.08229   1.082  2.954  0.000
    25C    -0.03628 -0.08246   1.077  2.960  0.000
    26C     0.05710  0.12023   1.104  2.839  0.000
    27N    -0.21322 -0.47399   1.318  3.895  0.000
    28C     0.00813  0.01357   1.082  2.910  0.000
    29C     0.01592  0.00723   1.089  2.895  0.000
    30C    -0.01699 -0.07020   1.077  2.940  0.000
    31C    -0.01222 -0.06428   1.092  2.920  0.000
    32C     0.01566  0.01192   1.076  2.908  0.000
    33C     0.11225  0.22982   1.210  2.678  0.000
    34N    -0.26794 -0.39257   1.544  3.724  0.000
    35C    -0.01166 -0.06372   1.092  2.920  0.000
    36C    -0.01629 -0.06954   1.077  2.940  0.000
    37C     0.05814  0.12225   1.106  2.836  0.000
    38C    -0.03743 -0.08357   1.077  2.960  0.000
    39C    -0.03833 -0.08481   1.085  2.953  0.000
    40C     0.05589  0.11620   1.111  2.833  0.000
    41N    -0.21475 -0.47624   1.317  3.897  0.000
    42H     0.02839  0.08728   0.972  0.000  0.000
    43H     0.03044  0.08706   0.970  0.000  0.000
    44H     0.02216  0.08092   0.978  0.000  0.000
    45H     0.02886  0.08693   0.971  0.000  0.000
    46H     0.04096  0.09822   0.959  0.000  0.000
    47H     0.04192  0.09918   0.958  0.000  0.000
    48H     0.02955  0.08758   0.970  0.000  0.000
    49H     0.02342  0.08220   0.977  0.000  0.000
    50H     0.02695  0.08498   0.973  0.000  0.000
    51H     0.02702  0.08502   0.973  0.000  0.000
    52H     0.02335  0.08214   0.977  0.000  0.000
    53H     0.02877  0.08681   0.971  0.000  0.000
    54H     0.04090  0.09816   0.959  0.000  0.000
    55H     0.04196  0.09922   0.958  0.000  0.000
    56H     0.02959  0.08767   0.970  0.000  0.000
    57H     0.02224  0.08100   0.978  0.000  0.000
    58H     0.03039  0.08700   0.970  0.000  0.000
    59Co    0.32321  0.73181   0.325  0.982  7.371
    60C    -0.01957 -0.06081   1.086  2.934  0.000
    61C     0.05605  0.11645   1.111  2.833  0.000
    62C    -0.03829 -0.08477   1.085  2.954  0.000
    63C    -0.03732 -0.08350   1.077  2.960  0.000
    64C     0.05810  0.12200   1.106  2.836  0.000
    65N    -0.21500 -0.47593   1.317  3.898  0.000
    66C     0.00811  0.01354   1.082  2.910  0.000
    67C     0.01594  0.00724   1.089  2.895  0.000
    68C    -0.01690 -0.07015   1.077  2.940  0.000
    69C    -0.01220 -0.06426   1.092  2.920  0.000
    70C     0.01564  0.01191   1.076  2.908  0.000
    71C     0.11226  0.22983   1.210  2.678  0.000
    72N    -0.26796 -0.39260   1.544  3.724  0.000
    73C    -0.01167 -0.06373   1.092  2.920  0.000
    74C    -0.01639 -0.06960   1.077  2.939  0.000
    75C     0.05730  0.12061   1.104  2.839  0.000
    76C    -0.03642 -0.08254   1.076  2.960  0.000
    77C    -0.03668 -0.08226   1.083  2.954  0.000
    78N    -0.21326 -0.47417   1.318  3.895  0.000
    79C     0.06127  0.12620   1.116  2.823  0.000
    80C     0.01889  0.02594   1.079  2.902  0.000
    81C     0.06141  0.12646   1.116  2.823  0.000
    82C    -0.03665 -0.08222   1.083  2.954  0.000
    83C    -0.03632 -0.08249   1.077  2.960  0.000
    84C     0.05724  0.12042   1.104  2.839  0.000
    85N    -0.21339 -0.47382   1.318  3.895  0.000
    86C     0.00810  0.01354   1.082  2.910  0.000
    87C     0.01595  0.00724   1.089  2.895  0.000
    88C    -0.01699 -0.07019   1.077  2.940  0.000
    89C    -0.01223 -0.06429   1.092  2.920  0.000
    90C     0.01564  0.01190   1.076  2.908  0.000
    91C     0.11224  0.22980   1.210  2.678  0.000
    92N    -0.26800 -0.39261   1.544  3.724  0.000
    93C    -0.01164 -0.06372   1.092  2.920  0.000
    94C    -0.01629 -0.06955   1.077  2.940  0.000
    95C     0.05815  0.12218   1.106  2.836  0.000
    96C    -0.03740 -0.08354   1.077  2.960  0.000
    97C    -0.03831 -0.08479   1.085  2.953  0.000
    98C     0.05595  0.11625   1.111  2.833  0.000
    99N    -0.21482 -0.47625   1.317  3.897  0.000
   100H     0.02842  0.08732   0.972  0.000  0.000
   101H     0.03047  0.08709   0.970  0.000  0.000
   102H     0.02219  0.08097   0.978  0.000  0.000
   103H     0.02886  0.08693   0.971  0.000  0.000
   104H     0.04093  0.09819   0.959  0.000  0.000
   105H     0.04194  0.09920   0.958  0.000  0.000
   106H     0.02956  0.08758   0.970  0.000  0.000
   107H     0.02336  0.08215   0.977  0.000  0.000
   108H     0.02692  0.08495   0.973  0.000  0.000
   109H     0.02699  0.08501   0.973  0.000  0.000
   110H     0.02331  0.08211   0.977  0.000  0.000
   111H     0.02876  0.08679   0.971  0.000  0.000
   112H     0.04089  0.09814   0.959  0.000  0.000
   113H     0.04199  0.09925   0.958  0.000  0.000
   114H     0.02966  0.08771   0.970  0.000  0.000
   115H     0.02228  0.08103   0.978  0.000  0.000
   116H     0.03040  0.08701   0.970  0.000  0.000
   117C    -0.01307 -0.01460   1.094  2.919  0.000
   118C    -0.01791 -0.01857   1.064  2.954  0.000
   119C    -0.01127 -0.01135   1.077  2.934  0.000
   120C    -0.01252 -0.01253   1.076  2.937  0.000
   121C    -0.01256 -0.01257   1.075  2.937  0.000
   122C    -0.01091 -0.01099   1.077  2.934  0.000
   123C    -0.01764 -0.01828   1.064  2.954  0.000
   124C    -0.01250 -0.01400   1.094  2.918  0.000
   125C    -0.01249 -0.01398   1.094  2.918  0.000
   126C    -0.01736 -0.01801   1.064  2.953  0.000
   127C    -0.01072 -0.01079   1.077  2.933  0.000
   128C    -0.01214 -0.01214   1.075  2.937  0.000
   129C    -0.01214 -0.01214   1.075  2.937  0.000
   130C    -0.01072 -0.01080   1.077  2.933  0.000
   131C    -0.01737 -0.01802   1.064  2.953  0.000
   132C    -0.01251 -0.01401   1.094  2.918  0.000
   133C    -0.01228 -0.01378   1.095  2.918  0.000
   134C    -0.01748 -0.01813   1.064  2.953  0.000
   135C    -0.01061 -0.01069   1.078  2.933  0.000
   136C    -0.01233 -0.01234   1.076  2.937  0.000
   137C    -0.01227 -0.01227   1.076  2.937  0.000
   138C    -0.01099 -0.01107   1.078  2.933  0.000
   139C    -0.01773 -0.01839   1.064  2.954  0.000
   140C    -0.01285 -0.01440   1.095  2.918  0.000
   141Co    0.32945  0.73892   0.322  0.977  7.371
   142C     0.01911  0.02624   1.080  2.901  0.000
   143C     0.06150  0.12675   1.116  2.822  0.000
   144C    -0.03688 -0.08244   1.083  2.954  0.000
   145C    -0.03608 -0.08222   1.077  2.959  0.000
   146C     0.05714  0.12049   1.103  2.840  0.000
   147N    -0.21243 -0.47417   1.317  3.895  0.000
   148C     0.01054  0.01598   1.083  2.906  0.000
   149C     0.01604  0.00736   1.089  2.895  0.000
   150C    -0.01632 -0.06952   1.077  2.939  0.000
   151C    -0.01161 -0.06367   1.092  2.920  0.000
   152C     0.01616  0.01242   1.077  2.907  0.000
   153C     0.11252  0.23006   1.210  2.678  0.000
   154N    -0.26721 -0.39181   1.544  3.723  0.000
   155C    -0.01156 -0.06362   1.092  2.920  0.000
   156C    -0.01625 -0.06948   1.077  2.940  0.000
   157C     0.05718  0.12042   1.103  2.839  0.000
   158C    -0.03590 -0.08207   1.077  2.959  0.000
   159C    -0.03666 -0.08223   1.083  2.954  0.000
   160N    -0.21246 -0.47365   1.317  3.895  0.000
   161C     0.06177  0.12711   1.116  2.822  0.000
   162C     0.01921  0.02633   1.080  2.901  0.000
   163C     0.06162  0.12691   1.116  2.822  0.000
   164C    -0.03674 -0.08231   1.083  2.954  0.000
   165C    -0.03600 -0.08214   1.077  2.959  0.000
   166C     0.05715  0.12046   1.103  2.840  0.000
   167N    -0.21242 -0.47407   1.317  3.895  0.000
   168C     0.01054  0.01598   1.083  2.906  0.000
   169C     0.01603  0.00736   1.089  2.895  0.000
   170C    -0.01629 -0.06952   1.077  2.940  0.000
   171C    -0.01162 -0.06369   1.092  2.920  0.000
   172C     0.01616  0.01242   1.077  2.907  0.000
   173C     0.11253  0.23010   1.209  2.678  0.000
   174N    -0.26719 -0.39182   1.544  3.723  0.000
   175C    -0.01155 -0.06361   1.092  2.920  0.000
   176C    -0.01627 -0.06948   1.077  2.939  0.000
   177C     0.05717  0.12044   1.103  2.839  0.000
   178C    -0.03597 -0.08213   1.077  2.959  0.000
   179C    -0.03680 -0.08237   1.083  2.954  0.000
   180C     0.06164  0.12695   1.116  2.822  0.000
   181N    -0.21247 -0.47373   1.317  3.895  0.000
   182H     0.02687  0.08485   0.973  0.000  0.000
   183H     0.02347  0.08221   0.977  0.000  0.000
   184H     0.02953  0.08760   0.970  0.000  0.000
   185H     0.04194  0.09920   0.958  0.000  0.000
   186H     0.04211  0.09938   0.958  0.000  0.000
   187H     0.02974  0.08783   0.970  0.000  0.000
   188H     0.02359  0.08235   0.976  0.000  0.000
   189H     0.02720  0.08519   0.973  0.000  0.000
   190H     0.02713  0.08510   0.973  0.000  0.000
   191H     0.02361  0.08235   0.976  0.000  0.000
   192H     0.02959  0.08769   0.970  0.000  0.000
   193H     0.04194  0.09920   0.958  0.000  0.000
   194H     0.04211  0.09937   0.958  0.000  0.000
   195H     0.02967  0.08773   0.970  0.000  0.000
   196H     0.02346  0.08222   0.977  0.000  0.000
   197H     0.02694  0.08493   0.973  0.000  0.000
   198Co    0.32920  0.73844   0.322  0.977  7.371
   199C     0.01920  0.02631   1.080  2.901  0.000
   200C     0.06175  0.12704   1.116  2.822  0.000
   201C    -0.03665 -0.08221   1.083  2.954  0.000
   202C    -0.03590 -0.08206   1.077  2.959  0.000
   203C     0.05723  0.12047   1.103  2.839  0.000
   204N    -0.21249 -0.47371   1.317  3.895  0.000
   205C     0.01046  0.01589   1.083  2.906  0.000
   206C     0.01604  0.00736   1.089  2.895  0.000
   207C    -0.01629 -0.06951   1.077  2.939  0.000
   208C    -0.01158 -0.06364   1.092  2.920  0.000
   209C     0.01613  0.01239   1.077  2.907  0.000
   210C     0.11252  0.23009   1.210  2.678  0.000
   211N    -0.26725 -0.39187   1.544  3.723  0.000
   212C    -0.01161 -0.06368   1.092  2.920  0.000
   213C    -0.01629 -0.06951   1.077  2.939  0.000
   214C     0.05724  0.12058   1.103  2.839  0.000
   215C    -0.03609 -0.08224   1.077  2.959  0.000
   216C    -0.03682 -0.08239   1.083  2.954  0.000
   217N    -0.21256 -0.47399   1.317  3.895  0.000
   218C     0.06143  0.12659   1.116  2.823  0.000
   219C     0.01922  0.02633   1.080  2.901  0.000
   220C     0.06144  0.12656   1.116  2.823  0.000
   221C    -0.03679 -0.08236   1.083  2.954  0.000
   222C    -0.03608 -0.08223   1.077  2.959  0.000
   223C     0.05729  0.12068   1.103  2.839  0.000
   224N    -0.21254 -0.47385   1.317  3.895  0.000
   225C     0.01045  0.01588   1.083  2.906  0.000
   226C     0.01605  0.00737   1.089  2.895  0.000
   227C    -0.01626 -0.06948   1.077  2.939  0.000
   228C    -0.01157 -0.06363   1.092  2.920  0.000
   229C     0.01613  0.01239   1.077  2.907  0.000
   230C     0.11251  0.23005   1.210  2.678  0.000
   231N    -0.26728 -0.39187   1.544  3.723  0.000
   232C    -0.01162 -0.06368   1.092  2.920  0.000
   233C    -0.01632 -0.06954   1.077  2.939  0.000
   234C     0.05718  0.12039   1.103  2.839  0.000
   235C    -0.03593 -0.08209   1.077  2.959  0.000
   236C    -0.03668 -0.08224   1.083  2.954  0.000
   237C     0.06174  0.12707   1.116  2.822  0.000
   238N    -0.21252 -0.47385   1.317  3.895  0.000
   239H     0.02717  0.08516   0.973  0.000  0.000
   240H     0.02364  0.08239   0.976  0.000  0.000
   241H     0.02969  0.08777   0.970  0.000  0.000
   242H     0.04208  0.09934   0.958  0.000  0.000
   243H     0.04197  0.09923   0.958  0.000  0.000
   244H     0.02958  0.08766   0.970  0.000  0.000
   245H     0.02341  0.08217   0.977  0.000  0.000
   246H     0.02688  0.08486   0.973  0.000  0.000
   247H     0.02685  0.08485   0.973  0.000  0.000
   248H     0.02341  0.08217   0.977  0.000  0.000
   249H     0.02968  0.08775   0.970  0.000  0.000
   250H     0.04208  0.09934   0.958  0.000  0.000
   251H     0.04194  0.09920   0.958  0.000  0.000
   252H     0.02960  0.08767   0.970  0.000  0.000
   253H     0.02362  0.08238   0.976  0.000  0.000
   254H     0.02720  0.08519   0.973  0.000  0.000

Wiberg/Mayer (AO) data.
largest (>0.10) Wiberg bond orders for each atom

 ---------------------------------------------------------------------------
     #   Z sym  total        # sym  WBO       # sym  WBO       # sym  WBO
 ---------------------------------------------------------------------------
     1  27 Co   3.667 --    41 N    0.713     7 N    0.713    20 N    0.708
                            27 N    0.708
     2   6 C    3.840 --    40 C    1.394     3 C    1.392    42 H    0.996
     3   6 C    3.955 --     2 C    1.392     7 N    1.244     4 C    1.199
     4   6 C    3.855 --     5 C    1.644     3 C    1.199    43 H    0.993
     5   6 C    3.836 --     4 C    1.644     6 C    1.204    44 H    0.998
     6   6 C    3.932 --     8 C    1.361     7 N    1.249     5 C    1.204
     7   7 N    2.992 --     6 C    1.249     3 C    1.244     1 Co   0.713
     8   6 C    3.842 --    17 C    1.367     6 C    1.361     9 C    1.055
     9   6 C    3.867 --    10 C    1.415    16 C    1.415     8 C    1.055
    10   6 C    3.865 --    11 C    1.464     9 C    1.415    45 H    0.987
    11   6 C    3.906 --    10 C    1.464    12 C    1.382    46 H    0.985
    12   6 C    3.905 --    11 C    1.382    15 C    1.382    13 C    1.125
    13   6 C    4.102 --    14 N    2.962    12 C    1.125
    14   7 N    2.986 --    13 C    2.962
    15   6 C    3.906 --    16 C    1.464    12 C    1.382    47 H    0.985
    16   6 C    3.864 --    15 C    1.464     9 C    1.415    48 H    0.987
    17   6 C    3.923 --     8 C    1.367    20 N    1.239    18 C    1.209
    18   6 C    3.830 --    19 C    1.632    17 C    1.209    49 H    0.998
    19   6 C    3.850 --    18 C    1.632    21 C    1.219    50 H    0.998
    20   7 N    2.999 --    21 C    1.266    17 C    1.239     1 Co   0.708
    21   6 C    3.931 --    22 C    1.304    20 N    1.266    19 C    1.219
    22   6 C    3.870 --    21 C    1.304    23 C    1.303   117 C    1.214
    23   6 C    3.931 --    22 C    1.303    27 N    1.268    24 C    1.219
    24   6 C    3.847 --    25 C    1.632    23 C    1.219    51 H    0.998
    25   6 C    3.830 --    24 C    1.632    26 C    1.208    52 H    0.998
    26   6 C    3.923 --    28 C    1.370    27 N    1.237    25 C    1.208
    27   7 N    2.999 --    23 C    1.268    26 C    1.237     1 Co   0.708
    28   6 C    3.842 --    26 C    1.370    37 C    1.358    29 C    1.055
    29   6 C    3.867 --    36 C    1.415    30 C    1.415    28 C    1.055
    30   6 C    3.864 --    31 C    1.464    29 C    1.415    53 H    0.987
    31   6 C    3.906 --    30 C    1.464    32 C    1.382    54 H    0.985
    32   6 C    3.905 --    35 C    1.382    31 C    1.382    33 C    1.125
    33   6 C    4.102 --    34 N    2.962    32 C    1.125
    34   7 N    2.986 --    33 C    2.962
    35   6 C    3.906 --    36 C    1.463    32 C    1.382    55 H    0.985
    36   6 C    3.865 --    35 C    1.463    29 C    1.415    56 H    0.987
    37   6 C    3.932 --    28 C    1.358    41 N    1.252    38 C    1.204
    38   6 C    3.835 --    39 C    1.643    37 C    1.204    57 H    0.998
    39   6 C    3.857 --    38 C    1.643    40 C    1.198    58 H    0.993
    40   6 C    3.955 --     2 C    1.394    41 N    1.242    39 C    1.198
    41   7 N    2.992 --    37 C    1.252    40 C    1.242     1 Co   0.713
    42   1 H    1.035 --     2 C    0.996
    43   1 H    1.026 --     4 C    0.993
    44   1 H    1.042 --     5 C    0.998
    45   1 H    1.053 --    10 C    0.987
    46   1 H    1.038 --    11 C    0.985
    47   1 H    1.037 --    15 C    0.985
    48   1 H    1.053 --    16 C    0.987
    49   1 H    1.041 --    18 C    0.998
    50   1 H    1.037 --    19 C    0.998
    51   1 H    1.037 --    24 C    0.998
    52   1 H    1.041 --    25 C    0.998
    53   1 H    1.053 --    30 C    0.987
    54   1 H    1.038 --    31 C    0.985
    55   1 H    1.037 --    35 C    0.985
    56   1 H    1.054 --    36 C    0.987
    57   1 H    1.041 --    38 C    0.998
    58   1 H    1.026 --    39 C    0.993
    59  27 Co   3.668 --    65 N    0.713    99 N    0.713    85 N    0.709
                            78 N    0.709
    60   6 C    3.840 --    98 C    1.394    61 C    1.393   100 H    0.996
    61   6 C    3.955 --    60 C    1.393    65 N    1.244    62 C    1.198
    62   6 C    3.855 --    63 C    1.644    61 C    1.198   101 H    0.993
    63   6 C    3.836 --    62 C    1.644    64 C    1.203   102 H    0.998
    64   6 C    3.932 --    66 C    1.363    65 N    1.249    63 C    1.203
    65   7 N    2.992 --    64 C    1.249    61 C    1.244    59 Co   0.713
    66   6 C    3.843 --    75 C    1.366    64 C    1.363    67 C    1.055
    67   6 C    3.867 --    68 C    1.415    74 C    1.415    66 C    1.055
    68   6 C    3.865 --    69 C    1.464    67 C    1.415   103 H    0.987
    69   6 C    3.906 --    68 C    1.464    70 C    1.382   104 H    0.985
    70   6 C    3.905 --    69 C    1.382    73 C    1.382    71 C    1.125
    71   6 C    4.102 --    72 N    2.962    70 C    1.125
    72   7 N    2.986 --    71 C    2.962
    73   6 C    3.906 --    74 C    1.464    70 C    1.382   105 H    0.985
    74   6 C    3.864 --    73 C    1.464    67 C    1.415   106 H    0.987
    75   6 C    3.923 --    66 C    1.366    78 N    1.240    76 C    1.209
    76   6 C    3.831 --    77 C    1.632    75 C    1.209   107 H    0.998
    77   6 C    3.850 --    76 C    1.632    79 C    1.219   108 H    0.998
    78   7 N    2.999 --    79 C    1.264    75 C    1.240    59 Co   0.709
    79   6 C    3.932 --    80 C    1.307    78 N    1.264    77 C    1.219
    80   6 C    3.871 --    79 C    1.307    81 C    1.306   140 C    1.208
    81   6 C    3.932 --    80 C    1.306    85 N    1.266    82 C    1.219
    82   6 C    3.847 --    83 C    1.632    81 C    1.219   109 H    0.998
    83   6 C    3.831 --    82 C    1.632    84 C    1.208   110 H    0.998
    84   6 C    3.923 --    86 C    1.369    85 N    1.238    83 C    1.208
    85   7 N    2.999 --    81 C    1.266    84 C    1.238    59 Co   0.709
    86   6 C    3.843 --    84 C    1.369    95 C    1.359    87 C    1.055
    87   6 C    3.867 --    94 C    1.415    88 C    1.415    86 C    1.055
    88   6 C    3.864 --    89 C    1.464    87 C    1.415   111 H    0.987
    89   6 C    3.907 --    88 C    1.464    90 C    1.382   112 H    0.985
    90   6 C    3.905 --    93 C    1.382    89 C    1.382    91 C    1.125
    91   6 C    4.102 --    92 N    2.962    90 C    1.125
    92   7 N    2.986 --    91 C    2.962
    93   6 C    3.906 --    94 C    1.463    90 C    1.382   113 H    0.985
    94   6 C    3.865 --    93 C    1.463    87 C    1.415   114 H    0.987
    95   6 C    3.932 --    86 C    1.359    99 N    1.251    96 C    1.204
    96   6 C    3.835 --    97 C    1.644    95 C    1.204   115 H    0.998
    97   6 C    3.858 --    96 C    1.644    98 C    1.198   116 H    0.993
    98   6 C    3.955 --    60 C    1.394    99 N    1.242    97 C    1.198
    99   7 N    2.992 --    95 C    1.251    98 C    1.242    59 Co   0.713
   100   1 H    1.035 --    60 C    0.996
   101   1 H    1.026 --    62 C    0.993
   102   1 H    1.041 --    63 C    0.998
   103   1 H    1.053 --    68 C    0.987
   104   1 H    1.038 --    69 C    0.985
   105   1 H    1.037 --    73 C    0.985
   106   1 H    1.054 --    74 C    0.987
   107   1 H    1.041 --    76 C    0.998
   108   1 H    1.037 --    77 C    0.998
   109   1 H    1.037 --    82 C    0.998
   110   1 H    1.041 --    83 C    0.998
   111   1 H    1.053 --    88 C    0.987
   112   1 H    1.038 --    89 C    0.985
   113   1 H    1.037 --    93 C    0.985
   114   1 H    1.053 --    94 C    0.987
   115   1 H    1.041 --    96 C    0.998
   116   1 H    1.026 --    97 C    0.993
   117   6 C    3.758 --   118 C    2.475    22 C    1.214   120 C    0.173
   118   6 C    3.833 --   117 C    2.475   119 C    1.361
   119   6 C    3.809 --   120 C    2.350   118 C    1.361   122 C    0.167
   120   6 C    3.847 --   119 C    2.350   121 C    1.390   117 C    0.173
   121   6 C    3.846 --   122 C    2.349   120 C    1.390   124 C    0.173
   122   6 C    3.810 --   121 C    2.349   123 C    1.363   119 C    0.167
   123   6 C    3.831 --   124 C    2.470   122 C    1.363
   124   6 C    3.758 --   123 C    2.470   142 C    1.218   121 C    0.173
   125   6 C    3.758 --   126 C    2.470   162 C    1.218   128 C    0.172
   126   6 C    3.831 --   125 C    2.470   127 C    1.363
   127   6 C    3.809 --   128 C    2.347   126 C    1.363   130 C    0.167
   128   6 C    3.845 --   127 C    2.347   129 C    1.391   125 C    0.172
   129   6 C    3.845 --   130 C    2.347   128 C    1.391   132 C    0.172
   130   6 C    3.809 --   129 C    2.347   131 C    1.363   127 C    0.167
   131   6 C    3.831 --   132 C    2.471   130 C    1.363
   132   6 C    3.757 --   131 C    2.471   199 C    1.217   129 C    0.172
   133   6 C    3.760 --   134 C    2.478   219 C    1.213   136 C    0.172
   134   6 C    3.831 --   133 C    2.478   135 C    1.357
   135   6 C    3.811 --   136 C    2.357   134 C    1.357   138 C    0.167
   136   6 C    3.846 --   135 C    2.357   137 C    1.384   133 C    0.172
   137   6 C    3.848 --   138 C    2.358   136 C    1.384   140 C    0.172
   138   6 C    3.810 --   137 C    2.358   139 C    1.354   135 C    0.167
   139   6 C    3.834 --   140 C    2.482   138 C    1.354
   140   6 C    3.759 --   139 C    2.482    80 C    1.208   137 C    0.172
   141  27 Co   3.640 --   160 N    0.707   181 N    0.707   167 N    0.706
                           147 N    0.706
   142   6 C    3.862 --   180 C    1.300   143 C    1.300   124 C    1.218
   143   6 C    3.931 --   142 C    1.300   147 N    1.268   144 C    1.221
   144   6 C    3.848 --   145 C    1.629   143 C    1.221   182 H    0.998
   145   6 C    3.831 --   144 C    1.629   146 C    1.212   183 H    0.998
   146   6 C    3.920 --   148 C    1.362   147 N    1.239   145 C    1.212
   147   7 N    2.991 --   143 C    1.268   146 C    1.239   141 Co   0.706
   148   6 C    3.840 --   157 C    1.366   146 C    1.362   149 C    1.056
   149   6 C    3.867 --   156 C    1.415   150 C    1.415   148 C    1.056
   150   6 C    3.863 --   151 C    1.464   149 C    1.415   184 H    0.987
   151   6 C    3.906 --   150 C    1.464   152 C    1.383   185 H    0.985
   152   6 C    3.905 --   155 C    1.383   151 C    1.383   153 C    1.124
   153   6 C    4.102 --   154 N    2.962   152 C    1.124
   154   7 N    2.986 --   153 C    2.962
   155   6 C    3.906 --   156 C    1.464   152 C    1.383   186 H    0.985
   156   6 C    3.865 --   155 C    1.464   149 C    1.415   187 H    0.987
   157   6 C    3.920 --   148 C    1.366   160 N    1.237   158 C    1.211
   158   6 C    3.831 --   159 C    1.630   157 C    1.211   188 H    0.998
   159   6 C    3.846 --   158 C    1.630   161 C    1.221   189 H    0.998
   160   7 N    2.991 --   161 C    1.269   157 C    1.237   141 Co   0.707
   161   6 C    3.931 --   162 C    1.300   160 N    1.269   159 C    1.221
   162   6 C    3.862 --   161 C    1.300   163 C    1.300   125 C    1.218
   163   6 C    3.931 --   162 C    1.300   167 N    1.268   164 C    1.221
   164   6 C    3.846 --   165 C    1.629   163 C    1.221   190 H    0.998
   165   6 C    3.831 --   164 C    1.629   166 C    1.212   191 H    0.998
   166   6 C    3.920 --   168 C    1.363   167 N    1.239   165 C    1.212
   167   7 N    2.991 --   163 C    1.268   166 C    1.239   141 Co   0.706
   168   6 C    3.840 --   177 C    1.365   166 C    1.363   169 C    1.056
   169   6 C    3.867 --   176 C    1.415   170 C    1.415   168 C    1.056
   170   6 C    3.863 --   171 C    1.464   169 C    1.415   192 H    0.987
   171   6 C    3.906 --   170 C    1.464   172 C    1.383   193 H    0.985
   172   6 C    3.905 --   175 C    1.383   171 C    1.383   173 C    1.124
   173   6 C    4.103 --   174 N    2.962   172 C    1.124
   174   7 N    2.986 --   173 C    2.962
   175   6 C    3.906 --   176 C    1.464   172 C    1.383   194 H    0.985
   176   6 C    3.863 --   175 C    1.464   169 C    1.415   195 H    0.987
   177   6 C    3.920 --   168 C    1.365   181 N    1.238   178 C    1.211
   178   6 C    3.831 --   179 C    1.629   177 C    1.211   196 H    0.998
   179   6 C    3.846 --   178 C    1.629   180 C    1.221   197 H    0.998
   180   6 C    3.931 --   142 C    1.300   181 N    1.268   179 C    1.221
   181   7 N    2.991 --   180 C    1.268   177 C    1.238   141 Co   0.707
   182   1 H    1.035 --   144 C    0.998
   183   1 H    1.041 --   145 C    0.998
   184   1 H    1.053 --   150 C    0.987
   185   1 H    1.037 --   151 C    0.985
   186   1 H    1.037 --   155 C    0.985
   187   1 H    1.053 --   156 C    0.987
   188   1 H    1.041 --   158 C    0.998
   189   1 H    1.035 --   159 C    0.998
   190   1 H    1.035 --   164 C    0.998
   191   1 H    1.041 --   165 C    0.998
   192   1 H    1.053 --   170 C    0.987
   193   1 H    1.037 --   171 C    0.985
   194   1 H    1.037 --   175 C    0.985
   195   1 H    1.053 --   176 C    0.987
   196   1 H    1.041 --   178 C    0.998
   197   1 H    1.035 --   179 C    0.998
   198  27 Co   3.642 --   224 N    0.707   204 N    0.707   217 N    0.707
                           238 N    0.706
   199   6 C    3.863 --   200 C    1.301   237 C    1.300   132 C    1.217
   200   6 C    3.931 --   199 C    1.301   204 N    1.268   201 C    1.220
   201   6 C    3.846 --   202 C    1.630   200 C    1.220   239 H    0.998
   202   6 C    3.831 --   201 C    1.630   203 C    1.211   240 H    0.998
   203   6 C    3.920 --   205 C    1.365   204 N    1.238   202 C    1.211
   204   7 N    2.992 --   200 C    1.268   203 C    1.238   198 Co   0.707
   205   6 C    3.840 --   203 C    1.365   214 C    1.363   206 C    1.056
   206   6 C    3.867 --   207 C    1.415   213 C    1.415   205 C    1.056
   207   6 C    3.863 --   208 C    1.464   206 C    1.415   241 H    0.987
   208   6 C    3.906 --   207 C    1.464   209 C    1.383   242 H    0.985
   209   6 C    3.905 --   208 C    1.383   212 C    1.383   210 C    1.124
   210   6 C    4.103 --   211 N    2.962   209 C    1.124
   211   7 N    2.986 --   210 C    2.962
   212   6 C    3.906 --   213 C    1.464   209 C    1.383   243 H    0.985
   213   6 C    3.863 --   212 C    1.464   206 C    1.415   244 H    0.987
   214   6 C    3.920 --   205 C    1.363   217 N    1.239   215 C    1.211
   215   6 C    3.831 --   216 C    1.629   214 C    1.211   245 H    0.998
   216   6 C    3.846 --   215 C    1.629   218 C    1.221   246 H    0.998
   217   7 N    2.991 --   218 C    1.267   214 C    1.239   198 Co   0.707
   218   6 C    3.932 --   219 C    1.302   217 N    1.267   216 C    1.221
   219   6 C    3.863 --   220 C    1.303   218 C    1.302   133 C    1.213
   220   6 C    3.932 --   219 C    1.303   224 N    1.266   221 C    1.220
   221   6 C    3.848 --   222 C    1.630   220 C    1.220   247 H    0.998
   222   6 C    3.831 --   221 C    1.630   223 C    1.211   248 H    0.998
   223   6 C    3.920 --   225 C    1.363   224 N    1.240   222 C    1.211
   224   7 N    2.991 --   220 C    1.266   223 C    1.240   198 Co   0.707
   225   6 C    3.840 --   234 C    1.365   223 C    1.363   226 C    1.056
   226   6 C    3.867 --   227 C    1.415   233 C    1.415   225 C    1.056
   227   6 C    3.865 --   228 C    1.463   226 C    1.415   249 H    0.987
   228   6 C    3.906 --   227 C    1.463   229 C    1.383   250 H    0.985
   229   6 C    3.905 --   228 C    1.383   232 C    1.383   230 C    1.124
   230   6 C    4.103 --   231 N    2.962   229 C    1.124
   231   7 N    2.986 --   230 C    2.962
   232   6 C    3.906 --   233 C    1.464   229 C    1.383   251 H    0.985
   233   6 C    3.863 --   232 C    1.464   226 C    1.415   252 H    0.987
   234   6 C    3.920 --   225 C    1.365   238 N    1.237   235 C    1.211
   235   6 C    3.831 --   236 C    1.630   234 C    1.211   253 H    0.998
   236   6 C    3.846 --   235 C    1.630   237 C    1.221   254 H    0.998
   237   6 C    3.931 --   199 C    1.300   238 N    1.269   236 C    1.221
   238   7 N    2.992 --   237 C    1.269   234 C    1.237   198 Co   0.706
   239   1 H    1.037 --   201 C    0.998
   240   1 H    1.041 --   202 C    0.998
   241   1 H    1.053 --   207 C    0.987
   242   1 H    1.037 --   208 C    0.985
   243   1 H    1.037 --   212 C    0.985
   244   1 H    1.053 --   213 C    0.987
   245   1 H    1.041 --   215 C    0.998
   246   1 H    1.035 --   216 C    0.998
   247   1 H    1.035 --   221 C    0.998
   248   1 H    1.041 --   222 C    0.998
   249   1 H    1.053 --   227 C    0.987
   250   1 H    1.037 --   228 C    0.985
   251   1 H    1.037 --   232 C    0.985
   252   1 H    1.053 --   233 C    0.987
   253   1 H    1.041 --   235 C    0.998
   254   1 H    1.037 --   236 C    0.998
 ---------------------------------------------------------------------------

Topologies differ in total number of bonds
Writing topology from bond orders to xtbtopo.mol

 dipole moment from electron density (au)
     X       Y       Z   
-133.8550  -0.0523   0.2351  total (Debye):  340.226


           -------------------------------------------------
          | TOTAL ENERGY             -526.606256713088 Eh   |
          | GRADIENT NORM               0.104245821300 Eh/α |
          | HOMO-LUMO GAP               0.000487672529 eV   |
           -------------------------------------------------
########################################################################
[WARNING] Runtime exception occurred
-1- restart_readRestart: Dimension missmatch in restart file.
########################################################################

------------------------------------------------------------------------
 * finished run on 2022/07/30 at 09:20:29.316     
------------------------------------------------------------------------
 total:
 * wall-time:     0 d,  0 h,  1 min, 28.046 sec
 *  cpu-time:     0 d,  0 h,  1 min, 27.522 sec
 * ratio c/w:     0.994 speedup
 SCF:
 * wall-time:     0 d,  0 h,  1 min, 27.096 sec
 *  cpu-time:     0 d,  0 h,  1 min, 26.580 sec
 * ratio c/w:     0.994 speedup

