254
 energy: -462.351184319251 gnorm: 1.603356648461 xtb: 6.5.1 (b24c23e)
Co          42.03917600000000       -0.01592000000000       -0.00819800000000
C           38.70117900000000        0.10723500000000        0.06388100000000
C           39.36315299999999        1.25667900000000        0.22480200000000
C           38.71228299999999        2.55398600000000        0.36197700000000
C           39.65225199999999        3.46464400000000        0.53466400000000
C           40.95732899999999        2.78922800000000        0.52866800000000
N           40.78054300000000        1.38721000000000        0.32158300000000
C           42.14926300000000        3.39508200000000        0.71032200000000
C           42.19847300000000        4.85354700000000        0.96259200000000
C           41.71579500000000        5.38269000000000        2.17030000000000
C           41.77874800000000        6.75853600000000        2.41078400000000
C           42.32958400000000        7.61508000000000        1.44912300000000
C           42.39559600000000        9.03130300000000        1.69783700000000
N           42.44865500000000       10.16987800000000        1.89788400000000
C           42.81869200000000        7.09007700000000        0.24619000000000
C           42.75537500000000        5.71442100000000        0.00439700000000
C           43.44069600000000        2.65935800000000        0.67880600000000
C           44.72403800000000        3.24443700000000        1.08610000000000
C           45.65884000000000        2.33454300000000        0.90129000000000
N           43.58372500000000        1.43751200000000        0.26521500000000
C           44.97905600000000        1.15680800000000        0.37610500000000
C           45.57361599999999        0.01477400000000       -0.00566600000000
C           44.81040300000000       -1.14531700000000       -0.51709400000000
C           45.34132099999999       -2.13783700000000       -1.21995000000000
C           44.29870400000000       -3.12363400000000       -1.42944500000000
C           43.20079700000000       -2.66974000000000       -0.83593000000000
N           43.43419200000000       -1.39641600000000       -0.23202400000000
C           41.92230300000000       -3.42107700000000       -0.74980800000000
C           41.94556100000000       -4.88661600000000       -0.97735000000000
C           41.26139100000000       -5.45065900000000       -2.06679500000000
C           41.30327299999999       -6.83065600000000       -2.28715900000000
C           42.03492700000000       -7.65753100000000       -1.42555300000000
C           42.07894300000000       -9.07809400000000       -1.65359000000000
N           42.11436700000000      -10.22017700000000       -1.83684600000000
C           42.72665900000000       -7.09858200000000       -0.34363700000000
C           42.68474200000000       -5.71875500000000       -0.12191800000000
C           40.75998200000000       -2.80194300000000       -0.46712400000000
C           39.45269300000000       -3.43971000000000       -0.32014600000000
C           38.59071200000000       -2.46475800000000       -0.10475000000000
C           39.33892200000000       -1.20877900000000       -0.09984100000000
N           40.60394800000000       -1.39310000000000       -0.31009400000000
H           37.61781900000000        0.13506100000000        0.05452400000000
H           37.64893299999999        2.75312700000000        0.32477000000000
H           39.46421700000000        4.52339900000000        0.65592500000000
H           41.29348900000000        4.72891100000000        2.92357100000000
H           41.40066500000000        7.15359100000000        3.34608600000000
H           43.24952100000000        7.74322300000000       -0.50315100000000
H           43.13842100000000        5.31919100000000       -0.92848300000000
H           44.89470500000000        4.24053900000000        1.47288300000000
H           46.71261800000000        2.46654000000000        1.10751300000000
H           46.36709000000000       -2.21823500000000       -1.55398300000000
H           44.40781799999999       -4.06609100000000       -1.95031600000000
H           40.70003700000000       -4.82060800000000       -2.74582700000000
H           40.76854800000000       -7.25189000000000       -3.13001700000000
H           43.29857899999999       -7.72857700000000        0.32703600000000
H           43.22511100000000       -5.29818800000000        0.71739600000000
H           39.21109700000000       -4.49317700000000       -0.37127700000000
H           37.52609400000000       -2.58763500000000        0.04510000000000
Co          99.65435900000000        0.04528700000000       -0.00985600000000
C          102.99235500000000       -0.07378600000000        0.06878400000000
C          102.33038099999999       -1.21283200000000        0.29169700000000
C          102.98125100000000       -2.50081100000000        0.49890200000000
C          102.04128200000000       -3.40078400000000        0.72063500000000
C          100.73620499999998       -2.72668400000000        0.67808300000000
N          100.91299100000001       -1.33793200000000        0.39540200000000
C           99.54427099999999       -3.32181500000000        0.89227000000000
C           99.49506100000001       -4.76448400000000        1.22312600000000
C           99.97774000000000       -5.22747000000000        2.45770800000000
C           99.91478600000001       -6.58828000000000        2.77232400000000
C           99.36395100000000       -7.49562900000000        1.85844300000000
C           99.29793900000000       -8.89631000000000        2.18346100000000
N           99.24487999999998      -10.02238700000000        2.44485300000000
C           98.87484299999998       -7.03651900000000        0.62885200000000
C           98.93815999999998       -5.67597000000000        0.31294000000000
C           98.25283800000000       -2.58887600000000        0.82097000000000
C           96.96949600000001       -3.15104800000000        1.25934100000000
C           96.03469499999999       -2.25249300000000        1.02554400000000
N           98.10980900000000       -1.39121200000000        0.34184000000000
C           96.71447899999998       -1.10491700000000        0.43737100000000
C           96.11991900000000        0.01477400000000       -0.00566600000000
C           96.88313200000000        1.14547800000000       -0.57914700000000
C           96.35221400000000        2.09849200000000       -1.33470400000000
C           97.39482999999998        3.07150200000000       -1.59725900000000
C           98.49273800000000        2.65040500000000       -0.98004200000000
N           98.25934200000000        1.41164100000000       -0.30808900000000
C           99.77123199999998        3.40530200000000       -0.93472200000000
C           99.74797299999999        4.85637300000000       -1.24126900000000
C          100.43214399999999        5.36061000000000       -2.35965100000000
C          100.39026100000000        6.72665400000000       -2.65440000000000
C           99.65860699999999        7.59896100000000       -1.83882200000000
C           99.61459100000000        9.00509600000000       -2.14342800000000
N           99.57916799999998       10.13558300000000       -2.38824400000000
C           98.96687599999998        7.09940300000000       -0.72823300000000
C           99.00879299999998        5.73360200000000       -0.43214000000000
C          100.93355300000000        2.80238000000000       -0.61893500000000
C          102.24084100000000        3.44716800000000       -0.50669800000000
C          103.10282200000000        2.48530600000000       -0.23883800000000
C          102.35461200000000        1.23143500000000       -0.16594100000000
N          101.08958699999999        1.40410300000000       -0.38586500000000
H          104.07571599999999       -0.10207800000000        0.06094800000000
H          104.04460200000000       -2.70167400000000        0.47253000000000
H          102.22931699999998       -4.45142300000000        0.89903500000000
H          100.40004600000000       -4.53387100000000        3.17448200000000
H          100.29286999999998       -6.93212200000000        3.72764000000000
H           98.44401299999998       -7.72927300000000       -0.08403100000000
H           98.55511400000000       -5.33182200000000       -0.63996800000000
H           96.79882900000000       -4.12475000000000        1.69948200000000
H           94.98091700000001       -2.37313200000000        1.23861000000000
H           95.32644500000001        2.16068900000000       -1.67260000000000
H           97.28571599999999        3.98437900000000       -2.16838700000000
H          100.99349700000000        4.69472400000000       -3.00357900000000
H          100.92498600000000        7.10164100000000       -3.51882600000000
H           98.39495500000000        7.76478200000000       -0.09264900000000
H           98.46842400000000        5.35908900000000        0.42871100000000
H          102.48243700000000        4.49632200000000       -0.61478500000000
H          104.16744000000000        2.61611500000000       -0.09586000000000
C           48.05330100000000        0.02946400000000        0.00461000000000
C           49.51152699999999        0.00762800000000       -0.01326400000000
C           50.64545500000000       -0.01312600000000       -0.01475500000000
C           52.00683700000000       -0.02571600000000       -0.01694600000000
C           53.28105499999999       -0.01540900000000       -0.02171100000000
C           54.46951800000000        0.00338900000000       -0.02786700000000
C           55.82187900000000        0.02817300000000       -0.01199900000000
C           56.92214599999999        0.02946400000000        0.00461000000000
C           66.35032600000000        0.02946400000000        0.00461000000000
C           67.80855200000001        0.00762800000000       -0.01326400000000
C           68.94248000000000       -0.01312600000000       -0.01475500000000
C           70.30386200000000       -0.02571600000000       -0.01694600000000
C           71.57808100000000       -0.01540900000000       -0.02171100000000
C           72.76654300000000        0.00338900000000       -0.02786700000000
C           74.11890400000000        0.02817300000000       -0.01199900000000
C           75.21917200000000        0.02946400000000        0.00461000000000
C           84.64735199999998        0.02946400000000        0.00461000000000
C           86.10557799999999        0.00762800000000       -0.01326400000000
C           87.23950600000001       -0.01312600000000       -0.01475500000000
C           88.60088799999998       -0.02571600000000       -0.01694600000000
C           89.87510700000000       -0.01540900000000       -0.02171100000000
C           91.06356900000000        0.00338900000000       -0.02786700000000
C           92.41593000000000        0.02817300000000       -0.01199900000000
C           93.51619700000001        0.02946400000000        0.00461000000000
Co          61.68122799999999        0.02548300000000       -0.01876700000000
C           58.24468399999999       -0.02123700000000        0.00479500000000
C           58.90025300000000       -1.13067300000000       -0.38310500000000
C           58.25953000000000       -2.40172000000000       -0.72689000000000
C           59.19602800000000       -3.24888300000000       -1.10492300000000
C           60.49317300000000       -2.56906100000000       -1.02922800000000
N           60.31523799999999       -1.22905900000000       -0.56340100000000
C           61.67760000000000       -3.12489100000000       -1.36251800000000
C           61.71320299999999       -4.50824300000000       -1.89110200000000
C           61.19196899999999       -4.79645200000000       -3.16257500000000
C           61.24074100000000       -6.10061500000000       -3.66402000000000
C           61.81529900000000       -7.12526500000000       -2.90125500000000
C           61.86665200000000       -8.46756300000000       -3.41844400000000
N           61.90806700000000       -9.54671200000000       -3.83424600000000
C           62.34210100000000       -6.84038300000000       -1.63507600000000
C           62.29303699999999       -5.53667800000000       -1.13236300000000
C           62.97455200000000       -2.41561000000000       -1.21909200000000
C           64.24317000000001       -2.91211100000000       -1.76759500000000
C           65.19538300000001       -2.07849200000000       -1.40084200000000
N           63.14232899999999       -1.31868900000000       -0.54825200000000
C           64.54049000000001       -1.03845400000000       -0.61808700000000
C           65.15550000000000       -0.02123700000000        0.00479500000000
C           64.40454099999999        1.00652600000000        0.75563500000000
C           64.93728299999999        1.81084700000000        1.66660500000000
C           63.90501100000000        2.74804400000000        2.06770000000000
C           62.81358500000000        2.45404000000000        1.37032600000000
N           63.03893100000000        1.33879600000000        0.50987200000000
C           61.56039899999999        3.24599300000000        1.39684300000000
C           61.62256100000000        4.65349000000000        1.86186500000000
C           60.91333099999999        5.05951700000000        3.00442400000000
C           60.99009600000000        6.38302200000000        3.44828800000000
C           61.78155799999999        7.31015200000000        2.75895500000000
C           61.86041100000000        8.67263500000000        3.21648400000000
N           61.92377800000000        9.76803500000000        3.58429700000000
C           62.49850200000000        6.90785400000000        1.62517800000000
C           62.42198200000000        5.58465900000000        1.18011700000000
C           60.38891600000000        2.71885500000000        0.99129400000000
C           59.11363200000000        3.42313800000000        0.90575700000000
C           58.22554500000000        2.52776400000000        0.52449300000000
C           58.92267500000000        1.24778100000000        0.35716400000000
N           60.18720799999999        1.35359900000000        0.62499500000000
H           57.20484600000000       -2.63859200000000       -0.68544800000000
H           59.00979100000000       -4.27110300000000       -1.40753400000000
H           60.75060900000000       -4.01070800000000       -3.76339800000000
H           60.83300699999999       -6.30935500000000       -4.64580200000000
H           62.79087600000000       -7.62491800000000       -1.03772400000000
H           62.70473900000000       -5.32756600000000       -0.15254200000000
H           64.39276900000000       -3.80156100000000       -2.36544300000000
H           66.24468500000000       -2.17524400000000       -1.64612200000000
H           65.95913800000000        1.79946000000000        2.02147500000000
H           64.01941200000000        3.56094400000000        2.77309300000000
H           60.30525300000000        4.34977100000000        3.55185100000000
H           60.43521900000000        6.68223400000000        4.32944400000000
H           63.11638600000000        7.61609000000000        1.08631400000000
H           62.98186900000000        5.28568900000000        0.30237900000000
H           58.91003599999999        4.46798300000000        1.10014800000000
H           57.17544400000000        2.72897000000000        0.36108900000000
Co          79.97825400000001        0.02548300000000       -0.01876700000000
C           76.54170999999999       -0.02123700000000        0.00479500000000
C           77.19727899999999       -1.13067300000000       -0.38310500000000
C           76.55655600000000       -2.40172000000000       -0.72689000000000
C           77.49305399999999       -3.24888300000000       -1.10492300000000
C           78.79019800000000       -2.56906100000000       -1.02922800000000
N           78.61226300000000       -1.22905900000000       -0.56340100000000
C           79.97462499999999       -3.12489100000000       -1.36251800000000
C           80.01022900000000       -4.50824300000000       -1.89110200000000
C           79.48899499999999       -4.79645200000000       -3.16257500000000
C           79.53776699999999       -6.10061500000000       -3.66402000000000
C           80.11232500000000       -7.12526500000000       -2.90125500000000
C           80.16367800000000       -8.46756300000000       -3.41844400000000
N           80.20509199999999       -9.54671200000000       -3.83424600000000
C           80.63912699999999       -6.84038300000000       -1.63507600000000
C           80.59006200000000       -5.53667800000000       -1.13236300000000
C           81.27157699999999       -2.41561000000000       -1.21909200000000
C           82.54019599999998       -2.91211100000000       -1.76759500000000
C           83.49240899999999       -2.07849200000000       -1.40084200000000
N           81.43935500000001       -1.31868900000000       -0.54825200000000
C           82.83751500000000       -1.03845400000000       -0.61808700000000
C           83.45252600000001       -0.02123700000000        0.00479500000000
C           82.70156700000000        1.00652600000000        0.75563500000000
C           83.23430900000000        1.81084700000000        1.66660500000000
C           82.20203599999999        2.74804400000000        2.06770000000000
C           81.11061100000001        2.45404000000000        1.37032600000000
N           81.33595600000000        1.33879600000000        0.50987200000000
C           79.85742500000001        3.24599300000000        1.39684300000000
C           79.91958699999999        4.65349000000000        1.86186500000000
C           79.21035700000000        5.05951700000000        3.00442400000000
C           79.28712200000000        6.38302200000000        3.44828800000000
C           80.07858400000001        7.31015200000000        2.75895500000000
C           80.15743699999999        8.67263500000000        3.21648400000000
N           80.22080400000000        9.76803500000000        3.58429700000000
C           80.79552800000000        6.90785400000000        1.62517800000000
C           80.71900699999999        5.58465900000000        1.18011700000000
C           78.68594199999998        2.71885500000000        0.99129400000000
C           77.41065700000000        3.42313800000000        0.90575700000000
C           76.52257000000000        2.52776400000000        0.52449300000000
C           77.21970099999999        1.24778100000000        0.35716400000000
N           78.48423400000000        1.35359900000000        0.62499500000000
H           75.50187199999999       -2.63859200000000       -0.68544800000000
H           77.30681599999998       -4.27110300000000       -1.40753400000000
H           79.04763499999999       -4.01070800000000       -3.76339800000000
H           79.13003200000000       -6.30935500000000       -4.64580200000000
H           81.08790199999999       -7.62491800000000       -1.03772400000000
H           81.00176500000001       -5.32756600000000       -0.15254200000000
H           82.68979400000001       -3.80156100000000       -2.36544300000000
H           84.54171100000001       -2.17524400000000       -1.64612200000000
H           84.25616400000000        1.79946000000000        2.02147500000000
H           82.31643699999998        3.56094400000000        2.77309300000000
H           78.60227900000000        4.34977100000000        3.55185100000000
H           78.73224399999999        6.68223400000000        4.32944400000000
H           81.41341100000000        7.61609000000000        1.08631400000000
H           81.27889500000001        5.28568900000000        0.30237900000000
H           77.20706100000000        4.46798300000000        1.10014800000000
H           75.47247000000000        2.72897000000000        0.36108900000000
254
 energy: -462.864632139664 gnorm: 0.657166224342 xtb: 6.5.1 (b24c23e)
Co          42.04762166468841       -0.01205808804404       -0.00627200043271
C           38.70217771849065        0.09379631500250        0.06246807692637
C           39.37004515340615        1.25724423853764        0.22452858961183
C           38.71195687578531        2.54858162578791        0.36102748780364
C           39.65981447497920        3.46578844421895        0.53517465194956
C           40.95658394569482        2.78151822032489        0.52710219164189
N           40.77111552363460        1.39387531298357        0.32080579115006
C           42.16109862089623        3.39146328920570        0.71184475405745
C           42.20161389835060        4.85462295475203        0.96384884551018
C           41.71637812061395        5.38565299845572        2.16781433257699
C           41.77905762253783        6.75647426384949        2.40895058424534
C           42.32965192199872        7.61631776073717        1.44933729092588
C           42.39558479327090        9.03046527398927        1.69770410749563
N           42.44839927278900       10.16460782152760        1.89695668013914
C           42.81786032939754        7.08770172510019        0.24703837451811
C           42.75513366844589        5.71672978993462        0.00756529541782
C           43.43427874906529        2.67007810038087        0.68068793721107
C           44.71451721125661        3.25179700675979        1.08558948807403
C           45.65899405367716        2.32894521190757        0.90053577916998
N           43.58569101854157        1.42953047854474        0.26499731523037
C           44.98616510460285        1.15329120636669        0.37519191047172
C           45.56489839920623        0.00406372537097       -0.01042997303580
C           44.80933634427382       -1.13276484450584       -0.50662529620475
C           45.34225566667904       -2.15376154909697       -1.22811343398906
C           44.31610792147529       -3.12365680665389       -1.43199025070594
C           43.19034180008374       -2.66133422094273       -0.82582787599524
N           43.43068887401170       -1.39416356334691       -0.23637822634279
C           41.93242409800580       -3.41497408619184       -0.74954151846252
C           41.94971899722387       -4.88554551245323       -0.97942347166941
C           41.26257108199872       -5.45293577011355       -2.06414463082476
C           41.30392488291357       -6.82825696956988       -2.28534876212736
C           42.03496786722475       -7.65871724374942       -1.42574190115428
C           42.07897638067239       -9.07724794859898       -1.65350043772429
N           42.11417383173747      -10.21487357984828       -1.83598516146800
C           42.72545343479739       -7.09594024561675       -0.34425898420413
C           42.68404522091430       -5.72059299249574       -0.12493138457729
C           40.75971856636144       -2.79903747410402       -0.46628374786161
C           39.45917603383031       -3.43934601225856       -0.32107213023244
C           38.58466171051274       -2.45559878743045       -0.10373908366425
C           39.32595751322440       -1.20011925554707       -0.09873120550664
N           40.61030517140929       -1.39637840495104       -0.30673919911405
H           37.61832393372352        0.13209069957131        0.05476034014421
H           37.64930383246526        2.74857072955535        0.32422169487179
H           39.46988792343599        4.52349320714324        0.65636016257282
H           41.29418791215551        4.72930430514752        2.92232782263744
H           41.40112356915778        7.15348459207716        3.34520914324720
H           43.24903084606036        7.74292266082294       -0.50237824198583
H           43.13782519604531        5.31926608205894       -0.92720209885269
H           44.89018503306278        4.24277307009491        1.47276059675744
H           46.71223590402742        2.46127590015813        1.10554045826668
H           46.36723398638075       -2.22081995332397       -1.55531356193142
H           44.41063686269798       -4.06543013011916       -1.95109082748174
H           40.70095419007787       -4.82088026060978       -2.74474947628698
H           40.76917544240068       -7.25164635036840       -3.12918956392082
H           43.29792617697722       -7.72817359676787        0.32632959297004
H           43.22436484597097       -5.29823648165269        0.71626550186487
H           39.21638575012651       -4.49245851519285       -0.37195522622227
H           37.52446720035282       -2.58368539935145        0.04565710573346
Co          99.64632926524712        0.04163270905269       -0.00741299753372
C          102.99140611403794       -0.06048983321268        0.06667960361709
C          102.32360322936370       -1.21334780484702        0.29163137874482
C          102.98156663665470       -2.49540772110243        0.49765785787609
C          102.03366489879946       -3.40187397711540        0.72121702132860
C          100.73687025793666       -2.71926102844027        0.67612145539381
N          100.92230125903400       -1.34454137725223        0.39474070372458
C           99.53257489240990       -3.31828655591287        0.89336774216423
C           99.49197140159042       -4.76550108719115        1.22446242521254
C           99.97716431955185       -5.23058061095096        2.45539727982829
C           99.91447465410378       -6.58632553896406        2.77039278899899
C           99.36388372025425       -7.49685651436522        1.85872700164303
C           99.29794931267703       -8.89547181924075        2.18328118504299
N           99.24513628061409      -10.01718015787436        2.44364342427150
C           98.87567580974174       -7.03409362801931        0.62956693227337
C           98.93840490088239       -5.67810118204617        0.31623813848634
C           98.25916336668038       -2.59945946978887        0.82328724226637
C           96.97911260606863       -3.15834996877525        1.25935465214575
C           96.03460222314017       -2.24688019081724        1.02418661288139
N           98.10764988642916       -1.38323062043575        0.34181288209035
C           96.70762979344607       -1.10116235985153        0.43648955643417
C           96.12611973250117        0.02477799401267       -0.01139574044948
C           96.88461604189308        1.13366576590546       -0.56770915946883
C           96.35127865579055        2.11362929209852       -1.34318485542984
C           97.37797429701830        3.07153267151261       -1.59989537807649
C           98.50307753748432        2.64290476264935       -0.96968602470585
N           98.26245424150243        1.40871542266153       -0.31293078828780
C           99.76126596887096        3.39935577631493       -0.93414250839982
C           99.74387064729029        4.85523671296245       -1.24320736527576
C          100.43096582710342        5.36302844481333       -2.35711712376936
C          100.38960069903600        6.72435450510260       -2.65246622455744
C           99.65856621988753        7.60013982697868       -1.83907595355954
C           99.61456013988042        9.00425004175516       -2.14329010726219
N           99.57936125731042       10.13033833392461       -2.38710026654231
C           98.96807086540183        7.09673321308196       -0.72871155789687
C           99.00948650300521        5.73529440650496       -0.43524029556391
C          100.93375700048099        2.79964130823262       -0.61801377085080
C          102.23435004068637        3.44675182055386       -0.50760874378424
C          103.10885472475897        2.47622014464455       -0.23732882097084
C          102.36755290344911        1.22287375184515       -0.16430685492577
N          101.08331872583817        1.40747732583109       -0.38285251129864
H          104.07522629900856       -0.09910915671299        0.06098172286032
H          104.04422443185766       -2.69714488204764        0.47171415267355
H          102.22364536693311       -4.45148181044816        0.89947138966654
H          100.39934638513601       -4.53433404797650        3.17326369976235
H          100.29241193827768       -6.93206944400286        3.72676387711491
H           98.44450322169429       -7.72893069620575       -0.08327636414307
H           98.55571035463943       -5.33182675408015       -0.63868085400047
H           96.80339219967966       -4.12698529688547        1.69950204404121
H           94.98142878087938       -2.36806947787958        1.23641209320840
H           95.32636737542863        2.16314358092887       -1.67401903911534
H           97.28298136007837        3.98372623203332       -2.16916662316711
H          100.99258117196706        4.69505342929457       -3.00251424888700
H          100.92435821584459        7.10144185298577       -3.51798752726895
H           98.39560662002984        7.76434400613149       -0.09333198330546
H           98.46916996198210        5.35907850544741        0.42757858883677
H          102.47715139923092        4.49556576642292       -0.61542444152594
H          104.16905988942081        2.61219651675128       -0.09508126537533
C           48.07163723465852        0.02953973398239        0.00407699212433
C           49.42632314869535        0.00746431568871       -0.01317687701452
C           50.68658484345931       -0.01363606474778       -0.01455930066508
C           51.97716070769017       -0.02557067816354       -0.01691814731402
C           53.25572050205052       -0.01562596712865       -0.02182820855404
C           54.47193896214286        0.00388216919777       -0.02805452580220
C           55.76559925506407        0.02781572784085       -0.01308298342366
C           56.96214941921051        0.03150533920123        0.00726635573991
C           66.41606432678135        0.03689343989001        0.00760424043799
C           67.74658520848088        0.00891037982504       -0.01287811112381
C           68.98733330662634       -0.01349264197941       -0.01471733312719
C           70.28101390287870       -0.02589067488999       -0.01710935305598