244
 energy: -402.436395448607 gnorm: 0.587053472429 xtb: 6.5.1 (b24c23e)
C           33.79751400000000       -0.00813400000000       -0.05585500000000
C           34.52600699999999       -1.26631100000000        0.50875000000000
C           33.91739700000000       -2.43083000000000        0.91846300000000
C           34.93918599999999       -3.28209300000000        1.41331100000000
C           36.13725500000000       -2.60469800000000        1.29545900000000
N           35.87864799999999       -1.39756900000000        0.69577000000000
C           37.55974400000000       -3.10681200000000        1.78499000000000
C           38.68957500000000       -2.43158500000000        1.44014800000000
C           39.99421399999999       -2.82782400000000        1.92933900000000
C           40.89657900000000       -1.97756500000000        1.45403700000000
N           38.88585200000000       -1.32532100000000        0.65568000000000
C           40.21740400000000       -1.00053000000000        0.62568900000000
C           40.88504900000000        0.00197600000000       -0.00540500000000
C           40.10739900000000        1.03485000000000       -0.92610000000000
C           40.64779000000000        1.77023700000000       -1.96306500000000
C           39.62299800000000        2.60387100000000       -2.47591500000000
C           38.48275200000000        2.34651500000000       -1.74524000000000
C           37.07345300000000        3.05223100000000       -1.92865300000000
C           37.04620700000000        4.39054700000000       -2.56153000000000
C           36.67353099999999        4.53572500000000       -3.90382800000000
C           36.66258700000000        5.79773500000000       -4.50076500000000
C           37.02734500000000        6.92217500000000       -3.75923300000000
C           37.40272800000000        6.78549100000000       -2.42203400000000
C           37.41300900000000        5.52305900000000       -1.82556000000000
C           35.94782500000000        2.43093800000000       -1.48943300000000
C           34.62594600000000        3.01969200000000       -1.61251200000000
C           33.74013000000000        2.16757400000000       -1.10508800000000
C           34.46175299999999        1.01280300000000       -0.62908400000000
N           35.78284500000000        1.22061600000000       -0.87513500000000
N           38.77341700000000        1.35254700000000       -0.84060800000000
C           37.59720900000000       -4.29864300000000        2.66584000000000
C           37.34485200000000       -4.17017400000000        4.03677700000000
C           37.36941700000000       -5.29308800000000        4.86601300000000
C           37.64547399999999       -6.55107700000000        4.32835100000000
C           37.89723499999999       -6.68739400000000        2.96244300000000
C           37.87225200000000       -5.56433700000000        2.13348900000000
H           32.71967900000000        0.04023400000000        0.04227200000000
H           32.85903300000000       -2.63757900000000        0.88139500000000
H           34.81199900000000       -4.26886800000000        1.83246300000000
H           36.57986200000000       -0.70817700000000        0.43599200000000
H           40.20528899999999       -3.65928300000000        2.57794200000000
H           41.95011400000000       -2.02787300000000        1.65939800000000
H           41.66970499999999        1.72430600000000       -2.30729600000000
H           39.70750999999999        3.31557900000000       -3.28331200000000
H           36.38929700000000        3.65187800000000       -4.47101200000000
H           36.36830200000000        5.89584900000000       -5.54066100000000
H           37.01855300000000        7.90373800000000       -4.22218900000000
H           37.68776000000000        7.65509800000000       -1.83859900000000
H           37.70403500000000        5.40575500000000       -0.78391700000000
H           34.39809800000000        3.98027100000000       -2.03823800000000
H           32.67662600000000        2.31189800000000       -1.04729200000000
H           38.09012000000000        0.89114600000000       -0.24566100000000
H           37.13253200000000       -3.18439100000000        4.44498600000000
H           37.17417100000000       -5.17879900000000        5.92741800000000
H           37.66613300000000       -7.42364400000000        4.97342700000000
H           38.11503600000000       -7.66191300000000        2.53748600000000
H           38.07019800000000       -5.65720700000000        1.06781600000000
C           92.39238899999999       -0.03933000000000       -0.03608300000000
C           91.66389599999999        1.00835300000000       -0.93282700000000
C           92.27250599999999        1.87598600000000       -1.81099700000000
C           91.25071699999999        2.68687700000000       -2.36954600000000
C           90.05264800000000        2.29112600000000       -1.80728800000000
N           90.31125500000000        1.23350900000000       -0.97168500000000
C           88.63015899999999        2.94816000000000       -2.05237000000000
C           87.50032800000000        2.34806800000000       -1.58897400000000
C           86.19568900000000        2.95959600000000       -1.73846000000000
C           85.29332400000000        2.16680800000000       -1.17247500000000
N           87.30405100000000        1.16641300000000       -0.92346500000000
C           85.97249900000000        1.00064000000000       -0.64256000000000
C           85.30485400000001        0.00197600000000       -0.00540500000000
C           86.08250400000000       -1.27153900000000        0.53558300000000
C           85.54211300000000       -2.52320200000000        0.75791800000000
C           86.56690499999999       -3.34284800000000        1.29283900000000
C           87.70715099999998       -2.57223300000000        1.37203500000000
C           89.11645000000000       -3.03936100000000        1.93191600000000
C           89.14369600000001       -4.18299400000000        2.87198300000000
C           89.51637200000000       -5.45881100000000        2.43024600000000
C           89.52731600000000       -6.53736900000000        3.31665200000000
C           89.16255799999999       -6.34682000000000        4.65004100000000
C           88.78717499999999       -5.07924000000000        5.09728300000000
C           88.77689399999998       -4.00092000000000        4.21029700000000
C           90.24207800000001       -2.37694600000000        1.55758100000000
C           91.56395700000000       -2.73958400000000        2.03745000000000
C           92.44977299999999       -1.91695400000000        1.48349700000000
C           91.72815000000000       -0.99353600000000        0.64244100000000
N           90.40705800000001       -1.30475500000000        0.72532800000000
N           87.41648600000001       -1.32985200000000        0.85937300000000
C           88.59269399999999        4.25350200000000       -2.75411300000000
C           88.84505099999998        5.43839800000000       -2.05269100000000
C           88.82048600000000        6.66764500000000       -2.71414500000000
C           88.54442899999999        6.71846700000000       -4.08127100000000
C           88.29266800000001        5.54146900000000       -4.78764300000000
C           88.31765099999998        4.31241700000000       -4.12594000000000
H           93.47022400000000        0.02875700000000        0.04954500000000
H           93.33087000000000        1.93072500000000       -2.01378500000000
H           91.37790400000000        3.48716800000000       -3.08295300000000
H           89.61004100000000        0.70429300000000       -0.45916600000000
H           85.98461399999999        3.90107500000000       -2.21346300000000
H           84.23978900000000        2.37399300000000       -1.13030000000000
H           84.52019799999999       -2.81488200000000        0.56943200000000
H           86.48239299999999       -4.37680300000000        1.59176300000000
H           89.80060600000000       -5.59440500000000        1.38885400000000
H           89.82160100000000       -7.51963200000000        2.96144900000000
H           89.17135000000000       -7.18449700000000        5.34003500000000
H           88.50214300000000       -4.92287200000000        6.13273500000000
H           88.48586799999998       -3.00888600000000        4.54889300000000
H           91.79180500000000       -3.53463600000000        2.72436200000000
H           93.51327700000000       -1.92630000000000        1.63868200000000
H           88.09978300000000       -0.59487200000000        0.69610800000000
H           89.05737099999999        5.38671400000000       -0.98698400000000
H           89.01573200000000        7.57868400000000       -2.15768300000000
H           88.52376999999998        7.67430400000000       -4.59495300000000
H           88.07486700000000        5.57319800000000       -5.85031400000000
H           88.11970499999998        3.38837300000000       -4.66485400000000
C           47.40249400000000        0.00284600000000        0.00314900000000
C           46.19355400000000       -0.01060900000000       -0.00529800000000
C           44.77202500000000       -0.00179000000000       -0.01728100000000
C           43.56035600000000        0.00564900000000       -0.00641800000000
C           48.81909800000000       -0.00382900000000        0.00368200000000
C           50.03979400000000        0.00564900000000       -0.00641800000000
C           63.69871100000000        0.00284600000000        0.00314900000000
C           62.48977099999999       -0.01060900000000       -0.00529800000000
C           61.06824200000000       -0.00179000000000       -0.01728100000000
C           59.85657299999999        0.00564900000000       -0.00641800000000
C           65.11531500000000       -0.00382900000000        0.00368200000000
C           66.33601100000000        0.00564900000000       -0.00641800000000
C           79.99492800000000        0.00284600000000        0.00314900000000
C           78.78598799999999       -0.01060900000000       -0.00529800000000
C           77.36445900000000       -0.00179000000000       -0.01728100000000
C           76.15279000000000        0.00564900000000       -0.00641800000000
C           81.41153199999998       -0.00382900000000        0.00368200000000
C           82.63222800000000        0.00564900000000       -0.00641800000000
C           51.36988200000000       -0.00291900000000        0.00653300000000
C           52.16353399999999        1.10690400000000        0.81249300000000
C           51.65680800000000        1.93164600000000        1.79638600000000
C           52.69370700000000        2.82034500000000        2.17962600000000
C           53.80314799999999        2.50554300000000        1.42338200000000
N           53.49219700000000        1.41476900000000        0.65058100000000
C           55.19277400000000        3.26565600000000        1.43202600000000
C           56.32758199999999        2.61181400000000        1.06837300000000
C           57.61451300000000        3.27313000000000        1.00243400000000
C           58.52247500000000        2.38484300000000        0.61275500000000
N           56.53561299999999        1.31316000000000        0.69344500000000
C           57.86012200000000        1.11190800000000        0.41026800000000
C           58.52392000000000       -0.00291900000000        0.00653300000000
C           57.73028300000000       -1.35884200000000       -0.20034600000000
C           58.23705000000000       -2.63705300000000       -0.08038500000000
C           57.20014799999999       -3.53855000000000       -0.43246400000000
C           56.09066600000000       -2.78307300000000       -0.74895200000000
C           54.70101400000000       -3.32979500000000       -1.27702400000000
C           54.71014000000000       -4.60801500000000       -2.02685300000000
C           55.18820100000000       -4.64826900000000       -3.34173800000000
C           55.21320600000000       -5.85326100000000       -4.04675700000000
C           54.76241800000000       -7.02618300000000       -3.43973000000000
C           54.28747500000000       -6.99567900000000       -2.12804700000000
C           54.26341800000000       -5.79063100000000       -1.42345100000000
C           53.56621500000000       -2.60909600000000       -1.07611100000000
C           52.27927800000000       -3.03313200000000       -1.58785000000000
C           51.37132000000000       -2.12739900000000       -1.24064700000000
C           52.03368000000000       -1.07965400000000       -0.48992900000000
N           53.35819200000000       -1.42183500000000       -0.42998600000000
N           56.40160099999999       -1.46402500000000       -0.53183500000000
C           55.18352800000000        4.70192500000000        1.79702900000000
C           54.70526500000000        5.65464000000000        0.89000900000000
C           54.67994500000000        7.00731000000000        1.23544700000000
C           55.13062200000000        7.41508300000000        2.49165200000000
C           55.60579500000000        6.47156200000000        3.40323600000000
C           55.63017100000000        5.11914700000000        3.05745400000000
H           50.64837600000000        1.91345400000000        2.18076700000000
H           52.63310200000000        3.61398500000000        2.90909500000000
H           54.15330100000000        0.89215800000000        0.08324900000000
H           57.80915100000000        4.30820800000000        1.21954300000000
H           59.56691699999999        2.59563600000000        0.47304300000000
H           59.24551000000000       -2.89429900000000        0.20570700000000
H           57.26077900000000       -4.61579600000000       -0.47155000000000
H           55.53851600000000       -3.72904400000000       -3.80625200000000
H           55.58494900000000       -5.86887400000000       -5.06628200000000
H           54.78119899999999       -7.96235700000000       -3.98847900000000
H           53.93449399999999       -7.90337500000000       -1.64935300000000
H           53.89391699999999       -5.75461600000000       -0.40079200000000
H           52.08463500000000       -3.92196800000000       -2.16099400000000
H           50.32687700000000       -2.17912300000000       -1.48818700000000
H           55.74047599999999       -0.69353300000000       -0.56793200000000
H           54.35499700000000        5.32718000000000       -0.08649300000000
H           54.30801699999999        7.73491100000000        0.52121600000000
H           55.11155900000000        8.46669400000000        2.75932900000000
H           55.95867299999999        6.78086200000000        4.38174100000000
H           55.99980700000000        4.37482600000000        3.75960400000000
C           67.66609900000000       -0.00291900000000        0.00653300000000
C           68.45975100000000        1.10690400000000        0.81249300000000
C           67.95302500000000        1.93164600000000        1.79638600000000
C           68.98992400000000        2.82034500000000        2.17962600000000
C           70.09936500000001        2.50554300000000        1.42338200000000
N           69.78841400000000        1.41476900000000        0.65058100000000
C           71.48899100000000        3.26565600000000        1.43202600000000
C           72.62379900000001        2.61181400000000        1.06837300000000
C           73.91073000000000        3.27313000000000        1.00243400000000
C           74.81869200000000        2.38484300000000        0.61275500000000
N           72.83182999999998        1.31316000000000        0.69344500000000
C           74.15633900000000        1.11190800000000        0.41026800000000
C           74.82013700000000       -0.00291900000000        0.00653300000000
C           74.02650000000000       -1.35884200000000       -0.20034600000000
C           74.53326700000000       -2.63705300000000       -0.08038500000000
C           73.49636499999998       -3.53855000000000       -0.43246400000000
C           72.38688300000000       -2.78307300000000       -0.74895200000000
C           70.99723100000000       -3.32979500000000       -1.27702400000000
C           71.00635699999998       -4.60801500000000       -2.02685300000000
C           71.48441799999999       -4.64826900000000       -3.34173800000000
C           71.50942300000000       -5.85326100000000       -4.04675700000000
C           71.05863500000000       -7.02618300000000       -3.43973000000000
C           70.58369200000000       -6.99567900000000       -2.12804700000000
C           70.55963500000000       -5.79063100000000       -1.42345100000000
C           69.86243300000000       -2.60909600000000       -1.07611100000000
C           68.57549500000000       -3.03313200000000       -1.58785000000000
C           67.66753700000000       -2.12739900000000       -1.24064700000000
C           68.32989700000000       -1.07965400000000       -0.48992900000000
N           69.65440900000000       -1.42183500000000       -0.42998600000000
N           72.69781799999998       -1.46402500000000       -0.53183500000000
C           71.47974499999999        4.70192500000000        1.79702900000000
C           71.00148200000000        5.65464000000000        0.89000900000000
C           70.97616200000000        7.00731000000000        1.23544700000000
C           71.42683900000000        7.41508300000000        2.49165200000000
C           71.90201200000000        6.47156200000000        3.40323600000000
C           71.92638800000000        5.11914700000000        3.05745400000000
H           66.94459300000000        1.91345400000000        2.18076700000000
H           68.92931900000001        3.61398500000000        2.90909500000000
H           70.44951800000000        0.89215800000000        0.08324900000000
H           74.10536800000000        4.30820800000000        1.21954300000000
H           75.86313399999999        2.59563600000000        0.47304300000000
H           75.54172699999998       -2.89429900000000        0.20570700000000
H           73.55699600000000       -4.61579600000000       -0.47155000000000
H           71.83473299999999       -3.72904400000000       -3.80625200000000
H           71.88116599999999       -5.86887400000000       -5.06628200000000
H           71.07741599999999       -7.96235700000000       -3.98847900000000
H           70.23071100000000       -7.90337500000000       -1.64935300000000
H           70.19013400000000       -5.75461600000000       -0.40079200000000
H           68.38085200000000       -3.92196800000000       -2.16099400000000
H           66.62309500000001       -2.17912300000000       -1.48818700000000
H           72.03669299999999       -0.69353300000000       -0.56793200000000
H           70.65121400000000        5.32718000000000       -0.08649300000000
H           70.60423400000001        7.73491100000000        0.52121600000000
H           71.40777600000000        8.46669400000000        2.75932900000000
H           72.25489000000000        6.78086200000000        4.38174100000000
H           72.29602400000000        4.37482600000000        3.75960400000000
244
 energy: -402.623897251078 gnorm: 0.352342281478 xtb: 6.5.1 (b24c23e)
C           33.82940473092999       -0.04170064507393       -0.04098064331068
C           34.52474063221759       -1.25066413733948        0.50092127997002
C           33.92392111712166       -2.43328210148845        0.92579917922509
C           34.93775403229401       -3.27650671141902        1.41763391280903
C           36.15726771457057       -2.60627586559061        1.29811219707627
N           35.88112608687378       -1.39526151834006        0.69829817849489
C           37.52346054412748       -3.08494086222847        1.76804059277864
C           38.69064224365868       -2.42058536709636        1.43663695059769
C           39.99646188920345       -2.83247260951582        1.93308533357372
C           40.90743108498424       -1.97658362188063        1.45422443602914
N           38.87825806228818       -1.31497751133589        0.65156583295881
C           40.22103407796414       -0.99661399636014        0.61998946597069
C           40.85183652427874        0.02823222500086       -0.03567846234339
C           40.11666238156180        1.01592371279483       -0.91896782595136
C           40.64714439918460        1.77797823349143       -1.95981088119220
C           39.62754744637812        2.60438593321385       -2.46792394074331
C           38.46569718795877        2.34947241406410       -1.74213553844727
C           37.11014797567391        3.02764802211177       -1.91869815135531
C           37.06189879561725        4.37762755817738       -2.56093812370840
C           36.67470482084297        4.53389137929014       -3.89880784517413
C           36.66278086754705        5.79396682437530       -4.49387553600469
C           37.02736533837643        6.91708823973932       -3.75681965935765
C           37.40058568332609        6.77822013528051       -2.42304501049392
C           37.41562484227307        5.51797933113648       -1.82875966128474
C           35.94985736495675        2.42464750430554       -1.48217852131702
C           34.62585022507464        3.02815409437537       -1.61705863575874
C           33.73493371756118        2.17159371170386       -1.10615535447446
C           34.47336198343159        1.01385459435947       -0.62719783652279
N           35.79737623296903        1.21279487562311       -0.87020866234599
N           38.77646946187335        1.35414770937793       -0.83496423979906
C           37.58267931061869       -4.29057057779483        2.65581483957938
C           37.34265785787515       -4.17016314658527        4.03068164044401
C           37.37105201503412       -5.29062712868218        4.85875465533801
C           37.64542202752371       -6.54653374898273        4.32497156102454
C           37.89718138799325       -6.67951318936912        2.96243411704366
C           37.87079390906182       -5.55886851158059        2.13435116077307
H           32.74254942939337        0.01796799552148        0.04667599176544
H           32.86471958429404       -2.64164435735603        0.88389962298074
H           34.80958308021744       -4.26580478708293        1.83113525543180
H           36.57990305957139       -0.70838214110340        0.43669357815930
H           40.20030322026182       -3.66629578185420        2.58185254058429
H           41.96162474213667       -2.02037965202869        1.65507573778244
H           41.66741531311866        1.72796782932641       -2.30764854215893
H           39.71076953155434        3.31239279644847       -3.27978029236774
H           36.39076128906237        3.65470332911708       -4.47030586826749
H           36.36961594907606        5.89495985486693       -5.53558722895136
H           37.01874228448252        7.89974074039161       -4.22040855382784
H           37.68598091008485        7.65069912478733       -1.84106964324732
H           37.70411203169543        5.40686647863843       -0.78712928405859
H           34.40316256693566        3.98917861010454       -2.04394368910420
H           32.66968000388241        2.30965208919036       -1.04581816010610
H           38.09325026225343        0.89196931569126       -0.24503565892742
H           37.13227339652344       -3.18776258111970        4.44441909769681
H           37.17542790247541       -5.17894868828663        5.92211234542419
H           37.66590887302048       -7.42013074773222        4.97075904114587
H           38.11407236558128       -7.65689332424072        2.53923855709030
H           38.06894239505402       -5.65783933587306        1.07081940702759
C           92.36049726080716       -0.01154972761322       -0.06008916352683
C           91.66516449002559        0.99459251572542       -0.92201972068438
C           92.26598334986626        1.88366558370383       -1.81008161206571
C           91.25214964229066        2.68840075470925       -2.36264966483437
C           90.03263960324547        2.29419909411708       -1.80758008504317
N           90.30877687663980        1.23481156206071       -0.96851926830991
C           88.66644376964337        2.92349418522537       -2.03982911304621
C           87.49926611109869        2.34020313351299       -1.58053682005512
C           86.19344744903336        2.96498313802206       -1.74107313799873
C           85.28247918340850        2.16658279703501       -1.17151611108579
N           87.31164137643249        1.15828426266478       -0.91587174556368
C           85.96887566988556        0.99387269860141       -0.64146707081403
C           85.33800285367592       -0.03644499433333        0.00538823860244
C           86.07317246059668       -1.25698217018191        0.52150747038617
C           85.54273895307291       -2.52356351795002        0.76630278536321
C           86.56234340869365       -3.33583253478364        1.29670942315566
C           87.72418987153236       -2.57067240364562        1.37602741749166
C           89.07974416006148       -3.01986373090058        1.91393358190269
C           89.12800102983969       -4.17694391982326        2.86055271474349
C           89.51519980762659       -5.45348806667354        2.43072860759844
C           89.52712197385043       -6.52952903122310        3.31618574562399
C           89.16253799701762       -6.34246446933328        4.64647081112347
C           88.78931889356048       -5.07704965033415        5.09027550591731
C           88.77427602962690       -4.00164368098106        4.20433833167981
C           90.24004324579511       -2.36769964153472        1.55498963290277
C           91.56405026937206       -2.74730815248207        2.04316016436562
C           92.45496872953557       -1.91963594200960        1.48667603790274
C           91.71654232727558       -0.99228122700770        0.64419784274600
N           90.39252658871789       -1.29696167250384        0.72035625777542
N           87.41339595907290       -1.32540798893788        0.86321364907398
C           88.60722442428190        4.24098877809472       -2.75109309148596
C           88.84724363480198        5.43288081234745       -2.05528445176058
C           88.81885069013933        6.66003075621161       -2.71501805978317
C           88.54448016463266        6.71347156921334       -4.07860593195248
C           88.29272064191933        5.53809590553399       -4.78052146076469
C           88.31910946396269        4.31086241300917       -4.12062641140515
H           93.44735290229117        0.04224490994368        0.03128919458671
H           93.32518416540479        1.93472483195494       -2.01639224814608
H           91.38032010662576        3.48465897703598       -3.08075031295227
H           89.60999922236550        0.70501540536888       -0.45905289258246
H           85.98960174863825        3.90761547096602       -2.21814284675338
H           84.22826738735093        2.36685893669086       -1.12535844141428
H           84.52247933206488       -2.81677604032341        0.57259416533011
H           86.47913175288092       -4.37224137997733        1.59038667017567
H           89.79914139166674       -5.59497303118316        1.39170752935799
H           89.82028636047444       -7.51466261345405        2.96280942779796
H           89.17115975255686       -7.18117876528551        5.33717812845245
H           88.50392169423149       -4.92322744087645        6.12769879364259
H           88.48578984237075       -3.01226483576462        4.54852684276793
H           91.78673818997542       -3.54359719668533        2.72997965394020
H           93.52022198265651       -1.92400856278922        1.63727972381415
H           88.09663474306136       -0.59464690501011        0.69711505887961
H           89.05763033517830        5.38764057064695       -0.99027599995061
H           89.01447654056273        7.57395169531658       -2.16008377966878
H           88.52399510835829        7.67039324338473       -4.59291656051098
H           88.07583115026482        5.57264056668374       -5.84502797606299
H           88.12096115327167        3.39136009558598       -4.66414339084225
C           47.40595988534851        0.00283380121683        0.00257308243672
C           46.17403842621689       -0.01014023188531       -0.00578099952106
C           44.76649184058692       -0.00178279484909       -0.01672655865657
C           43.53926123154584        0.00417001429714       -0.00762897710760
C           48.79344836798249        0.00076951846075        0.00128853443737
C           50.02458659480216        0.02503956151003        0.00957142151193
C           63.71098720303566        0.00338266196530        0.00218164185556
C           62.47887361556360       -0.01042272236863       -0.00489355453412
C           61.09664212004958       -0.00595516746112       -0.01943117846229
C           59.86563981558122       -0.01678936646065       -0.01479340565918
C           65.09155369251863        0.00077484358953        0.00134853784839
C           66.32352466586158        0.02498682418361        0.00961126455928
C           80.01563387310352        0.00305689238881        0.00267990752556
C           78.78384452290318       -0.01008851085491       -0.00477345036813
C           77.39470511112584       -0.00593301476318       -0.01943419836529
C           76.16453057365642       -0.01681068034092       -0.01502032883823
C           81.42090734596513       -0.00324942932403        0.00348493119935
C           82.64875128622637        0.00415592550215       -0.00721044333013
C           51.40049585057001        0.01352689257383        0.03947851306842
C           52.16343419710708        1.09401529114722        0.80739864243466
C           51.65945328274893        1.93972073407581        1.78967239586717
C           52.69044038606432        2.82258148670137        2.17063241218255
C           53.82044758350636        2.50958770235750        1.42156547364960
N           53.49316648482350        1.41776157588446        0.64589692186737