238
 energy: -388.738782956208 gnorm: 3.625742487470 xtb: 6.5.1 (b24c23e)
C           38.70835800000000       -0.00720400000000       -0.05665100000000
C           39.43685100000000       -1.26538200000000        0.50795400000000
C           38.82824099999999       -2.42990100000000        0.91766700000000
C           39.85003000000000       -3.28116300000000        1.41251500000000
C           41.04809899999999       -2.60376800000000        1.29466300000000
N           40.78949200000000       -1.39663900000000        0.69497400000000
C           42.47058800000000       -3.10588200000000        1.78419400000000
C           43.60041900000000       -2.43065500000000        1.43935200000000
C           44.90505700000000       -2.82689400000000        1.92854300000000
C           45.80742300000000       -1.97663500000000        1.45324100000000
N           43.79669600000000       -1.32439100000000        0.65488400000000
C           45.12824799999999       -0.99960000000000        0.62489300000000
C           45.79589299999999        0.00290500000000       -0.00620100000000
C           45.01824300000000        1.03578000000000       -0.92689600000000
C           45.55863299999999        1.77116700000000       -1.96386100000000
C           44.53384100000000        2.60480000000000       -2.47671100000000
C           43.39359600000000        2.34744400000000       -1.74603600000000
C           41.98429700000000        3.05316100000000       -1.92944900000000
C           41.95705100000000        4.39147600000000       -2.56232600000000
C           41.58437499999999        4.53665400000000       -3.90462400000000
C           41.57343100000000        5.79866500000000       -4.50156100000000
C           41.93818800000000        6.92310500000000       -3.76002900000000
C           42.31357200000000        6.78642000000000       -2.42283000000000
C           42.32385300000000        5.52398800000000       -1.82635600000000
C           40.85866900000000        2.43186700000000       -1.49022900000000
C           39.53679000000000        3.02062100000000       -1.61330800000000
C           38.65097399999999        2.16850400000000       -1.10588400000000
C           39.37259700000000        1.01373300000000       -0.62988000000000
N           40.69368900000000        1.22154600000000       -0.87593100000000
N           43.68426000000000        1.35347600000000       -0.84140400000000
C           42.50805300000000       -4.29771400000000        2.66504400000000
C           42.25569600000000       -4.16924500000000        4.03598100000000
C           42.28026100000000       -5.29215900000000        4.86521700000000
C           42.55631800000000       -6.55014700000000        4.32755500000000
C           42.80807900000000       -6.68646400000000        2.96164700000000
C           42.78309600000000       -5.56340800000000        2.13269300000000
H           37.63052300000000        0.04116400000000        0.04147600000000
H           37.76987700000000       -2.63665000000000        0.88059900000000
H           39.72284199999999       -4.26793900000000        1.83166700000000
H           41.49070500000000       -0.70724800000000        0.43519600000000
H           45.11613300000000       -3.65835400000000        2.57714600000000
H           46.86095799999999       -2.02694300000000        1.65860200000000
H           46.58054900000000        1.72523600000000       -2.30809200000000
H           44.61835400000000        3.31650800000000       -3.28410900000000
H           41.30014100000000        3.65280800000000       -4.47180800000000
H           41.27914500000000        5.89677800000000       -5.54145700000000
H           41.92939600000000        7.90466800000000       -4.22298500000000
H           42.59860400000000        7.65602800000000       -1.83939500000000
H           42.61487900000000        5.40668500000000       -0.78471300000000
H           39.30894199999999        3.98120100000000       -2.03903400000000
H           37.58747000000000        2.31282700000000       -1.04808800000000
H           43.00096400000000        0.89207600000000       -0.24645700000000
H           42.04337600000000       -3.18346200000000        4.44419000000000
H           42.08501400000000       -5.17786900000000        5.92662200000000
H           42.57697599999999       -7.42271400000000        4.97263100000000
H           43.02588000000000       -7.66098300000000        2.53669000000000
H           42.98104200000000       -5.65627700000000        1.06702000000000
C           87.47739499999999       -0.03840100000000       -0.03687900000000
C           86.74890300000000        1.00928200000000       -0.93362300000000
C           87.35751200000000        1.87691500000000       -1.81179300000000
C           86.33572300000000        2.68780700000000       -2.37034200000000
C           85.13765500000000        2.29205600000000       -1.80808400000000
N           85.39626099999998        1.23443900000000       -0.97248100000000
C           83.71516600000000        2.94909000000000       -2.05316600000000
C           82.58533399999999        2.34899700000000       -1.58977000000000
C           81.28069600000001        2.96052600000000       -1.73925600000000
C           80.37833000000001        2.16773700000000       -1.17327100000000
N           82.38905800000001        1.16734300000000       -0.92426100000000
C           81.05750499999999        1.00157000000000       -0.64335600000000
C           80.38985999999998        0.00290500000000       -0.00620100000000
C           81.16751099999999       -1.27061000000000        0.53478700000000
C           80.62711999999999       -2.52227200000000        0.75712200000000
C           81.65191200000000       -3.34191800000000        1.29204300000000
C           82.79215700000000       -2.57130300000000        1.37123900000000
C           84.20145700000000       -3.03843100000000        1.93112000000000
C           84.22870200000000       -4.18206400000000        2.87118700000000
C           84.60137800000000       -5.45788100000000        2.42945000000000
C           84.61232299999999       -6.53644000000000        3.31585600000000
C           84.24756499999999       -6.34589000000000        4.64924500000000
C           83.87218100000000       -5.07831000000000        5.09648700000000
C           83.86190000000001       -3.99999100000000        4.20950100000000
C           85.32708400000000       -2.37601700000000        1.55678500000000
C           86.64896400000001       -2.73865400000000        2.03665400000000
C           87.53477899999999       -1.91602500000000        1.48270100000000
C           86.81315600000001       -0.99260700000000        0.64164500000000
N           85.49206400000000       -1.30382500000000        0.72453200000000
N           82.50149300000000       -1.32892300000000        0.85857700000000
C           83.67769999999999        4.25443100000000       -2.75490900000000
C           83.93005700000001        5.43932800000000       -2.05348700000000
C           83.90549199999998        6.66857400000000       -2.71494100000000
C           83.62943600000000        6.71939600000000       -4.08206700000000
C           83.37767400000000        5.54239800000000       -4.78843900000000
C           83.40265700000000        4.31334600000000       -4.12673600000000
H           88.55522999999998        0.02968700000000        0.04874900000000
H           88.41587600000000        1.93165500000000       -2.01458100000000
H           86.46291100000001        3.48809700000000       -3.08374900000000
H           84.69504800000000        0.70522200000000       -0.45996200000000
H           81.06962000000000        3.90200500000000       -2.21425900000000
H           79.32479599999999        2.37492200000000       -1.13109600000000
H           79.60520500000000       -2.81395200000000        0.56863600000000
H           81.56740000000001       -4.37587300000000        1.59096700000000
H           84.88561199999998       -5.59347500000000        1.38805800000000
H           84.90660800000001       -7.51870200000000        2.96065300000000
H           84.25635699999999       -7.18356800000000        5.33923900000000
H           83.58714900000000       -4.92194200000000        6.13193900000000
H           83.57087400000000       -3.00795700000000        4.54809700000000
H           86.87681099999999       -3.53370600000000        2.72356600000000
H           88.59828300000000       -1.92537100000000        1.63788600000000
H           83.18478899999999       -0.59394200000000        0.69531200000000
H           84.14237700000000        5.38764400000000       -0.98778000000000
H           84.10073899999999        7.57961300000000       -2.15847900000000
H           83.60877700000000        7.67523400000000       -4.59574900000000
H           83.15987300000000        5.57412700000000       -5.85111000000000
H           83.20471100000000        3.38930300000000       -4.66565000000000
C           49.15371000000000        0.01563700000000       -0.00367600000000
C           47.90144000000000       -0.00354400000000       -0.00802400000000
C           50.46737800000000        0.01487100000000       -0.00174300000000
C           51.97051199999999       -0.00354400000000       -0.00802400000000
C           62.35364600000000        0.01563700000000       -0.00367600000000
C           61.10137500000000       -0.00354400000000       -0.00802400000000
C           63.66731400000000        0.01487100000000       -0.00174300000000
C           65.17044799999999       -0.00354400000000       -0.00802400000000
C           75.55358200000001        0.01563700000000       -0.00367600000000
C           74.30131100000000       -0.00354400000000       -0.00802400000000
C           76.86725000000000        0.01487100000000       -0.00174300000000
C           78.37038300000000       -0.00354400000000       -0.00802400000000
C           52.91595500000000       -0.00257700000000        0.00717100000000
C           53.70960699999999        1.10724600000000        0.81313100000000
C           53.20287999999999        1.93198800000000        1.79702500000000
C           54.23977900000000        2.82068700000000        2.18026400000000
C           55.34922099999999        2.50588500000000        1.42402000000000
N           55.03826900000000        1.41511000000000        0.65122000000000
C           56.73884700000000        3.26599700000000        1.43266400000000
C           57.87365500000000        2.61215600000000        1.06901200000000
C           59.16058600000000        3.27347100000000        1.00307300000000
C           60.06854800000000        2.38518500000000        0.61339400000000
N           58.08168599999999        1.31350100000000        0.69408400000000
C           59.40619400000000        1.11224900000000        0.41090700000000
C           60.06999200000000       -0.00257700000000        0.00717100000000
C           59.27635600000000       -1.35850000000000       -0.19970800000000
C           59.78312300000000       -2.63671100000000       -0.07974700000000
C           58.74622100000000       -3.53820900000000       -0.43182500000000
C           57.63673799999999       -2.78273200000000       -0.74831300000000
C           56.24708600000000       -3.32945400000000       -1.27638600000000
C           56.25621200000000       -4.60767400000000       -2.02621400000000
C           56.73427399999999       -4.64792800000000       -3.34109900000000
C           56.75927900000000       -5.85291900000000       -4.04611900000000
C           56.30848999999999       -7.02584100000000       -3.43909200000000
C           55.83354799999999       -6.99533800000000       -2.12740800000000
C           55.80949100000000       -5.79028900000000       -1.42281300000000
C           55.11228800000000       -2.60875500000000       -1.07547300000000
C           53.82535099999999       -3.03279000000000       -1.58721100000000
C           52.91739300000000       -2.12705700000000       -1.24000900000000
C           53.57975299999999       -1.07931300000000       -0.48929100000000
N           54.90426500000000       -1.42149400000000       -0.42934700000000
N           57.94767399999999       -1.46368300000000       -0.53119600000000
C           56.72960100000000        4.70226600000000        1.79766700000000
C           56.25133800000000        5.65498200000000        0.89064700000000
C           56.22601800000000        7.00765100000000        1.23608600000000
C           56.67669500000000        7.41542500000000        2.49229000000000
C           57.15186700000000        6.47190300000000        3.40387500000000
C           57.17624400000000        5.11948800000000        3.05809300000000
H           52.19444900000000        1.91379500000000        2.18140600000000
H           54.17917400000000        3.61432700000000        2.90973400000000
H           55.69937300000000        0.89250000000000        0.08388700000000
H           59.35522300000000        4.30855000000000        1.22018200000000
H           61.11299000000000        2.59597700000000        0.47368100000000
H           60.79158300000000       -2.89395700000000        0.20634500000000
H           58.80685200000000       -4.61545500000000       -0.47091200000000
H           57.08458899999999       -3.72870300000000       -3.80561400000000
H           57.13102100000000       -5.86853200000000       -5.06564400000000
H           56.32727199999999       -7.96201500000000       -3.98784000000000
H           55.48056699999999       -7.90303400000000       -1.64871500000000
H           55.43998900000000       -5.75427500000000       -0.40015300000000
H           53.63070800000000       -3.92162600000000       -2.16035600000000
H           51.87295000000000       -2.17878200000000       -1.48754800000000
H           57.28654800000000       -0.69319200000000       -0.56729300000000
H           55.90107000000000        5.32752200000000       -0.08585500000000
H           55.85409000000000        7.73525300000000        0.52185400000000
H           56.65763100000000        8.46703500000000        2.75996800000000
H           57.50474600000000        6.78120400000000        4.38237900000000
H           57.54587899999999        4.37516700000000        3.76024200000000
C           66.11589100000000       -0.00257700000000        0.00717100000000
C           66.90954200000000        1.10724600000000        0.81313100000000
C           66.40281600000000        1.93198800000000        1.79702500000000
C           67.43971500000001        2.82068700000000        2.18026400000000
C           68.54915699999998        2.50588500000000        1.42402000000000
N           68.23820499999998        1.41511000000000        0.65122000000000
C           69.93878300000000        3.26599700000000        1.43266400000000
C           71.07359099999999        2.61215600000000        1.06901200000000
C           72.36052200000000        3.27347100000000        1.00307300000000
C           73.26848400000000        2.38518500000000        0.61339400000000
N           71.28162200000000        1.31350100000000        0.69408400000000
C           72.60612999999999        1.11224900000000        0.41090700000000
C           73.26992799999999       -0.00257700000000        0.00717100000000
C           72.47629200000000       -1.35850000000000       -0.19970800000000
C           72.98305800000000       -2.63671100000000       -0.07974700000000
C           71.94615700000000       -3.53820900000000       -0.43182500000000
C           70.83667400000000       -2.78273200000000       -0.74831300000000
C           69.44702200000000       -3.32945400000000       -1.27638600000000
C           69.45614800000000       -4.60767400000000       -2.02621400000000
C           69.93420999999999       -4.64792800000000       -3.34109900000000
C           69.95921500000000       -5.85291900000000       -4.04611900000000
C           69.50842600000000       -7.02584100000000       -3.43909200000000
C           69.03348399999999       -6.99533800000000       -2.12740800000000
C           69.00942700000000       -5.79028900000000       -1.42281300000000
C           68.31222400000000       -2.60875500000000       -1.07547300000000
C           67.02528700000001       -3.03279000000000       -1.58721100000000
C           66.11732800000000       -2.12705700000000       -1.24000900000000
C           66.77968900000000       -1.07931300000000       -0.48929100000000
N           68.10420100000000       -1.42149400000000       -0.42934700000000
N           71.14761000000000       -1.46368300000000       -0.53119600000000
C           69.92953699999998        4.70226600000000        1.79766700000000
C           69.45127299999999        5.65498200000000        0.89064700000000
C           69.42595400000000        7.00765100000000        1.23608600000000
C           69.87663100000000        7.41542500000000        2.49229000000000
C           70.35180300000000        6.47190300000000        3.40387500000000
C           70.37618000000001        5.11948800000000        3.05809300000000
H           65.39438500000000        1.91379500000000        2.18140600000000
H           67.37911000000000        3.61432700000000        2.90973400000000
H           68.89930900000000        0.89250000000000        0.08388700000000
H           72.55515899999999        4.30855000000000        1.22018200000000
H           74.31292500000001        2.59597700000000        0.47368100000000
H           73.99151900000000       -2.89395700000000        0.20634500000000
H           72.00678799999999       -4.61545500000000       -0.47091200000000
H           70.28452500000000       -3.72870300000000       -3.80561400000000
H           70.33095700000000       -5.86853200000000       -5.06564400000000
H           69.52720800000000       -7.96201500000000       -3.98784000000000
H           68.68050199999999       -7.90303400000000       -1.64871500000000
H           68.63992500000001       -5.75427500000000       -0.40015300000000
H           66.83064299999999       -3.92162600000000       -2.16035600000000
H           65.07288600000000       -2.17878200000000       -1.48754800000000
H           70.48648400000000       -0.69319200000000       -0.56729300000000
H           69.10100599999998        5.32752200000000       -0.08585500000000
H           69.05402599999999        7.73525300000000        0.52185400000000
H           69.85756700000000        8.46703500000000        2.75996800000000
H           70.70468200000001        6.78120400000000        4.38237900000000
H           70.74581499999999        4.37516700000000        3.76024200000000
238
 energy: -389.944050342982 gnorm: 0.898941802015 xtb: 6.5.1 (b24c23e)
C           38.71554142656569       -0.01925239756685       -0.05115360955793
C           39.43344708735891       -1.25658841085271        0.50378782131123
C           38.82967914426792       -2.43265603429173        0.91970987785267
C           39.84740760343691       -3.28016316043877        1.41263135547955
C           41.05766827486607       -2.60590428109595        1.29693454015252
N           40.78961117862134       -1.39643384058502        0.69537345977700
C           42.45797772593561       -3.10060198297917        1.77938030531253
C           43.60307502968865       -2.42831282142884        1.43831582950574
C           44.90566791654096       -2.82918337434225        1.93031264886445
C           45.81052214710312       -1.97713501483275        1.45385902561746
N           43.79426797003932       -1.32156271147725        0.65339864511173
C           45.13038443609111       -1.00046604008057        0.62599076217442
C           45.79986959137307        0.01063085401132       -0.01522848729533
C           45.02468195256312        1.02849195453891       -0.92090505315111
C           45.55794718892393        1.77371084609540       -1.96474224016098
C           44.53633954630299        2.60421895877292       -2.47582897312992
C           43.38453254288890        2.35058351274213       -1.74627150376955
C           41.99638026699763        3.04655812228830       -1.92725645301946
C           41.95848446289011        4.39050826923759       -2.56262850371305
C           41.58429562483892        4.53718984079787       -3.90419139382901
C           41.57364575331140        5.79817799321851       -4.50022663957912
C           41.93820057567944        6.92218835643750       -3.75957436087054
C           42.31317897514275        6.78509664192519       -2.42324089601929
C           42.32394680208496        5.52402459676392       -1.82710914301007
C           40.85621789622014        2.43034092905056       -1.48865129024505
C           39.53606969479673        3.02344098536886       -1.61470678041422
C           38.64847739868902        2.16999345017032       -1.10631190988124
C           39.37469359138182        1.01619275127605       -0.63087090182099
N           40.69699596515650        1.21941017340191       -0.87501131884806
N           43.68484818408049        1.35348930022014       -0.84071125771406
C           42.50673705068518       -4.29737403538457        2.66424215936824
C           42.25564278721856       -4.16989440875678        4.03560291830028
C           42.28054841608044       -5.29194260189099        4.86382694998238
C           42.55630439477557       -6.54931414341838        4.32695055260283
C           42.80792834136798       -6.68506730043450        2.96188674965172
C           42.78311901399736       -5.56326192409598        2.13339097176325
H           37.63229629201017        0.03933407708778        0.04171908782365
H           37.77033428026953       -2.63708824155244        0.88080089427722
H           39.72251829766491       -4.26763832306700        1.83145709751773
H           41.49034422091516       -0.70763377796980        0.43538178639031
H           45.11553379995139       -3.65947900244114        2.57784773392670
H           46.86249994933991       -2.02599512706988        1.65811811561713
H           46.58025630088725        1.72551989173798       -2.30808386051759
H           44.61871660627854        3.31615798043394       -3.28383282739101
H           41.30034352344369        3.65343336018459       -4.47167822955886
H           41.27930010735044        5.89683482707828       -5.54105756116902
H           41.92942178594048        7.90434744432066       -4.22284466398770
H           42.59845749781382        7.65574219605503       -1.83970435736651
H           42.61478004643033        5.40694036742657       -0.78529365370681
H           39.30947870779978        3.98245882736231       -2.03976651954765
H           37.58623993632683        2.31253875554188       -1.04783954285158
H           43.00148929162041        0.89236090292719       -0.24674363068963
H           42.04343250324236       -3.18411226920011        4.44413985405354
H           42.08511081679014       -5.17801604210740        5.92621717320024
H           42.57694636891647       -7.42243335154420        4.97241545974776
H           43.02576259300848       -7.66064837270479        2.53694613378351
H           42.98088451970607       -5.65644600796463        1.06764773228363
C           87.47024632483608       -0.02836901897789       -0.04535580814891
C           86.75230387625203        1.00185379567341       -0.92754381627893
C           87.35610030628145        1.87984326853326       -1.81334695475887
C           86.33821766020972        2.68750593889497       -2.36939682288101
C           85.12826281286458        2.29500740550857       -1.80906051526723
N           85.39616010803113        1.23473647097313       -0.97211753303955
C           83.72751549521344        2.94246277084195       -2.05042019983908
C           82.58277523297347        2.34722320903715       -1.58827917620662
C           81.28013307256171        2.96315364359740       -1.74059318629329
C           80.37527831886531        2.16854022833880       -1.17346755277894
N           82.39110101307153        1.16452504935970       -0.92211708345320
C           81.05561130298136        1.00341124469559       -0.64369152970335
C           80.38315241262053       -0.00861608215703       -0.00292386545342
C           81.16104613080005       -1.26251715800429        0.53069581344689
C           80.62780348325933       -2.52405636640942        0.75896280730173
C           81.64956922503185       -3.34088582049912        1.29193149600715
C           82.80107379901941       -2.57290787629811        1.37394713183260
C           84.18949050960079       -3.03363878702839        1.92612176874125
C           84.22727410355682       -4.18190965669248        2.87018800608248
C           84.60145754139643       -5.45771570973298        2.43012195659835
C           84.61210806401010       -6.53502413958453        3.31598464021968
C           84.24755258641932       -6.34508837096512        4.64861106255028
C           83.87257218195045       -5.07811498505709        5.09511512611896
C           83.86180515091817       -4.00069214251927        4.20921565671724
C           85.32950975171450       -2.37399559114379        1.55609702301779
C           86.64968798008967       -2.74112068966453        2.03860661767132
C           87.53727322222829       -1.91705163039522        1.48386846330437
C           86.81110248432387       -0.99453155736253        0.64342823699135
N           85.48873411700183       -1.30206641901201        0.72297218221418
N           82.50082483978206       -1.32826385722366        0.85884972496804
C           83.67900786036732        4.25355984694909       -2.75493063181107
C           83.93010907534082        5.43926284190907       -2.05423879240463
C           83.90520557737146        6.66722395009349       -2.71533675881387
C           83.62944937364166        6.71849404691198       -4.08157240728197
C           83.37782575989974        5.54201673943128       -4.78707321812912
C           83.40263847326199        4.31391418873450       -4.12629965901943
H           88.55346242161031        0.03068753409394        0.04720717470651
H           88.41542254785712        1.93202057886989       -2.01488532525191
H           86.46322651111245        3.48778485881709       -3.08356603917252
H           84.69541276213896        0.70555676474232       -0.46023202090995
H           81.07021528782019        3.90312867879528       -2.21497867844933
H           79.32323478677375        2.37405745570889       -1.13044119078648
H           79.60548132991613       -2.81404261343727        0.56890176187196
H           81.56704260112309       -4.37547207284172        1.59077961999722
H           84.88540991248330       -5.59362434873982        1.38867888652889
H           84.90645315726297       -7.51836737867158        2.96087481625503
H           84.25633118674325       -7.18330576362160        5.33901008058675
H           83.58729524135130       -4.92210068853065        6.13155009287701
H           83.57097304527066       -3.00859218461843        4.54808039010860
H           86.87627628129459       -3.53490701692892        2.72439255370512
H           88.59951564538379       -1.92502416865460        1.63773240042917
H           83.18425728066757       -0.59431981200136        0.69544326270581
H           84.14232003450809        5.38787699586856       -0.98839003146844
H           84.10064255239845        7.57931246863894       -2.15878469249924
H           83.60880674024709        7.67492151249176       -4.59558855023068
H           83.15998988247674        5.57421680826938       -5.85069966312521
H           83.20486782841749        3.38994313509444       -4.66553426308228
C           49.14900046749219        0.01534957255409       -0.00384836860440
C           47.88818199498662       -0.00327824416316       -0.00827961463439
C           50.46883242333473        0.01572195446959       -0.00178744262557
C           51.81344012765708        0.00376926004123       -0.00791265913030
C           62.38740038105750        0.01475918138088       -0.00459407639423
C           61.17975963106596       -0.00900234581077       -0.01204625820034
C           63.66816603023180        0.01610401522112       -0.00186401642741
C           65.01472230057672        0.00380150068720       -0.00791911318555
C           75.58744949264874        0.01493130747822       -0.00439391971148
C           74.38221596880136       -0.00890157958736       -0.01190721448848
C           76.90130659596552        0.01470042155204       -0.00166925969267
C           78.35555009099987       -0.00334949421495       -0.00796172426335
C           53.03256998007013        0.00518025496050        0.01565883053097
C           53.71925755677308        1.10828680020671        0.81518675725907
C           53.20364237409691        1.93292752329945        1.79639743063229
C           54.23896853255302        2.82072584337477        2.17919324859620
C           55.35676735467042        2.50973919327170        1.42471384279117
N           55.03992468466846        1.41728370231137        0.65086479321307
C           56.72968675144190        3.25913137700767        1.43164711206517
C           57.87473125750210        2.61393896912143        1.06904646829805
C           59.16065538228686        3.27730981536992        1.00416550495040
C           60.07038441777296        2.38511433227416        0.61301740228705
N           58.07976797631934        1.31027833664159        0.69302013131717
C           59.38318554231711        1.12647036790487        0.41647380654401
C           59.98637368251723       -0.01409279085873        0.00759949064233
C           59.26980347794979       -1.35827907796956       -0.19943432621427
C           59.78218977225769       -2.63706399902560       -0.08088996477351
C           58.74721250592782       -3.53755987094268       -0.43260700600333
C           57.62885755079121       -2.78602490866630       -0.75064971915291
C           56.25708212715001       -3.32403542958578       -1.27217045809669