226
 energy: -401.756802382597 gnorm: 1.291882159402 xtb: 6.5.1 (b24c23e)
Fe          36.12145400000000        0.01378900000000       -0.01470000000000
C           32.75542000000000       -0.10036300000000       -0.04663600000000
C           33.41835800000000       -1.25878900000000        0.01091700000000
C           32.76672300000000       -2.56171900000000        0.06972800000000
C           33.70658100000000       -3.48209100000000        0.17665400000000
C           35.01274300000000       -2.80931600000000        0.19060700000000
N           34.83658300000000       -1.39640300000000        0.08067100000000
C           36.20163800000000       -3.42724800000000        0.34414800000000
C           36.23741300000000       -4.89844100000000        0.49449200000000
C           36.44268599999999       -5.47490000000000        1.75503100000000
C           36.47135600000000       -6.86620300000000        1.87602900000000
N           36.29869400000000       -7.65003100000000        0.77830400000000
C           36.09675400000000       -7.11508000000000       -0.45545200000000
C           36.06341500000000       -5.72841000000000       -0.62121900000000
C           37.49588000000000       -2.69649800000000        0.38403800000000
C           38.78589599999999       -3.33419100000000        0.67350200000000
C           39.72052500000000       -2.40994900000000        0.58972400000000
N           37.63773700000000       -1.43233700000000        0.12489000000000
C           39.03689900000000       -1.17221900000000        0.23674700000000
C           39.63328499999999        0.00495000000000       -0.01551900000000
C           38.87542199999999        1.22081600000000       -0.38881800000000
C           39.41871600000000        2.29426900000000       -0.94868100000000
C           38.37604400000000        3.29384100000000       -1.06677700000000
C           37.26438899999999        2.76707000000000       -0.56774800000000
N           37.48913900000000        1.43001400000000       -0.11728200000000
C           35.97928200000000        3.50032400000000       -0.43083900000000
C           36.00213000000000        4.98296500000000       -0.47803400000000
C           35.34041700000000        5.67689800000000       -1.50158000000000
C           35.38462699999999        7.07280500000000       -1.52436800000000
N           36.07126200000000        7.74999000000000       -0.56561600000000
C           36.73046400000000        7.10210700000000        0.43091800000000
C           36.71156300000000        5.70677200000000        0.49137400000000
C           34.81239100000000        2.85154500000000       -0.25351800000000
C           33.50018400000000        3.46784100000000       -0.06365400000000
C           32.63794400000000        2.47431000000000        0.03015200000000
C           33.39033500000000        1.22636400000000       -0.08522400000000
N           34.65869800000000        1.43353200000000       -0.25071000000000
H           31.67227000000000       -0.12834500000000       -0.04683200000000
H           31.70233700000000       -2.75625600000000        0.04457900000000
H           33.51804500000000       -4.54507200000000        0.25424900000000
H           36.57908800000000       -4.85348900000000        2.63147500000000
H           36.63017000000000       -7.32334800000000        2.84349000000000
H           35.96158100000000       -7.76664200000000       -1.30837900000000
H           35.90198000000000       -5.30541900000000       -1.60495000000000
H           38.96399100000000       -4.37491200000000        0.90824000000000
H           40.77828200000000       -2.57307400000000        0.74376100000000
H           40.45189499999999        2.41937300000000       -1.24233900000000
H           38.49402799999999        4.29295500000000       -1.46455200000000
H           34.79977299999999        5.14222400000000       -2.27185100000000
H           34.87396800000000        7.61827000000000       -2.30669200000000
H           37.26872099999999        7.67035800000000        1.17805800000000
H           37.23705700000000        5.19567200000000        1.28861000000000
H           33.25566000000000        4.52018100000000       -0.00282800000000
H           31.57082400000000        2.57882000000000        0.17639700000000
Fe          78.43403899999998       -0.00326900000000       -0.01216500000000
C           81.80007300000000        0.09666700000000       -0.07591000000000
C           81.13713500000000        1.22178600000000       -0.35763800000000
C           81.78876999999999        2.48553200000000       -0.68017500000000
C           80.84891199999998        3.39723500000000       -0.84545300000000
C           79.54275000000000        2.75757900000000       -0.63650300000000
N           79.71890999999999        1.37373600000000       -0.33090600000000
C           78.35385500000000        3.39345700000000       -0.66924900000000
C           78.31807999999999        4.84481000000000       -0.95312700000000
C           78.11280700000000        5.76285200000000        0.08536400000000
C           78.08413699999998        7.12923400000000       -0.20336500000000
N           78.25679900000000        7.56005600000000       -1.48155900000000
C           78.45873899999999        6.68951600000000       -2.50649200000000
C           78.49207800000001        5.31455100000000       -2.26194500000000
C           77.05961300000000        2.70587100000000       -0.41862800000000
C           75.76959700000000        3.40017500000000       -0.32706700000000
C           74.83496800000000        2.49150000000000       -0.13851700000000
N           76.91775600000000        1.42097300000000       -0.29904500000000
C           75.51859399999998        1.20461300000000       -0.11639400000000
C           74.92220800000000        0.00495000000000       -0.01551900000000
C           75.68007099999998       -1.26692600000000       -0.01919800000000
C           75.13677700000000       -2.45678100000000       -0.24278600000000
C           76.17944899999999       -3.44751000000000       -0.06517000000000
C           77.29110400000000       -2.79840800000000        0.25915200000000
N           77.06635400000000       -1.38814200000000        0.30143000000000
C           78.57621100000000       -3.46018400000000        0.60333000000000
C           78.55336300000000       -4.89250100000000        0.98922900000000
C           79.21507600000000       -5.85403900000000        0.21164800000000
C           79.17086600000000       -7.19627400000000        0.59568300000000
N           78.48423099999999       -7.56546400000000        1.70990200000000
C           77.82502899999999       -6.65584000000000        2.47502700000000
C           77.84393000000000       -5.30320200000000        2.12719900000000
C           79.74310199999999       -2.78787700000000        0.58436800000000
C           81.05530899999999       -3.32235000000000        0.94520900000000
C           81.91754899999999       -2.34446400000000        0.74610900000000
C           81.16515800000001       -1.18396800000000        0.27289500000000
N           79.89679500000000       -1.43030000000000        0.17478900000000
H           82.88322300000000        0.12338400000000       -0.08423300000000
H           82.85315600000000        2.66435400000000       -0.76079600000000
H           81.03744800000000        4.43685900000000       -1.08025600000000
H           77.97640500000000        5.42309700000000        1.10461400000000
H           77.92532300000001        7.84790600000000        0.58939600000000
H           78.59391199999999        7.06495700000000       -3.51200700000000
H           78.65351300000000        4.62382700000000       -3.08020400000000
H           75.59150200000001        4.46418800000000       -0.40504300000000
H           73.77721099999999        2.69236300000000       -0.03856000000000
H           74.10359799999999       -2.66185800000000       -0.48738700000000
H           76.06146499999998       -4.51911300000000       -0.15528500000000
H           79.75571999999998       -5.56640700000000       -0.68079900000000
H           79.68152499999999       -7.94562500000000        0.00573900000000
H           77.28677200000000       -6.98232400000000        3.35510400000000
H           77.31843600000001       -4.58239500000000        2.74140200000000
H           81.29983300000001       -4.31154900000000        1.30936100000000
H           82.98466899999998       -2.40194100000000        0.91642200000000
C           43.22019700000000        0.01800900000000       -0.01290100000000
C           41.96792600000000       -0.00117100000000       -0.01725000000000
C           44.53386500000000        0.01724400000000       -0.01096900000000
C           46.03699800000000       -0.00117100000000       -0.01725000000000
C           56.53632900000000        0.01800900000000       -0.01290100000000
C           55.28405900000000       -0.00117100000000       -0.01725000000000
C           57.84999700000000        0.01724400000000       -0.01096900000000
C           59.35313100000000       -0.00117100000000       -0.01725000000000
C           69.85246100000001        0.01800900000000       -0.01290100000000
C           68.60019100000000       -0.00117100000000       -0.01725000000000
C           71.16612900000000        0.01724400000000       -0.01096900000000
C           72.66926300000000       -0.00117100000000       -0.01725000000000
Fe          50.54432099999999        0.02965000000000       -0.05208900000000
C           47.17667800000000       -0.00491100000000        0.01776400000000
C           47.83199900000000       -0.80320400000000        0.88048000000000
C           47.19112200000000       -1.62481700000000        1.90923700000000
C           48.12743600000000       -2.30917000000000        2.53583300000000
C           49.42468600000000       -1.96956800000000        1.94228600000000
N           49.24690900000000       -1.00825800000000        0.89885600000000
C           50.60907800000000       -2.49728300000000        2.31895600000000
C           50.64514200000000       -3.53368500000000        3.37702500000000
C           50.11756199999999       -4.81139500000000        3.14034100000000
C           50.17712000000000       -5.77596300000000        4.14891100000000
N           50.74766999999999       -5.47662400000000        5.34631400000000
C           51.27181200000000       -4.24770400000000        5.59917400000000
C           51.23219100000000       -3.25353900000000        4.61869300000000
C           51.90571400000000       -2.08321200000000        1.72460500000000
C           53.17383800000000       -2.78638400000000        1.95726700000000
C           54.12587199999999       -2.11740900000000        1.33888000000000
N           52.07356299999999       -1.02919300000000        0.98816400000000
C           53.47128500000000       -0.98262600000000        0.70097000000000
C           54.08624700000000       -0.00491100000000        0.01776400000000
C           53.33518599999999        1.09535100000000       -0.62187900000000
C           53.86768100000000        2.25277600000000       -0.99235300000000
C           52.83557299999999        2.99581400000000       -1.69065300000000
C           51.74455900000000        2.23851800000000       -1.70239800000000
N           51.97001600000000        1.00296600000000       -1.02605000000000
C           50.49184600000000        2.57944400000000       -2.41879600000000
C           50.55481300000000        3.56853300000000       -3.52309500000000
C           51.36179900000000        3.32336500000000       -4.64335400000000
C           51.42626200000000        4.27322200000000       -5.66553800000000
N           50.71600700000000        5.42858500000000       -5.56915000000000
C           49.93219900000000        5.69569700000000       -4.49079700000000
C           49.83978800000000        4.77336400000000       -3.44588400000000
C           49.32053599999999        1.99600400000000       -2.09860200000000
C           48.04561799999999        2.19678900000000       -2.77993300000000
C           47.15789200000000        1.48834000000000       -2.11227200000000
C           47.85477899999999        0.82478400000000       -1.00491500000000
N           49.11885900000000        1.11452400000000       -0.99353300000000
H           46.13644800000000       -1.68049400000000        2.14325100000000
H           47.94083300000000       -2.99340600000000        3.35318400000000
H           49.66773500000000       -5.05579700000000        2.18592300000000
H           49.77129400000000       -6.76418000000000        3.97867300000000
H           51.72048500000000       -4.04224700000000        6.56170600000000
H           51.65235800000000       -2.27649000000000        4.82369600000000
H           53.32325800000000       -3.69107200000000        2.53182400000000
H           55.17472899999999       -2.38244600000000        1.32703600000000
H           54.88945300000000        2.57349200000000       -0.83890100000000
H           52.94995500000000        3.96826600000000       -2.15184200000000
H           51.93099800000000        2.40543500000000       -4.72473900000000
H           52.04260200000000        4.09199800000000       -6.53589300000000
H           49.38267900000000        6.62630700000000       -4.44272300000000
H           49.22214899999999        4.99622400000000       -2.58450600000000
H           47.84196099999999        2.79165100000000       -3.66054100000000
H           46.10816100000000        1.41705100000000       -2.36321300000000
Fe          63.86045300000000        0.02965000000000       -0.05208900000000
C           60.49281100000000       -0.00491100000000        0.01776400000000
C           61.14813100000000       -0.80320400000000        0.88048000000000
C           60.50725400000000       -1.62481700000000        1.90923700000000
C           61.44356800000000       -2.30917000000000        2.53583300000000
C           62.74081799999999       -1.96956800000000        1.94228600000000
N           62.56304100000000       -1.00825800000000        0.89885600000000
C           63.92520999999999       -2.49728300000000        2.31895600000000
C           63.96127500000000       -3.53368500000000        3.37702500000000
C           63.43369400000000       -4.81139500000000        3.14034100000000
C           63.49325200000000       -5.77596300000000        4.14891100000000
N           64.06380299999999       -5.47662400000000        5.34631400000000
C           64.58794399999999       -4.24770400000000        5.59917400000000
C           64.54832300000000       -3.25353900000000        4.61869300000000
C           65.22184600000000       -2.08321200000000        1.72460500000000
C           66.48997000000000       -2.78638400000000        1.95726700000000
C           67.44200400000000       -2.11740900000000        1.33888000000000
N           65.38969500000000       -1.02919300000000        0.98816400000000
C           66.78741700000000       -0.98262600000000        0.70097000000000
C           67.40237900000000       -0.00491100000000        0.01776400000000
C           66.65131900000000        1.09535100000000       -0.62187900000000
C           67.18381400000000        2.25277600000000       -0.99235300000000
C           66.15170500000001        2.99581400000000       -1.69065300000000
C           65.06069200000000        2.23851800000000       -1.70239800000000
N           65.28614899999999        1.00296600000000       -1.02605000000000
C           63.80797900000000        2.57944400000000       -2.41879600000000
C           63.87094499999999        3.56853300000000       -3.52309500000000
C           64.67793100000000        3.32336500000000       -4.64335400000000
C           64.74239400000000        4.27322200000000       -5.66553800000000
N           64.03213900000000        5.42858500000000       -5.56915000000000
C           63.24833199999999        5.69569700000000       -4.49079700000000
C           63.15592000000000        4.77336400000000       -3.44588400000000
C           62.63666800000000        1.99600400000000       -2.09860200000000
C           61.36175000000000        2.19678900000000       -2.77993300000000
C           60.47402500000000        1.48834000000000       -2.11227200000000
C           61.17091100000000        0.82478400000000       -1.00491500000000
N           62.43499200000000        1.11452400000000       -0.99353300000000
H           59.45257999999999       -1.68049400000000        2.14325100000000
H           61.25696599999999       -2.99340600000000        3.35318400000000
H           62.98386700000000       -5.05579700000000        2.18592300000000
H           63.08742699999999       -6.76418000000000        3.97867300000000
H           65.03661700000001       -4.04224700000000        6.56170600000000
H           64.96849100000000       -2.27649000000000        4.82369600000000
H           66.63939100000000       -3.69107200000000        2.53182400000000
H           68.49086100000000       -2.38244600000000        1.32703600000000
H           68.20558499999999        2.57349200000000       -0.83890100000000
H           66.26608700000000        3.96826600000000       -2.15184200000000
H           65.24713000000000        2.40543500000000       -4.72473900000000
H           65.35873400000000        4.09199800000000       -6.53589300000000
H           62.69881100000000        6.62630700000000       -4.44272300000000
H           62.53828100000000        4.99622400000000       -2.58450600000000
H           61.15809300000000        2.79165100000000       -3.66054100000000
H           59.42429299999999        1.41705100000000       -2.36321300000000
226
 energy: -402.209818469672 gnorm: 0.609342206100 xtb: 6.5.1 (b24c23e)
Fe          36.12652274611662        0.01152880705971       -0.01690956492141
C           32.75659635661627       -0.08640077127890       -0.04681708610653
C           33.42517106098482       -1.25905160793626        0.01119373980744
C           32.76662116940832       -2.55550691593205        0.06903251286946
C           33.71524162677152       -3.48331860826412        0.17697141116371
C           35.01221639988908       -2.80148876586294        0.18935603392147
N           34.82783149678486       -1.40358553091529        0.08130778760447
C           36.21473890669259       -3.42219672523194        0.34493224284213
C           36.24027384172567       -4.89849438820645        0.49474487839477
C           36.44312129921738       -5.47707123151870        1.75151756143941
C           36.46914407495179       -6.86436392299071        1.86308734921248
N           36.29873323034269       -7.64899149264553        0.77817306563767
C           36.09850618802820       -7.11034361569467       -0.44307868333668
C           36.06350954441505       -5.72937319344096       -0.61696805577882
C           37.48969304862582       -2.70762110786505        0.38533450453553
C           38.77555570444447       -3.34204764846762        0.67285710185263
C           39.72086371467734       -2.40452449723198        0.58891719601471
N           37.64308866301590       -1.42424805131543        0.12727105074540
C           39.04656744311735       -1.16822817203042        0.23636233590302
C           39.63889447525242        0.01548305663729       -0.02036300332660
C           38.87628160208791        1.20782030693459       -0.37867228983037
C           39.42085640210193        2.31104315240365       -0.95418934739118
C           38.39284724118539        3.29471685733480       -1.06890408471676
C           37.25479556861681        2.75678458373109       -0.55790301085334
N           37.48901293857722        1.42562123952147       -0.12370646934918
C           35.98980205153502        3.49280280273322       -0.43061557691051
C           36.00696397508442        4.97996815153142       -0.47997350197037
C           35.34214646255849        5.67747847777750       -1.49737829642297
C           35.39180230119511        7.06915291941972       -1.51345220480758
N           36.07121987846894        7.74887314708023       -0.56578169838954
C           36.72272574875924        7.09820044409872        0.42060595850714
C           36.71022488434873        5.70757340658024        0.48778944926273
C           34.81213009623055        2.84840258516502       -0.25308684669438
C           33.50678699539242        3.46748014362357       -0.06467944689555
C           32.63114112171385        2.46473903310086        0.03000637747819
C           33.37703664404270        1.21786673742162       -0.08470333961301
N           34.66359787599278        1.43729787706814       -0.24545663444100
H           31.67278722644540       -0.12484200964031       -0.04667502114026
H           31.70276420277370       -2.75075798914856        0.04398411888090
H           33.52488181220792       -4.54521062784078        0.25432724070312
H           36.57882737421567       -4.85408733366850        2.62999781565186
H           36.62902090425707       -7.32530665723124        2.83690877898966
H           35.96276184427465       -7.76706578998775       -1.30151048364018
H           35.90244097076284       -5.30555218479217       -1.60327735667134
H           38.95846551927029       -4.37779715450850        0.90820804439452
H           40.77803388409992       -2.56686050199569        0.74250344132032
H           40.45258672545203        2.42262991932319       -1.24384666738212
H           38.49711224710577        4.29258710960892       -1.46579337882117
H           34.80070589085272        5.14239533485896       -2.27066421660907
H           34.87797994745685        7.61934023881725       -2.30102293851058
H           37.26478032631906        7.67124973801315        1.17225637656958
H           37.23629247552975        5.19588781182824        1.28732388918687
H           33.26192764421921        4.51948422829474       -0.00371969196821
H           31.56865892771920        2.57413442290310        0.17646077767940
Fe          78.42899585207481       -0.00174942705750       -0.01494622496180
C           81.79888147094533        0.08323414103833       -0.07202000517612
C           81.13030165035093        1.22214161658301       -0.35747074361002
C           81.78889062431699        2.47941340421456       -0.67904009833346
C           80.84027200614649        3.39850865963970       -0.84550125883231
C           79.54332175826295        2.74960123928405       -0.63542701016738
N           79.72780244940391        1.38098316687216       -0.33241912536390
C           78.34055797514449        3.38877066284339       -0.66700220467706
C           78.31518633368988        4.84492520433529       -0.95289441535007
C           78.11237330475662        5.76390513630513        0.08137252053071
C           78.08634943883261        7.12371612142489       -0.21521479844489
N           78.25676550794523        7.55901470994441       -1.48137901751436
C           78.45698725053808        6.68858263687843       -2.49327432302090
C           78.49198350689890        5.31670061119429       -2.25815256914214
C           77.06583467304084        2.71685885256354       -0.42059844268876
C           75.77994552069175        3.40752036113752       -0.32997489872013
C           74.83453862242207        2.48623380442475       -0.13770329468434
N           76.91196687194314        1.41348756894199       -0.29429972901221
C           75.50824357754682        1.20080145903175       -0.11568634055979
C           74.91359102699077       -0.00658234223876       -0.01709336638904
C           75.67850827921136       -1.25156337946662       -0.01319334694552
C           75.13453361143839       -2.47470858432121       -0.24321924133409
C           76.16247831716692       -3.44892553453164       -0.06695520240205
C           77.30062848276464       -2.78553852042729        0.26554962307128
N           77.06604088558302       -1.38567237666092        0.29403748461022
C           78.56561447030376       -3.45285699064333        0.60133288610657
C           78.54851021384344       -4.89018409629367        0.98648679407211
C           79.21334582921683       -5.85336614550203        0.21583643271402
C           79.16368973274896       -7.18960498569241        0.60506662569088
N           78.48427675572859       -7.56443707810836        1.70941964892719
C           77.83276836820301       -6.65510219081595        2.46402331588606
C           77.84526896285597       -5.30500673706507        2.12399903078051
C           79.74335480263093       -2.78469100945096        0.58386659421481
C           81.04869850970144       -3.32229442343665        0.94411848644068
C           81.92434962441216       -2.33534265386606        0.74317935775230
C           81.17846048255832       -1.17566774164477        0.27090815401341
N           79.89183261298689       -1.43234075795535        0.18096408326891
H           82.88270033384288        0.12007454492388       -0.08305920447737
H           82.85273697990775        2.65892681727507       -0.75976738563817
H           81.03060812342515        4.43701816267146       -1.08022056372092
H           77.97666444967018        5.42323917312021        1.10302795362120
H           77.92647112237727        7.84786638732190        0.58252892334889
H           78.59273016441506        7.06735787487054       -3.50555669952114
H           78.65305038454305        4.62443937427947       -3.07864215310255
H           75.59702426888836        4.46693190591798       -0.40591757496409
H           73.77738025932274        2.68604810008830       -0.03797664076252
H           74.10282501294205       -2.66547908062087       -0.48787383589876
H           76.05835868438038       -4.51909774910137       -0.15657856226934
H           79.75478588724194       -5.56622547699015       -0.67961481734505
H           79.67751206054335       -7.94499934797985        0.01147445193532
H           77.29071281926389       -6.98486350644808        3.34981074484753
H           77.31919952397011       -4.58297499264427        2.74023476926175
H           81.29356083088054       -4.31113762000682        1.30830201316145
H           82.98683211887207       -2.39743948304999        0.91511891107931
C           43.21407232569697        0.01799937538680       -0.01329363786345
C           41.95227117858969        0.00011074081574       -0.01754631646473
C           44.55791473324926        0.01686891335671       -0.01029698398314
C           45.90576776928961        0.00331044377454       -0.02137026446950
C           56.57921977716515        0.01899766538718       -0.01478238162404
C           55.33713566745124        0.00683821232707       -0.02385156961649
C           57.88229443628909        0.01636437153624       -0.01050154198467
C           59.22904153225875        0.00338717032024       -0.02133439767983
C           69.90210086293773        0.01884649839344       -0.01439684243594
C           68.66193122928472        0.00672514571500       -0.02380233896455
C           71.24054188162224        0.01567485299668       -0.01113596626832
C           72.62325607415036       -0.00107938904521       -0.01702293194741
Fe          50.55070357279801        0.02660689446672       -0.04805478876484
C           47.20092528704656        0.00093945591141        0.00660231363405
C           47.85688739961895       -0.81409004195889        0.89311022879239
C           47.19225697454287       -1.61882348655310        1.90272893804738
C           48.13822729108497       -2.31186316906011        2.53720761331446
C           49.42329737359488       -1.96603025541784        1.93897288076003
N           49.23997515452830       -1.01035629526631        0.90960735663602
C           50.62211560112158       -2.49716095652769        2.31573813704074
C           50.64815897722299       -3.53448353433340        3.37591052896400
C           50.11848854522062       -4.80945196484699        3.14401071862506
C           50.18285594977425       -5.76516731813420        4.15434784967648
N           50.74763295965417       -5.47586424269117        5.34552406196399
C           51.26552823332946       -4.25352676798616        5.58890765665228
C           51.23138241205595       -3.25728765096570        4.61711770507979
C           51.89763797907923       -2.09666372319655        1.73747018305433
C           53.15973630012597       -2.79281359294988        1.96622200643829
C           54.12178410583834       -2.11076084144674        1.33491275061798
N           52.07437435373419       -1.03157099655779        0.98048210404751
C           53.44747328838812       -0.99586893675223        0.71075354888617
C           54.04731618191952        0.00542243766097        0.01242927957757
C           53.31270584321715        1.09028945558231       -0.62690535844240
C           53.86665657573142        2.26728534811818       -1.00122305758887
C           52.85099079080253        2.99957986897400       -1.69102295326576
C           51.73420936918249        2.22733785161740       -1.70459002286650
N           51.96292933904782        1.01100235405104       -1.01999590432674
C           50.50199975974121        2.57589108383599       -2.41416843578417
C           50.55896318495056        3.56848961875694       -3.51958782308178
C           51.36039353331947        3.32667735682851       -4.64174453902971
C           51.41762618526798        4.27830702069581       -5.65653061561695
N           50.71592922657475        5.42776140723294       -5.56819947821421
C           49.94013242889832        5.68525946370566       -4.49441382725382
C           49.84168209299383        4.77061727508039       -3.44877078557965
C           49.32039280039140        1.99603757824476       -2.09848988090181
C           48.05311931542699        2.19829266110975       -2.77927616992106
C           47.15159316803379        1.48183389243581       -2.10429551940996
C           47.85534216303846        0.82702044392832       -1.00928018299021