310
 energy: -552.103618605141 gnorm: 0.000765855023 xtb: 6.5.1 (b24c23e)
Co          39.16325707617476       -0.16467614488485        0.17644318635584
C           35.83458198107634       -0.50707543162300        0.56850576166099
C           36.52567790138308        0.26920927435613        1.47353072052828
C           35.90223841687524        0.95654086859078        2.56388243469242
C           36.82963639416749        1.80289828595893        3.06940357405661
C           38.02849320876526        1.60957607389963        2.30867670433599
N           37.84066520134260        0.64385520676369        1.35334562666999
C           39.18189770652851        2.36552959155915        2.46191893352064
C           40.34866809934164        2.06714661262363        1.77852157200706
C           41.59559625134189        2.73174451660025        2.01100627171825
C           42.54973134301681        2.00535358614849        1.38151803204354
N           40.53256269430511        0.97987192196694        0.95314158348964
C           41.88086223508153        0.91549115259069        0.74409613239285
C           42.54784293906400       -0.09767966342144        0.05072781883437
C           41.85932774242525       -1.06124446156588       -0.68886212365070
C           42.51169016036069       -2.04385811524920       -1.49616699100384
C           41.54664463864054       -2.63910135223762       -2.23726408451702
C           40.30510014066431       -2.03265961926051       -1.86456880578599
C           39.08737639974246       -2.33642188725811       -2.45304410511683
C           39.06932442905359       -3.26031305841887       -3.61893718936684
C           39.62851085735084       -2.86092976696500       -4.84069935767130
O           40.14543951906779       -1.60510034624926       -4.87423023325667
C           40.75756220058517       -1.11263859199829       -6.04896977906640
C           39.62252897780238       -3.72502528033274       -5.93520815766850
C           39.06475501063208       -4.98746615140582       -5.80196737095424
C           38.51147999781765       -5.40690890076894       -4.60168514892971
C           38.51269996715202       -4.54182008925807       -3.50801057154877
O           38.00697128438773       -4.86792146847831       -2.28928692044958
C           37.42125013353645       -6.13539081305041       -2.07140228300717
C           37.89154989173488       -1.84791619835978       -1.95064706238315
C           36.60086388820875       -2.20520666027731       -2.46184312672474
C           35.68714164011784       -1.73971270377152       -1.57869310630654
C           36.41795241000329       -1.06467188520718       -0.54922005018975
N           37.76372788085055       -1.09241535808047       -0.81122264114859
N           40.50587496879189       -1.09221016925186       -0.88195924767027
C           39.18552727347097        3.49857229088136        3.42721830882585
C           39.14122765237562        3.26016627622656        4.80695488156889
O           39.09953774090305        1.95432776526048        5.18296151244570
C           39.06762015053982        1.60346492964361        6.55159433609414
C           39.15138017214194        4.32539543194832        5.70676230365733
C           39.20337270253536        5.62389166545860        5.22286659692525
C           39.24937325473722        5.88387050588581        3.86156649288589
C           39.24429923244381        4.81861451151403        2.96160611638902
O           39.28504152334386        4.96933431105962        1.61169840400299
C           39.35432990605048        6.25849436782562        1.03680189719580
H           34.76913656935500       -0.64185380453927        0.71446479250793
H           34.87681973727137        0.81613659539858        2.86767208694049
H           36.72524092275457        2.50059714708964        3.88412299214006
H           41.71492360070938        3.62256039442439        2.60588763284830
H           43.61350801840080        2.17712518512126        1.34188724221726
H           43.57451574946338       -2.22558264201442       -1.49881513658221
H           41.65136128394667       -3.42190412874381       -2.97096014488231
H           40.04663664156409       -1.06322427473433       -6.88269915212712
H           41.10225878582283       -0.10449708151774       -5.81167151209846
H           41.61721013698426       -1.72768318638485       -6.34157835414309
H           40.04706561299140       -3.42415836722813       -6.88360047111695
H           39.06238833347649       -5.66040359755965       -6.65240379644218
H           38.08736978709395       -6.39911646733468       -4.52504529724560
H           37.09155255847602       -6.14238774299011       -1.03080276398691
H           36.55466075234895       -6.29528432399121       -2.72443896419094
H           38.14532405428650       -6.94465002958313       -2.22518720466602
H           36.43402382602482       -2.76453763417109       -3.36804775640225
H           34.61248285536067       -1.82868000356335       -1.60603497500229
H           39.04121947541976        0.51270729207139        6.58476128798494
H           38.17348197509001        2.00027213886849        7.04767944247113
H           39.96186172194778        1.95828793817414        7.07811974143741
H           39.11983556666885        4.15206961167394        6.77408929792180
H           39.20926026532309        6.45216729737074        5.92288541662659
H           39.28948579624608        6.90694513996744        3.51240101555827
H           40.25969237986038        6.79094271344215        1.35262174380071
H           39.38582237281764        6.10768558435491       -0.04382066416460
H           38.47300351281197        6.85983125997322        1.29095342231838
Co          94.71856752989942       -0.24602779505531        0.09165798230623
C           98.05389913563062       -0.62686690952343        0.35752369804542
C           97.37326801728562       -1.41142961358530       -0.54868720717978
C           98.00896564974209       -2.36903017139151       -1.40248910491188
C           97.08637019103929       -2.74276236861480       -2.31989505689722
C           95.87896142656065       -2.03716898093432       -2.00746983964470
N           96.05560625659345       -1.25136299879433       -0.89836531131229
C           94.72925101511218       -2.06845880949247       -2.78546086439652
C           93.55619344023310       -1.45285320860377       -2.38293726184639
C           92.31377802143068       -1.57178879958791       -3.08523755999534
C           91.35085516358406       -1.09412496521405       -2.26092876001926
N           93.35944082882462       -0.83905652202062       -1.16527276159204
C           92.00989489779900       -0.66092166460843       -1.06950355827709
C           91.33313671856747       -0.18600149158915        0.05881557443941
C           92.01389741115689        0.37314205634108        1.14389119714573
C           91.35349693921607        0.97141686474121        2.26149100988762
C           92.30616128948166        1.62388950852392        2.97021986519120
C           93.54856839669333        1.40279173597718        2.29511091045575
C           94.75345652706345        1.96975700790335        2.67961224574875
C           94.75333133631902        2.96538602028972        3.78467083563628
C           94.15493062861273        4.21943335849711        3.59948667228308
O           93.61656437504021        4.44437647953848        2.37285285952124
C           92.97394726465799        5.66985365920508        2.08516885931672
C           94.14645392716847        5.15599610512210        4.63262354557679
C           94.72871915211496        4.83236556442884        5.84871018377736
C           95.32021683952182        3.59568807147272        6.05738905081939
C           95.33364487015524        2.66021886493545        5.02338866651940
O           95.87634456543023        1.41935461461774        5.13676787203601
C           96.48226091569603        1.00900576798098        6.34572081540026
C           95.95591111875743        1.59401231502339        2.09972830494001
C           97.23774895876842        2.07637901124937        2.52285596625379
C           98.16747374994588        1.30461979876543        1.91272056710566
C           97.45393814008712        0.37751847541488        1.08755849522945
N           96.10285839677020        0.59619268090882        1.16888923811928
N           93.36119577471129        0.59497834919362        1.19830753880791
C           94.73791539304837       -2.82850188995912       -4.06489006954309
C           94.79531159257877       -4.22828676114679       -4.06133778959257
O           94.83857313695952       -4.81760884262799       -2.83706817848333
C           94.88488627235394       -6.22534876819732       -2.72050432747244
C           94.79480098253241       -4.93644256587161       -5.26252809565413
C           94.73965822739781       -4.24183303600007       -6.46144186562797
C           94.68082378680720       -2.85669047704069       -6.48931132487628
C           94.67567106967267       -2.14833599401545       -5.28813687938483
O           94.62121304390712       -0.79275096545870       -5.21014423008973
C           94.55138786874737       -0.01009154311137       -6.38490217459405
H           99.12287968126336       -0.77163600122553        0.46247922559958
H           99.03831902854722       -2.67862190338519       -1.31288121575673
H           97.20003439394431       -3.43245052992120       -3.14015196234711
H           92.20301352342071       -1.99510215239179       -4.07019474032508
H           90.28727192010540       -1.03434815342573       -2.42794316537550
H           90.29368462881219        0.91017750290838        2.45036632959308
H           92.19255603448156        2.20353938341797        3.87201052933410
H           93.66696800468164        6.51601762118429        2.16644522013362
H           92.62139797208764        5.59286053181070        1.05500155514584
H           92.11639927663575        5.83857672017596        2.74769048334471
H           93.69200733729772        6.12837908132301        4.49795383812820
H           94.72016694730931        5.55999013353847        6.65280128731819
H           95.76288531965787        3.36876146721121        7.01798813268773
H           96.83586203165549       -0.00988228217690        6.17719065909413
H           97.33540112690690        1.64775266317426        6.60476899413707
H           95.76460327012930        1.00861305610165        7.17501486643872
H           97.38905189670928        2.88483560114517        3.21957572911861
H           99.24214195415411        1.34666174775810        1.99552317843622
H           94.91273906028950       -6.44046528167876       -1.65070872993048
H           95.78364378700904       -6.63859496460761       -3.19418003825941
H           93.99572159149571       -6.69400292640991       -3.15919654756905
H           94.83590835446687       -6.01738316072260       -5.27071319336711
H           94.74125043309456       -4.79281906335097       -7.39550310234200
H           94.63827555566358       -2.34109228472250       -7.43933147553590
H           93.65110096026005       -0.23983495545979       -6.96766722006448
H           94.50908684394712        1.02953132281485       -6.05494281047304
H           95.43740015829205       -0.15208340097962       -7.01552978041200
C           43.95160530239010       -0.11152324958134        0.04907818615038
C           45.17603829060890       -0.12472179003314        0.04383524267424
C           46.51892503311603       -0.13361887186045        0.03361006317755
C           47.74960309326458       -0.13663338875323        0.02097142410935
C           49.08766605217526       -0.13365148005004        0.00783163651081
C           50.31840885800380       -0.12618720699229       -0.00540266052206
C           51.66096912689022       -0.11138346071382       -0.01799082921072
C           52.88556160132901       -0.08973476187609       -0.03103836685212
C           62.47354857180598        0.03949701989272       -0.05187920335446
C           63.69911688508003        0.02786834721706       -0.05782013921642
C           65.03991967319814        0.01543567224427       -0.05626750589076
C           66.27183610629682        0.00212869646762       -0.05323175667725
C           67.60791799114276       -0.00704086769447       -0.04967926808852
C           68.83994523542154       -0.01640705693807       -0.04886220231765
C           70.18071136429256       -0.02087389004406       -0.04311914813936
C           71.40642797232063       -0.02197953455026       -0.03460642304370
C           81.00031283921733       -0.15490080592120        0.03543736793766
C           82.22571928989218       -0.18579489858933        0.04754691038874
C           83.56609280055848       -0.21174644199484        0.05956957422163
C           84.79797053582224       -0.22780047958988        0.06938595674728
C           86.13397722307937       -0.23854312305333        0.07610356957312
C           87.36591036412412       -0.23773004768476        0.08002140593119
C           88.70678787688961       -0.23082767809362        0.07594487225939
C           89.93223222481953       -0.21248779931598        0.07177650682208
Co          57.67962384568810        0.03563062915988       -0.04509957573962
C           54.28793762145212       -0.06137534213723       -0.03677723274782
C           54.97944778094291       -0.36023965279443        1.14044871310348
C           54.34118499205520       -0.73237653360531        2.36350423429070
C           55.29987479821808       -0.71646319270679        3.32128587432565
C           56.51830665390448       -0.32822040617770        2.67933087145080
N           56.32129223751384       -0.18067910476179        1.32636029345120
C           57.68839110458885       -0.00789466298144        3.35167841372243
C           58.85681980117771        0.31291822420556        2.67861266262971
C           60.08292866913747        0.67999997904501        3.31861116746651
C           61.03939185123534        0.68396531710755        2.35824809010714
N           59.04928118441285        0.16641654815686        1.32399636750548
C           60.39115663314885        0.33095007479823        1.13486857434270
C           61.07293080684998        0.04260111808222       -0.05208109728271
C           60.39045685806450       -0.24098174780410       -1.23936811455374
C           61.04108088399931       -0.55991243937112       -2.47108507013664
C           60.08234620376107       -0.55250214700564       -3.42878472767469
C           58.85108369586410       -0.22242613516906       -2.77830245978081
C           57.67021724464065        0.07095558054957       -3.44216027817992
C           57.66460489586055        0.09406983915771       -4.92886095457149
C           56.92703478145577       -0.85631602422069       -5.64894487306897
O           56.25415153005432       -1.77334620135547       -4.90653978392980
C           55.46920895737202       -2.76824322796384       -5.53254606879749
C           56.92434128593481       -0.83735698921526       -7.04323156783962
C           57.65419020144478        0.13354399777601       -7.71200351502136
C           58.38921810420192        1.08500736667991       -7.02128330710006
C           58.39720185462478        1.06424883034747       -5.62699467578223
O           59.07699709277188        1.95924149069687       -4.86396825535225
C           59.85421555859358        2.97342353313354       -5.46827165772917
C           56.49140089271906        0.33667903519735       -2.76062348760819
C           55.25411414720170        0.68036912453398       -3.39181743618103
C           54.29913412022987        0.63547381328956       -2.43098047798020
C           54.95878123347548        0.27511390512461       -1.21598717423924
N           56.30565939474620        0.15410619152390       -1.41047034968624
N           59.04426563650290       -0.10102027016702       -1.42120618259891
C           57.69023684976595       -0.01741403351958        4.83862523584379
C           58.44902352292349       -0.96521637234902        5.53948863821608
O           59.14781350263394       -1.84709260311008        4.77854778500557
C           59.93796690192953       -2.85017451282512        5.38452573549566
C           58.44651157827120       -0.97805643669112        6.93383736260278
C           57.68971796359453       -0.04153244702998        7.62150222625009
C           56.93321456194833        0.90671363998143        6.94978487138059
C           56.93088202075703        0.91788480866549        5.55535204268618
O           56.23117186876145        1.81200941390715        4.80966689526622
C           55.43210826392648        2.79716236417361        5.43339588497122
H           53.29166274575398       -0.95922597050495        2.46147263617000
H           55.20115517900106       -0.93042649813571        4.37310903271545
H           60.18766732097600        0.88835769409314        4.37099692405084
H           62.09256878166406        0.89454241466841        2.45395810697153
H           62.09781150148548       -0.74798574297175       -2.57405693262937
H           60.18852365354477       -0.73615762429378       -4.48559275080604
H           54.66512416482886       -2.32609785550240       -6.13317540294774
H           55.03093424914336       -3.35993647488261       -4.72676706565198
H           56.07975617313942       -3.42109070860616       -6.16798477299601
H           56.36206682714973       -1.56897364052510       -7.60779739283652
H           57.65023113764901        0.14892789854372       -8.79634819169435
H           58.94762397118849        1.83211994275328       -7.56913864283681
H           60.29906950340029        3.54259797008717       -4.64998092120592
H           59.23650083061279        3.64302443978581       -6.07885536681881
H           60.65339410841985        2.55055529866778       -6.08899753895586
H           55.14158590341366        0.90810449120520       -4.43935709391724
H           53.23994638921995        0.81593529168042       -2.52172306801209
H           59.32931918742685       -3.52398753765770        5.99949916760007
H           60.38650438952452       -3.41762229331804        4.56703647185919
H           60.73437331471602       -2.41624395770833        6.00116238336232
H           59.02558264692265       -1.70760587605320        7.48390186278680
H           57.68929882343202       -0.05105834861702        8.70591956904452
H           56.35359491751223        1.62628837353190        7.51228305845116
H           56.03450372798600        3.46438876645194        6.06161924317623
H           54.63881866965362        2.34508353986792        6.04092200752045
H           54.97963915486910        3.37613799842921        4.62625210070576
Co          76.20463504790105       -0.00774875193919       -0.00208641193973
C           72.80699974369128       -0.01919103602685       -0.02446065192918
C           73.47961990739712       -0.25258009749033        1.17915253285327
C           72.81498534010368       -0.51862433381852        2.41587238930744
C           73.76459867684481       -0.47902717445980        3.38169794328258
C           75.00400268044400       -0.18519876748920        2.72967288332040
N           74.82465139443966       -0.11019897260287        1.36781239204160
C           76.18396802959674        0.10570820829755        3.39645460622937
C           77.37402219431586        0.33342729168139        2.72278043059049
C           78.61006783914438        0.66291404968072        3.36375344375083
C           79.57356220209563        0.59313121722889        2.41314581017073
N           77.57038959146210        0.13033795573323        1.37651876685605
C           78.91966794235204        0.23198425685670        1.19531451983578
C           79.60053220488170       -0.11453669025459        0.02347914299726
C           78.91967562568828       -0.40886533883221       -1.16208559160017
C           79.57455252713520       -0.77126944113336       -2.37924476292947
C           78.62662594571815       -0.75705775729354       -3.34761932196963
C           77.39804759876682       -0.38331949329821       -2.71658355332727
C           76.22823416291432       -0.09174997022067       -3.40134594808207
C           76.24216242267130       -0.11024017041746       -4.88847917867327
C           75.52572723641315       -1.08839934529544       -5.59193879112973
O           74.85222552860853       -1.99173764793446       -4.83345378643747
C           74.10262716705466       -3.02368814645731       -5.44280224313629
C           75.54266764992074       -1.10721851735064       -6.98615806223547
C           76.27064045166175       -0.14596458845882       -7.67076939256292
C           76.98493409409237        0.83254295215219       -6.99623227736201
C           76.97380472549166        0.84925580490933       -5.60189298495437
O           77.63301949305901        1.77121731833372       -4.85323243134397
C           78.40840555164817        2.77723162366780       -5.47357864397935
C           75.04495457860314        0.20661039635784       -2.74371140042420
C           73.81770744640416        0.53031208672891       -3.40449792598355
C           72.85207314461020        0.53646622054674       -2.45362164791437
C           73.49641030385141        0.23002142379183       -1.21581220885144
N           74.84266675480475        0.08461449036683       -1.38827121924476
N           77.57984172590967       -0.23445658599571       -1.36129786399841
C           76.17506678893835        0.16447773537063        4.88260911976022
C           76.85930212854407       -0.80202819280146        5.63263942407941
O           77.49721635480198       -1.76535861383740        4.91869152492158
C           78.22033120615200       -2.78638615691267        5.57654585709977
C           76.84730578901896       -0.75019870846431        7.02607418448894
C           76.15698096158167        0.26983774000947        7.66291777031156
C           75.47535948193189        1.23826002726344        6.94160343136266
C           75.48120884627616        1.18425732245124        5.54816038047172
O           74.85179487977953        2.08981930118430        4.75501735156254
C           74.12713440443649        3.16122217055837        5.32498837838839
H           71.75611426832002       -0.69588499283290        2.51571327935480
H           73.64783937183111       -0.61999338537130        4.44393304343666
H           78.71537915900177        0.89921317343255        4.41014443848977
H           80.63445874689005        0.75797450935266        2.51263722276702
H           80.62688716056022       -0.98947599033824       -2.46633018966504
H           78.73831291919123       -0.96525204542379       -4.39931688824458
H           73.29761977267982       -2.61945622976116       -6.06839715606558
H           73.66627442162616       -3.60339399020043       -4.62732497509754
H           74.73983848628018       -3.67829401140680       -6.04961796913776
H           74.99650483195539       -1.86006075852437       -7.53847860014358
H           76.28138175063481       -0.15958432481748       -8.75508806053537
H           77.54215884295745        1.57129499997967       -7.55650224515122
H           78.83550472739718        3.37283263218730       -4.66470752152415
H           77.79258352400456        3.42349265645840       -6.11058131998080
H           79.22055339229557        2.34636188315627       -6.07135901107727
H           73.71876853734932        0.71029379842807       -4.46262104970292
H           71.79552504137054        0.72112636793141       -2.56423990920234
H           77.56717458369891       -3.39384638211112        6.21459206232265
H           78.63949378682280       -3.41607019003017        4.78963583071031
H           79.03698826981709       -2.37408969828797        6.18140015841688
H           77.36819656647320       -1.49371770893095        7.61440217428357
H           76.14985116768304        0.31092173777121        8.74657853796415
H           74.94655016768839        2.02342768739993        7.46523253303403
H           74.77598842748193        3.81063236791512        5.92492952040993
H           73.29975904720256        2.80004485924783        5.94774423961365
H           73.72268225621787        3.73311412043468        4.48782906941185
