      -----------------------------------------------------------      
     |                   =====================                   |     
     |                           x T B                           |     
     |                   =====================                   |     
     |                         S. Grimme                         |     
     |          Mulliken Center for Theoretical Chemistry        |     
     |                    University of Bonn                     |     
      -----------------------------------------------------------      

   * xtb version 6.5.1 (b24c23e) compiled by 'conda@728c89f4b128' on 2022-07-12

   xtb is free software: you can redistribute it and/or modify it under
   the terms of the GNU Lesser General Public License as published by
   the Free Software Foundation, either version 3 of the License, or
   (at your option) any later version.
   
   xtb is distributed in the hope that it will be useful,
   but WITHOUT ANY WARRANTY; without even the implied warranty of
   MERCHANTABILITY or FITNESS FOR A PARTICULAR PURPOSE.  See the
   GNU Lesser General Public License for more details.
   
   Cite this work as:
   * C. Bannwarth, E. Caldeweyher, S. Ehlert, A. Hansen, P. Pracht,
     J. Seibert, S. Spicher, S. Grimme, WIREs Comput. Mol. Sci., 2020, 11,
     e01493. DOI: 10.1002/wcms.1493
   
   for GFN2-xTB:
   * C. Bannwarth, S. Ehlert and S. Grimme., J. Chem. Theory Comput., 2019,
     15, 1652-1671. DOI: 10.1021/acs.jctc.8b01176
   for GFN1-xTB:
   * S. Grimme, C. Bannwarth, P. Shushkov, J. Chem. Theory Comput., 2017,
     13, 1989-2009. DOI: 10.1021/acs.jctc.7b00118
   for GFN0-xTB:
   * P. Pracht, E. Caldeweyher, S. Ehlert, S. Grimme, ChemRxiv, 2019, preprint.
     DOI: 10.26434/chemrxiv.8326202.v1
   for GFN-FF:
   * S. Spicher and S. Grimme, Angew. Chem. Int. Ed., 2020, 59, 15665-15673.
     DOI: 10.1002/anie.202004239
   
   for ALPB and GBSA implicit solvation:
   * S. Ehlert, M. Stahn, S. Spicher, S. Grimme, J. Chem. Theory Comput.,
     2021, 17, 4250-4261. DOI: 10.1021/acs.jctc.1c00471
   
   for DFT-D4:
   * E. Caldeweyher, C. Bannwarth and S. Grimme, J. Chem. Phys., 2017,
     147, 034112. DOI: 10.1063/1.4993215
   * E. Caldeweyher, S. Ehlert, A. Hansen, H. Neugebauer, S. Spicher,
     C. Bannwarth and S. Grimme, J. Chem. Phys., 2019, 150, 154122.
     DOI: 10.1063/1.5090222
   * E. Caldeweyher, J.-M. Mewes, S. Ehlert and S. Grimme, Phys. Chem. Chem. Phys.
     2020, 22, 8499-8512. DOI: 10.1039/D0CP00502A
   
   for sTDA-xTB:
   * S. Grimme and C. Bannwarth, J. Chem. Phys., 2016, 145, 054103.
     DOI: 10.1063/1.4959605
   
   in the mass-spec context:
   * V. Asgeirsson, C. Bauer and S. Grimme, Chem. Sci., 2017, 8, 4879.
     DOI: 10.1039/c7sc00601b
   * J. Koopman and S. Grimme, ACS Omega 2019, 4, 12, 15120-15133.
     DOI: 10.1021/acsomega.9b02011
   
   for metadynamics refer to:
   * S. Grimme, J. Chem. Theory Comput., 2019, 155, 2847-2862
     DOI: 10.1021/acs.jctc.9b00143
   
   for SPH calculations refer to:
   * S. Spicher and S. Grimme, J. Chem. Theory Comput., 2021, 17, 1701-1714
     DOI: 10.1021/acs.jctc.0c01306
   
   with help from (in alphabetical order)
   P. Atkinson, C. Bannwarth, F. Bohle, G. Brandenburg, E. Caldeweyher
   M. Checinski, S. Dohm, S. Ehlert, S. Ehrlich, I. Gerasimov, C. Hölzer
   A. Katbashev, J. Koopman, C. Lavigne, S. Lehtola, F. März, M. Müller,
   F. Musil, H. Neugebauer, J. Pisarek, C. Plett, P. Pracht, F. Pultar,
   J. Seibert, P. Shushkov, S. Spicher, M. Stahn, M. Steiner, T. Strunk,
   J. Stückrath, T. Rose, and J. Unsleber
   
 * started run on 2022/07/29 at 16:04:32.090     

           -------------------------------------------------
          |                Calculation Setup                |
           -------------------------------------------------

          program call               : xtb Fe_H_C6_2.xyz --gfn 1 --opt -T 48
          hostname                   : cx3-14-19.cx3.hpc.ic.ac.uk
          coordinate file            : Fe_H_C6_2.xyz
          omp threads                :                     1

   ID    Z sym.   atoms
    1   26 Fe     1, 37
    2    6 C      2-6, 8-11, 13-18, 20-24, 38-42, 44-47, 49-54, 56-60, 73-78
    3    7 N      7, 12, 19, 25, 43, 48, 55, 61
    4    1 H      26-36, 62-72
########################################################################
[WARNING] Please study the warnings concerning your input carefully
-1- prog_main_parseArguments: Unknown option '-T' provided
########################################################################

           -------------------------------------------------
          |                 G F N 1 - x T B                 |
           -------------------------------------------------

        Reference                      10.1021/acs.jctc.7b00118
      * Hamiltonian:
        H0-scaling (s, p, d)           1.850000    2.250000    2.000000
        zeta-weighting                 0.000000
      * Dispersion:
        s8                             2.400000
        a1                             0.630000
        a2                             5.000000
        s9                             0.000000
      * Repulsion:
        kExp                           1.500000
        rExp                           1.000000
      * Coulomb:
        alpha                          2.000000
        third order                    atomic
        anisotropic                    false
      * Halogen bond correction:
        rad-scale                      1.300000
        damping                        0.440000


          ...................................................
          :                      SETUP                      :
          :.................................................:
          :  # basis functions                 280          :
          :  # atomic orbitals                 278          :
          :  # shells                          158          :
          :  # electrons                       262          :
          :  # halogen bonds                     0          :
          :  max. iterations                   250          :
          :  Hamiltonian                  GFN1-xTB          :
          :  restarted?                      false          :
          :  GBSA solvation                  false          :
          :  PC potential                    false          :
          :  electronic temp.          300.0000000     K    :
          :  accuracy                    1.0000000          :
          :  -> integral cutoff          0.2500000E+02      :
          :  -> integral neglect         0.1000000E-07      :
          :  -> SCF convergence          0.1000000E-05 Eh   :
          :  -> wf. convergence          0.2000000E-04 e    :
          :  Broyden damping             0.4000000          :
          ...................................................

 iter      E             dE          RMSdq      gap      omega  full diag
   1   -121.4691257 -0.121469E+03  0.132E+01    0.00       0.0  T
   2    -44.3880600  0.770811E+02  0.157E+01    0.01       1.0  T
   3   -108.0049293 -0.636169E+02  0.103E+01    0.01       1.0  T
   4    -99.9295121  0.807542E+01  0.108E+01    0.18       1.0  T
   5    126.9293342  0.226859E+03  0.162E+01    0.01       1.0  T
   6     -6.9523427 -0.133882E+03  0.130E+01    0.19       1.0  T
   7   -127.2999070 -0.120348E+03  0.733E+00    0.12       1.0  T
   8   -132.4536168 -0.515371E+01  0.640E+00    0.28       1.0  T
   9   -132.5672152 -0.113598E+00  0.636E+00    0.17       1.0  T
  10   -133.3828030 -0.815588E+00  0.591E+00    0.24       1.0  T
  11   -139.0316482 -0.564885E+01  0.390E+00    0.18       1.0  T
  12   -140.0920971 -0.106045E+01  0.269E+00    0.16       1.0  T
  13   -121.5906740  0.185014E+02  0.688E+00    0.08       1.0  T
  14   -141.2519357 -0.196613E+02  0.209E+00    0.01       1.0  T
  15   -140.4939464  0.757989E+00  0.235E+00    0.15       1.0  T
  16   -140.6070056 -0.113059E+00  0.227E+00    0.13       1.0  T
  17   -139.7880279  0.818978E+00  0.269E+00    0.16       1.0  T
  18   -140.6841412 -0.896113E+00  0.225E+00    0.11       1.0  T
  19   -140.4345657  0.249576E+00  0.234E+00    0.13       1.0  T
  20   -140.8309031 -0.396337E+00  0.213E+00    0.11       1.0  T
  21   -142.6513841 -0.182048E+01  0.547E-01    0.03       1.0  T
  22   -142.6029582  0.484259E-01  0.616E-01    0.01       1.0  T
  23   -142.6608665 -0.579083E-01  0.462E-01    0.01       1.0  T
  24   -142.7176210 -0.567545E-01  0.300E-01    0.01       1.0  T
  25   -141.9041000  0.813521E+00  0.142E+00    0.05       1.0  T
  26   -142.6411525 -0.737052E+00  0.523E-01    0.01       1.0  T
  27   -142.6881307 -0.469782E-01  0.397E-01    0.01       1.0  T
  28   -142.7414873 -0.533566E-01  0.170E-01    0.00       1.0  T
  29   -142.7526806 -0.111933E-01  0.314E-02    0.00       1.0  T
  30   -142.7501192  0.256139E-02  0.829E-02    0.00       1.0  T
  31   -142.7529571 -0.283790E-02  0.118E-02    0.00       1.0  T
  32   -142.7518342  0.112291E-02  0.533E-02    0.00       1.0  T
  33   -142.7529644 -0.113011E-02  0.109E-02    0.00       1.0  T
  34   -142.7529835 -0.191182E-04  0.870E-03    0.00       1.3  T
  35   -142.7530027 -0.192365E-04  0.512E-03    0.00       2.2  T
  36   -142.7529841  0.186348E-04  0.842E-03    0.00       1.3  T
  37   -142.7530118 -0.277630E-04  0.220E-03    0.00       5.2  T
  38   -142.7530085  0.334330E-05  0.359E-03    0.00       3.2  T
  39   -142.7530138 -0.534441E-05  0.317E-04    0.00      35.7  T
  40   -142.7530138  0.481805E-08  0.335E-04    0.00      33.8  T
  41   -142.7530139 -0.214034E-07  0.247E-04    0.00      45.9  T
  42   -142.7530139 -0.247776E-07  0.106E-05    0.00    1071.8  T
  43   -142.7530139  0.110049E-09  0.210E-05    0.00     540.0  T

   *** convergence criteria satisfied after 43 iterations ***

         #    Occupation            Energy/Eh            Energy/eV
      -------------------------------------------------------------
         1        2.0000           -0.7726135             -21.0239
       ...           ...                  ...                  ...
       125        2.0000           -0.3853758             -10.4866
       126        1.9995           -0.3805655             -10.3557
       127        1.9993           -0.3802271             -10.3465
       128        1.9972           -0.3788261             -10.3084
       129        1.9972           -0.3788241             -10.3083
       130        1.2719           -0.3731279             -10.1533
       131        1.2504           -0.3730840             -10.1521 (HOMO)
       132        1.1900           -0.3729634             -10.1489 (LUMO)
       133        0.2945           -0.3709292             -10.0935
       134                         -0.3504729              -9.5369
       135                         -0.3318655              -9.0305
       136                         -0.3278552              -8.9214
       ...                                ...                  ...
       278                          5.3896819             146.6607
      -------------------------------------------------------------
                  HL-Gap            0.0001206 Eh            0.0033 eV
             Fermi-level           -0.3725979 Eh          -10.1389 eV

 SCC (total)                   0 d,  0 h,  0 min,  1.306 sec
 SCC setup                      ...        0 min,  0.003 sec (  0.207%)
 Dispersion                     ...        0 min,  0.002 sec (  0.167%)
 classical contributions        ...        0 min,  0.001 sec (  0.074%)
 integral evaluation            ...        0 min,  0.099 sec (  7.556%)
 iterations                     ...        0 min,  0.957 sec ( 73.234%)
 molecular gradient             ...        0 min,  0.239 sec ( 18.283%)
 printout                       ...        0 min,  0.006 sec (  0.477%)

         :::::::::::::::::::::::::::::::::::::::::::::::::::::
         ::                     SUMMARY                     ::
         :::::::::::::::::::::::::::::::::::::::::::::::::::::
         :: total energy            -139.390526670818 Eh    ::
         :: gradient norm              3.377996277008 Eh/a0 ::
         :: HOMO-LUMO gap              0.003282820618 eV    ::
         ::.................................................::
         :: SCC energy              -142.753013876742 Eh    ::
         :: -> electrostatic           0.110529805986 Eh    ::
         :: repulsion energy           3.427988155167 Eh    ::
         :: dispersion energy         -0.065500949243 Eh    ::
         :: halogen bond corr.         0.000000000000 Eh    ::
         :: add. restraining           0.000000000000 Eh    ::
         :: total charge              -0.000000000000 e     ::
         :::::::::::::::::::::::::::::::::::::::::::::::::::::

      ----------------------------------------------------------- 
     |                   =====================                   |
     |                        A N C O P T                        |
     |                   =====================                   |
     |               Approximate Normal Coordinate               |
     |                Rational Function Optimizer                |
      ----------------------------------------------------------- 

          ...................................................
          :                      SETUP                      :
          :.................................................:
          :   optimization level            normal          :
          :   max. optcycles                   234          :
          :   ANC micro-cycles                  20          :
          :   degrees of freedom               228          :
          :.................................................:
          :   RF solver                   davidson          :
          :   write xtbopt.log                true          :
          :   linear?                        false          :
          :   energy convergence         0.5000000E-05 Eh   :
          :   grad. convergence          0.1000000E-02 Eh/α :
          :   maximium RF displ.         1.0000000          :
          :   Hlow (freq-cutoff)         0.1000000E-01      :
          :   Hmax (freq-cutoff)         5.0000000          :
          :   S6 in model hess.         20.0000000          :
          ...................................................

generating ANC from model Hessian ...
Using Lindh-Hessian (1995)
 Shifting diagonal of input Hessian by    1.0031825713235808E-002
 Lowest  eigenvalues of input Hessian
    0.010000    0.010003    0.010003    0.000000    0.000000    0.000000
    0.000000    0.000000    0.000000    0.010066    0.010114    0.010909
    0.010950    0.010989    0.011410    0.011821    0.011834    0.012637
 Highest eigenvalues
    2.144793    2.664607    3.619823    3.853712    4.432431    4.437863


........................................................................
.............................. CYCLE    1 ..............................
........................................................................
   1   -142.7530139 -0.142753E+03  0.713E-05    0.00       0.0  T
   2   -142.7528586  0.155227E-03  0.193E-02    0.00       1.0  T
   3   -142.7530138 -0.155141E-03  0.459E-04    0.00      24.7  T
   4   -142.7530135  0.276840E-06  0.100E-03    0.00      11.3  T
   5   -142.7530139 -0.363445E-06  0.498E-05    0.00     227.4  T
   6   -142.7530139 -0.690363E-10  0.487E-05    0.00     232.6  T
     SCC iter.                  ...        0 min,  0.135 sec
     gradient                   ...        0 min,  0.238 sec
 * total energy  :  -139.3905267 Eh     change        0.8448069E-09 Eh
   gradient norm :     3.3779962 Eh/α   predicted     0.0000000E+00 (-100.00%)
   displ. norm   :     0.6037338 α      lambda       -0.1969850E+01
   maximum displ.:     0.4419025 α      in ANC's #228, #227, #182, ...

........................................................................
.............................. CYCLE    2 ..............................
........................................................................
   1   -142.8161552 -0.142816E+03  0.459E-01    0.01       0.0  T
   2   -138.9977901  0.381837E+01  0.348E+00    0.16       1.0  T
   3   -142.7797263 -0.378194E+01  0.477E-01    0.02       1.0  T
   4   -138.0208858  0.475884E+01  0.343E+00    0.02       1.0  T
   5   -142.5905955 -0.456971E+01  0.797E-01    0.02       1.0  T
   6   -139.9232127  0.266738E+01  0.263E+00    0.15       1.0  T
   7   -141.5366043 -0.161339E+01  0.177E+00    0.07       1.0  T
   8   -141.3234390  0.213165E+00  0.190E+00    0.09       1.0  T
   9   -142.5332437 -0.120980E+01  0.877E-01    0.03       1.0  T
  10   -142.5852994 -0.520556E-01  0.806E-01    0.02       1.0  T
  11   -142.7013983 -0.116099E+00  0.610E-01    0.02       1.0  T
  12   -142.7484549 -0.470566E-01  0.512E-01    0.01       1.0  T
  13   -142.8393854 -0.909305E-01  0.214E-01    0.00       1.0  T
  14   -142.8551463 -0.157609E-01  0.926E-02    0.00       1.0  T
  15   -142.8587364 -0.359010E-02  0.389E-03    0.00       2.9  T
  16   -142.8587030  0.333944E-04  0.956E-03    0.00       1.2  T
  17   -142.8587071 -0.408839E-05  0.903E-03    0.00       1.3  T
  18   -142.8587407 -0.336026E-04  0.160E-03    0.00       7.1  T
  19   -142.8587371  0.358232E-05  0.331E-03    0.00       3.4  T
  20   -142.8587360  0.115183E-05  0.370E-03    0.00       3.1  T
  21   -142.8587415 -0.553450E-05  0.711E-04    0.00      15.9  T
  22   -142.8587417 -0.192819E-06  0.201E-04    0.00      56.2  T
  23   -142.8587416  0.843430E-07  0.489E-04    0.00      23.2  T
  24   -142.8587417 -0.100625E-06  0.327E-05    0.00     346.2  T
  25   -142.8587417  0.305926E-08  0.911E-05    0.00     124.3  T
     SCC iter.                  ...        0 min,  0.558 sec
     gradient                   ...        0 min,  0.237 sec
 * total energy  :  -140.2677259 Eh     change       -0.8771992E+00 Eh
   gradient norm :     0.5241309 Eh/α   predicted    -0.1343925E+01 (  53.21%)
   displ. norm   :     0.4294680 α      lambda       -0.1763091E+00
   maximum displ.:     0.1640142 α      in ANC's #182, #74, #58, ...

........................................................................
.............................. CYCLE    3 ..............................
........................................................................
   1   -142.8119070 -0.142812E+03  0.189E-01    0.02       0.0  T
   2   -139.7130189  0.309889E+01  0.314E+00    0.14       1.0  T
   3   -142.6617856 -0.294877E+01  0.711E-01    0.00       1.0  T
   4   -139.5071315  0.315465E+01  0.283E+00    0.11       1.0  T
   5   -142.6168241 -0.310969E+01  0.728E-01    0.03       1.0  T
   6   -141.8577673  0.759057E+00  0.152E+00    0.05       1.0  T
   7   -141.6581843  0.199583E+00  0.166E+00    0.07       1.0  T
   8   -142.8230775 -0.116489E+01  0.427E-02    0.00       1.0  T
   9   -142.5384568  0.284621E+00  0.824E-01    0.02       1.0  T
  10   -142.7989008 -0.260444E+00  0.242E-01    0.00       1.0  T
  11   -142.8213867 -0.224859E-01  0.726E-02    0.00       1.0  T
  12   -142.8235594 -0.217272E-02  0.135E-02    0.00       1.0  T
  13   -142.8229953  0.564181E-03  0.391E-02    0.00       1.0  T
  14   -142.8233886 -0.393347E-03  0.234E-02    0.00       1.0  T
  15   -142.8234666 -0.779890E-04  0.187E-02    0.00       1.0  T
  16   -142.8235859 -0.119351E-03  0.743E-03    0.00       1.5  T
  17   -142.8236082 -0.222930E-04  0.759E-04    0.00      14.9  T
  18   -142.8236076  0.664328E-06  0.142E-03    0.00       8.0  T
  19   -142.8236078 -0.259297E-06  0.114E-03    0.00       9.9  T
  20   -142.8236072  0.671367E-06  0.169E-03    0.00       6.7  T
  21   -142.8236083 -0.111682E-05  0.454E-04    0.00      25.0  T
  22   -142.8236084 -0.854313E-07  0.507E-05    0.00     223.2  T
  23   -142.8236084 -0.969891E-09  0.111E-05    0.00    1015.6  T
     SCC iter.                  ...        0 min,  0.510 sec
     gradient                   ...        0 min,  0.238 sec
 * total energy  :  -140.3777476 Eh     change       -0.1100217E+00 Eh
   gradient norm :     0.3254083 Eh/α   predicted    -0.1044140E+00 (  -5.10%)
   displ. norm   :     0.4505490 α      lambda       -0.7308353E-01
   maximum displ.:     0.2068880 α      in ANC's #74, #58, #38, ...

........................................................................
.............................. CYCLE    4 ..............................
........................................................................
   1   -142.8411472 -0.142841E+03  0.134E-01    0.04       0.0  T
   2   -142.7867300  0.544172E-01  0.435E-01    0.01       1.0  T
   3   -142.7210852  0.656448E-01  0.547E-01    0.05       1.0  T
   4   -138.7892607  0.393182E+01  0.314E+00    0.03       1.0  T
   5   -142.5132294 -0.372397E+01  0.993E-01    0.02       1.0  T
   6   -142.4236470  0.895824E-01  0.100E+00    0.00       1.0  T
   7   -140.6166216  0.180703E+01  0.231E+00    0.07       1.0  T
   8   -142.8415062 -0.222488E+01  0.592E-02    0.05       1.0  T
   9   -142.7704677  0.710385E-01  0.446E-01    0.01       1.0  T
  10   -142.8161930 -0.457253E-01  0.270E-01    0.02       1.0  T
  11   -142.7145346  0.101658E+00  0.554E-01    0.02       1.0  T
  12   -142.8186490 -0.104114E+00  0.242E-01    0.03       1.0  T
  13   -142.8288677 -0.102187E-01  0.185E-01    0.04       1.0  T
  14   -142.8285109  0.356804E-03  0.186E-01    0.04       1.0  T
  15   -142.8409669 -0.124560E-01  0.698E-02    0.04       1.0  T
  16   -142.8429066 -0.193967E-02  0.131E-02    0.04       1.0  T
  17   -142.8429112 -0.465037E-05  0.123E-02    0.04       1.0  T
  18   -142.8429558 -0.445652E-04  0.598E-03    0.04       1.9  T
  19   -142.8429671 -0.113109E-04  0.213E-03    0.04       5.3  T
  20   -142.8429457  0.214189E-04  0.727E-03    0.04       1.6  T
  21   -142.8429575 -0.117812E-04  0.505E-03    0.04       2.2  T
  22   -142.8429680 -0.104868E-04  0.798E-04    0.04      14.2  T
  23   -142.8429682 -0.257156E-06  0.417E-05    0.04     271.7  T
  24   -142.8429682  0.253536E-07  0.251E-04    0.04      45.1  T
  25   -142.8429682 -0.212285E-07  0.108E-04    0.04     104.4  T
     SCC iter.                  ...        0 min,  0.555 sec
     gradient                   ...        0 min,  0.237 sec
 * total energy  :  -140.4297930 Eh     change       -0.5204541E-01 Eh
   gradient norm :     0.1734962 Eh/α   predicted    -0.4395974E-01 ( -15.54%)
   displ. norm   :     0.4969058 α      lambda       -0.3216877E-01
   maximum displ.:     0.2360734 α      in ANC's #58, #13, #38, ...

........................................................................
.............................. CYCLE    5 ..............................
........................................................................
   1   -142.8545397 -0.142855E+03  0.136E-01    0.08       0.0  T
   2   -139.9471192  0.290742E+01  0.301E+00    0.07       1.0  T
   3   -142.7673635 -0.282024E+01  0.540E-01    0.01       1.0  T
   4   -139.0636306  0.370373E+01  0.304E+00    0.04       1.0  T
   5   -142.6822145 -0.361858E+01  0.739E-01    0.00       1.0  T
   6   -142.7113874 -0.291729E-01  0.648E-01    0.00       1.0  T
   7   -142.3380808  0.373307E+00  0.112E+00    0.03       1.0  T
   8   -142.8498451 -0.511764E+00  0.162E-01    0.07       1.0  T
   9   -142.8553685 -0.552348E-02  0.115E-01    0.08       1.0  T
  10   -142.8547566  0.611962E-03  0.111E-01    0.06       1.0  T
  11   -142.8458163  0.894027E-02  0.184E-01    0.06       1.0  T
  12   -142.8520181 -0.620180E-02  0.139E-01    0.06       1.0  T
  13   -142.8584974 -0.647925E-02  0.588E-02    0.07       1.0  T
  14   -142.8591976 -0.700280E-03  0.408E-02    0.07       1.0  T
  15   -142.8597549 -0.557242E-03  0.168E-02    0.07       1.0  T
  16   -142.8598261 -0.712026E-04  0.101E-02    0.07       1.1  T
  17   -142.8598407 -0.146259E-04  0.769E-03    0.07       1.5  T
  18   -142.8598539 -0.131534E-04  0.407E-03    0.07       2.8  T
  19   -142.8598536  0.302830E-06  0.369E-03    0.07       3.1  T
  20   -142.8598571 -0.355202E-05  0.188E-03    0.07       6.0  T
  21   -142.8598585 -0.138987E-05  0.271E-04    0.07      41.8  T
  22   -142.8598585  0.206018E-07  0.340E-04    0.07      33.3  T
  23   -142.8598585 -0.150739E-07  0.285E-04    0.07      39.7  T
  24   -142.8598585 -0.300915E-07  0.649E-05    0.07     174.4  T
  25   -142.8598585 -0.961705E-09  0.259E-05    0.07     438.0  T
     SCC iter.                  ...        0 min,  0.559 sec
     gradient                   ...        0 min,  0.234 sec
 * total energy  :  -140.4519108 Eh     change       -0.2211777E-01 Eh
   gradient norm :     0.0816105 Eh/α   predicted    -0.2005591E-01 (  -9.32%)
   displ. norm   :     0.5305089 α      lambda       -0.1302626E-01
   maximum displ.:     0.3607391 α      in ANC's #13, #38, #58, ...

........................................................................
.............................. CYCLE    6 ..............................
........................................................................
   1   -142.8334765 -0.142833E+03  0.231E-01    0.11       0.0  T
   2   -139.1131625  0.372031E+01  0.335E+00    0.05       1.0  T
   3   -142.8370052 -0.372384E+01  0.197E-01    0.10       1.0  T
   4   -139.1581217  0.367888E+01  0.300E+00    0.03       1.0  T
   5   -142.8508408 -0.369272E+01  0.201E-02    0.07       1.0  T
   6   -142.8138914  0.369494E-01  0.337E-01    0.03       1.0  T
   7   -142.8119974  0.189400E-02  0.345E-01    0.03       1.0  T
   8   -142.6965113  0.115486E+00  0.613E-01    0.03       1.0  T
   9   -142.8074916 -0.110980E+00  0.328E-01    0.08       1.0  T
  10   -142.8505658 -0.430742E-01  0.298E-02    0.08       1.0  T
  11   -142.8474253  0.314049E-02  0.903E-02    0.07       1.0  T
  12   -142.8504979 -0.307255E-02  0.358E-02    0.08       1.0  T
  13   -142.8508674 -0.369522E-03  0.120E-02    0.07       1.0  T
  14   -142.8509061 -0.386919E-04  0.522E-03    0.07       2.2  T
  15   -142.8509003  0.584665E-05  0.617E-03    0.07       1.8  T
  16   -142.8509092 -0.893465E-05  0.414E-03    0.07       2.7  T
  17   -142.8509139 -0.472643E-05  0.254E-03    0.07       4.4  T
  18   -142.8509167 -0.281232E-05  0.591E-04    0.07      19.2  T
  19   -142.8509168 -0.416201E-07  0.505E-04    0.07      22.4  T
  20   -142.8509168 -0.316280E-07  0.398E-04    0.07      28.5  T
  21   -142.8509168 -0.276802E-07  0.292E-04    0.07      38.8  T
  22   -142.8509169 -0.299373E-07  0.784E-05    0.07     144.5  T
  23   -142.8509169 -0.224398E-08  0.206E-05    0.07     550.4  T
     SCC iter.                  ...        0 min,  0.512 sec
     gradient                   ...        0 min,  0.239 sec
 * total energy  :  -140.4617936 Eh     change       -0.9882865E-02 Eh
   gradient norm :     0.0484584 Eh/α   predicted    -0.8346202E-02 ( -15.55%)
   displ. norm   :     0.6065398 α      lambda       -0.8474460E-02
   maximum displ.:     0.5038738 α      in ANC's #13, #42, #38, ...

........................................................................
.............................. CYCLE    7 ..............................
........................................................................
   1   -142.8200834 -0.142820E+03  0.239E-01    0.12       0.0  T
   2   -139.0398367  0.378025E+01  0.337E+00    0.03       1.0  T
   3   -142.8121802 -0.377234E+01  0.273E-01    0.13       1.0  T
   4   -139.1638682  0.364831E+01  0.299E+00    0.02       1.0  T
   5   -142.8311250 -0.366726E+01  0.137E-01    0.10       1.0  T
   6   -142.8275568  0.356817E-02  0.188E-01    0.06       1.0  T
   7   -142.8266325  0.924358E-03  0.195E-01    0.05       1.0  T
   8   -142.8338839 -0.725148E-02  0.113E-01    0.06       1.0  T
   9   -142.8262587  0.762524E-02  0.169E-01    0.07       1.0  T
  10   -142.8276681 -0.140938E-02  0.160E-01    0.08       1.0  T
  11   -142.8377373 -0.100692E-01  0.341E-02    0.08       1.0  T
  12   -142.8375514  0.185892E-03  0.399E-02    0.08       1.0  T
  13   -142.8381745 -0.623099E-03  0.131E-02    0.08       1.0  T
  14   -142.8382261 -0.516134E-04  0.285E-03    0.08       4.0  T
  15   -142.8382290 -0.291352E-05  0.543E-04    0.08      20.9  T
  16   -142.8382289  0.142874E-06  0.812E-04    0.08      14.0  T
  17   -142.8382290 -0.850310E-07  0.587E-04    0.08      19.3  T
  18   -142.8382290 -0.527816E-07  0.372E-04    0.08      30.5  T
  19   -142.8382291 -0.366917E-07  0.164E-04    0.08      68.9  T
  20   -142.8382291 -0.104466E-07  0.351E-05    0.08     322.9  T
     SCC iter.                  ...        0 min,  0.452 sec
     gradient                   ...        0 min,  0.236 sec
 * total energy  :  -140.4684355 Eh     change       -0.6641820E-02 Eh
   gradient norm :     0.0343465 Eh/α   predicted    -0.5796074E-02 ( -12.73%)
   displ. norm   :     0.6532232 α      lambda       -0.5861586E-02
   maximum displ.:     0.6033292 α      in ANC's #13, #42, #48, ...

........................................................................
.............................. CYCLE    8 ..............................
........................................................................
   1   -142.8177966 -0.142818E+03  0.186E-01    0.12       0.0  T
   2   -139.3939269  0.342387E+01  0.323E+00    0.01       1.0  T
   3   -142.8059781 -0.341205E+01  0.255E-01    0.13       1.0  T
   4   -139.1562483  0.364973E+01  0.298E+00    0.01       1.0  T
   5   -142.8161288 -0.365988E+01  0.186E-01    0.12       1.0  T
   6   -142.8276432 -0.115144E-01  0.563E-02    0.08       1.0  T
   7   -142.8270554  0.587806E-03  0.717E-02    0.07       1.0  T
   8   -142.8268397  0.215649E-03  0.749E-02    0.07       1.0  T
   9   -142.8270388 -0.199009E-03  0.599E-02    0.08       1.0  T
  10   -142.8273761 -0.337324E-03  0.517E-02    0.08       1.0  T
  11   -142.8262416  0.113443E-02  0.736E-02    0.08       1.0  T
  12   -142.8284930 -0.225138E-02  0.312E-03    0.08       3.6  T
  13   -142.8284662  0.267880E-04  0.839E-03    0.08       1.3  T
  14   -142.8284879 -0.216918E-04  0.428E-03    0.08       2.6  T
  15   -142.8284958 -0.789422E-05  0.703E-04    0.08      16.1  T
  16   -142.8284958 -0.207393E-07  0.678E-04    0.08      16.7  T
  17   -142.8284960 -0.163311E-06  0.380E-04    0.08      29.8  T
  18   -142.8284961 -0.539264E-07  0.180E-04    0.08      62.8  T
  19   -142.8284961 -0.101962E-07  0.118E-04    0.08      96.0  T
     SCC iter.                  ...        0 min,  0.424 sec
     gradient                   ...        0 min,  0.236 sec
 * total energy  :  -140.4731607 Eh     change       -0.4725256E-02 Eh
   gradient norm :     0.0227718 Eh/α   predicted    -0.4181780E-02 ( -11.50%)
   displ. norm   :     0.5857783 α      lambda       -0.3766926E-02
   maximum displ.:     0.5655101 α      in ANC's #13, #42, #48, ...

........................................................................
.............................. CYCLE    9 ..............................
........................................................................
   1   -142.8207786 -0.142821E+03  0.915E-02    0.10       0.0  T
   2   -140.0400634  0.278072E+01  0.294E+00    0.00       1.0  T
   3   -142.8099462 -0.276988E+01  0.195E-01    0.11       1.0  T
   4   -139.3915826  0.341836E+01  0.288E+00    0.00       1.0  T
   5   -142.8106779 -0.341910E+01  0.190E-01    0.12       1.0  T
   6   -142.8217635 -0.110856E-01  0.645E-02    0.09       1.0  T
   7   -142.8223536 -0.590072E-03  0.489E-02    0.09       1.0  T
   8   -142.8226160 -0.262373E-03  0.415E-02    0.09       1.0  T
   9   -142.8187655  0.385052E-02  0.104E-01    0.08       1.0  T
  10   -142.8223707 -0.360520E-02  0.453E-02    0.09       1.0  T
  11   -142.8232249 -0.854263E-03  0.564E-03    0.09       2.0  T
  12   -142.8232264 -0.148473E-05  0.532E-03    0.09       2.1  T
  13   -142.8232305 -0.407400E-05  0.389E-03    0.09       2.9  T
  14   -142.8232361 -0.563441E-05  0.104E-03    0.08      10.9  T
  15   -142.8232350  0.107357E-05  0.203E-03    0.08       5.6  T
  16   -142.8232357 -0.673695E-06  0.140E-03    0.08       8.1  T
  17   -142.8232360 -0.297805E-06  0.107E-03    0.08      10.6  T
  18   -142.8232360 -0.330014E-07  0.965E-04    0.08      11.7  T
  19   -142.8232364 -0.328650E-06  0.184E-04    0.08      61.4  T
  20   -142.8232364 -0.988541E-08  0.103E-04    0.08     109.4  T
     SCC iter.                  ...        0 min,  0.448 sec
     gradient                   ...        0 min,  0.236 sec
 * total energy  :  -140.4763054 Eh     change       -0.3144657E-02 Eh
   gradient norm :     0.0131468 Eh/α   predicted    -0.2529754E-02 ( -19.55%)
   displ. norm   :     0.4980289 α      lambda       -0.2485748E-02
   maximum displ.:     0.4869495 α      in ANC's #13, #42, #38, ...

........................................................................
.............................. CYCLE   10 ..............................
........................................................................
   1   -142.8193135 -0.142819E+03  0.152E-02    0.09       0.0  T
   2   -142.7832762  0.360373E-01  0.305E-01    0.05       1.0  T
   3   -142.7170118  0.662644E-01  0.495E-01    0.06       1.0  T
   4   -142.8157651 -0.987533E-01  0.105E-01    0.10       1.0  T
   5   -142.8182297 -0.246458E-02  0.573E-02    0.10       1.0  T
   6   -142.8179004  0.329286E-03  0.597E-02    0.09       1.0  T
   7   -142.8193115 -0.141116E-02  0.842E-03    0.09       1.3  T
   8   -142.8193200 -0.849657E-05  0.738E-03    0.09       1.5  T
   9   -142.8191093  0.210701E-03  0.235E-02    0.09       1.0  T
  10   -142.8192893 -0.179945E-03  0.112E-02    0.09       1.0  T
  11   -142.8193267 -0.374355E-04  0.590E-03    0.09       1.9  T
  12   -142.8193395 -0.127759E-04  0.220E-03    0.09       5.1  T
  13   -142.8193407 -0.120059E-05  0.136E-03    0.09       8.3  T
  14   -142.8193408 -0.145461E-06  0.110E-03    0.09      10.3  T
  15   -142.8193409 -0.929795E-07  0.960E-04    0.09      11.8  T
  16   -142.8193412 -0.291175E-06  0.457E-04    0.09      24.8  T
  17   -142.8193413 -0.842370E-07  0.805E-05    0.09     140.7  T
  18   -142.8193413 -0.167131E-08  0.471E-05    0.09     240.2  T
     SCC iter.                  ...        0 min,  0.401 sec
     gradient                   ...        0 min,  0.234 sec
 * total energy  :  -140.4784228 Eh     change       -0.2117428E-02 Eh
   gradient norm :     0.0100233 Eh/α   predicted    -0.1551200E-02 ( -26.74%)
   displ. norm   :     0.4209917 α      lambda       -0.1661219E-02
   maximum displ.:     0.4096988 α      in ANC's #13, #38, #58, ...

........................................................................
.............................. CYCLE   11 ..............................
........................................................................
   1   -142.8142352 -0.142814E+03  0.358E-02    0.09       0.0  T
   2   -142.7153054  0.989298E-01  0.515E-01    0.11       1.0  T
   3   -139.9111614  0.280414E+01  0.265E+00    0.01       1.0  T
   4   -142.8135784 -0.290242E+01  0.514E-02    0.10       1.0  T
   5   -142.8122892  0.128922E-02  0.774E-02    0.08       1.0  T
   6   -142.8143326 -0.204345E-02  0.284E-02    0.09       1.0  T
   7   -142.8139645  0.368159E-03  0.402E-02    0.09       1.0  T
   8   -142.8144655 -0.500990E-03  0.213E-02    0.09       1.0  T
   9   -142.8146304 -0.164906E-03  0.489E-03    0.09       2.3  T
  10   -142.8146147  0.156938E-04  0.780E-03    0.09       1.5  T
  11   -142.8146338 -0.191133E-04  0.353E-03    0.09       3.2  T
  12   -142.8146305  0.329703E-05  0.450E-03    0.09       2.5  T
  13   -142.8146359 -0.535869E-05  0.267E-03    0.09       4.2  T
  14   -142.8146372 -0.131563E-05  0.194E-03    0.09       5.8  T
  15   -142.8146386 -0.139754E-05  0.519E-04    0.09      21.8  T
  16   -142.8146386 -0.555273E-07  0.366E-04    0.09      31.0  T
  17   -142.8146387 -0.332053E-07  0.193E-04    0.09      58.8  T
  18   -142.8146387 -0.121946E-07  0.480E-05    0.09     235.9  T
     SCC iter.                  ...        0 min,  0.401 sec
     gradient                   ...        0 min,  0.234 sec
 * total energy  :  -140.4798457 Eh     change       -0.1422920E-02 Eh
   gradient norm :     0.0094668 Eh/α   predicted    -0.9778314E-03 ( -31.28%)
   displ. norm   :     0.3555255 α      lambda       -0.1095010E-02
   maximum displ.:     0.3433027 α      in ANC's #13, #6, #58, ...

........................................................................
.............................. CYCLE   12 ..............................
........................................................................
   1   -142.8087553 -0.142809E+03  0.412E-02    0.10       0.0  T
   2   -142.7298243  0.789310E-01  0.466E-01    0.13       1.0  T
   3   -140.3220100  0.240781E+01  0.245E+00    0.01       1.0  T
   4   -142.8088123 -0.248680E+01  0.335E-02    0.10       1.0  T
   5   -142.8080653  0.747005E-03  0.532E-02    0.10       1.0  T
   6   -142.8082852 -0.219888E-03  0.499E-02    0.11       1.0  T
   7   -142.8086154 -0.330195E-03  0.395E-02    0.10       1.0  T
   8   -142.8092460 -0.630619E-03  0.744E-03    0.10       1.5  T
   9   -142.8092095  0.364927E-04  0.121E-02    0.10       1.0  T
  10   -142.8092408 -0.313119E-04  0.827E-03    0.10       1.4  T
  11   -142.8092635 -0.226590E-04  0.298E-03    0.10       3.8  T
  12   -142.8092619  0.157361E-05  0.338E-03    0.10       3.4  T
  13   -142.8092619  0.151803E-07  0.337E-03    0.10       3.4  T
  14   -142.8092649 -0.299013E-05  0.201E-03    0.10       5.6  T
  15   -142.8092665 -0.161887E-05  0.200E-04    0.10      56.7  T
  16   -142.8092665  0.901102E-08  0.244E-04    0.10      46.3  T
  17   -142.8092665  0.159744E-08  0.256E-04    0.10      44.2  T
  18   -142.8092665 -0.218270E-07  0.114E-04    0.10      99.1  T
  19   -142.8092665 -0.340904E-08  0.639E-05    0.10     177.3  T
     SCC iter.                  ...        0 min,  0.422 sec
     gradient                   ...        0 min,  0.234 sec
 * total energy  :  -140.4807752 Eh     change       -0.9294991E-03 Eh
   gradient norm :     0.0075345 Eh/α   predicted    -0.6167682E-03 ( -33.65%)
   displ. norm   :     0.2940970 α      lambda       -0.6815420E-03
   maximum displ.:     0.2792470 α      in ANC's #13, #6, #9, ...

........................................................................
.............................. CYCLE   13 ..............................
........................................................................
   1   -142.8036588 -0.142804E+03  0.257E-02    0.11       0.0  T
   2   -142.5443608  0.259298E+00  0.803E-01    0.07       1.0  T
   3   -141.9312393  0.613122E+00  0.146E+00    0.03       1.0  T
   4   -142.8019461 -0.870707E+00  0.680E-02    0.11       1.0  T
   5   -142.7985012  0.344490E-02  0.113E-01    0.11       1.0  T
   6   -142.8021104 -0.360921E-02  0.650E-02    0.11       1.0  T
   7   -142.8032161 -0.110573E-02  0.402E-02    0.11       1.0  T
   8   -142.8038416 -0.625559E-03  0.333E-03    0.11       3.4  T
   9   -142.8037760  0.656793E-04  0.131E-02    0.11       1.0  T
  10   -142.8037986 -0.226311E-04  0.107E-02    0.11       1.1  T
  11   -142.8038387 -0.400646E-04  0.419E-03    0.11       2.7  T
  12   -142.8038419 -0.325557E-05  0.303E-03    0.11       3.7  T
  13   -142.8038437 -0.179241E-05  0.205E-03    0.11       5.5  T
  14   -142.8038452 -0.144679E-05  0.798E-04    0.11      14.2  T
  15   -142.8038451  0.310716E-07  0.835E-04    0.11      13.6  T
  16   -142.8038453 -0.137861E-06  0.597E-04    0.11      19.0  T
  17   -142.8038454 -0.128425E-06  0.191E-04    0.11      59.2  T
  18   -142.8038454 -0.143700E-07  0.224E-05    0.11     506.5  T
     SCC iter.                  ...        0 min,  0.399 sec
     gradient                   ...        0 min,  0.233 sec
 * total energy  :  -140.4813390 Eh     change       -0.5637231E-03 Eh
   gradient norm :     0.0054483 Eh/α   predicted    -0.3702832E-03 ( -34.31%)
   displ. norm   :     0.2403101 α      lambda       -0.4321749E-03
   maximum displ.:     0.2236716 α      in ANC's #13, #6, #14, ...

........................................................................
.............................. CYCLE   14 ..............................
........................................................................
   1   -142.7996452 -0.142800E+03  0.134E-02    0.12       0.0  T
   2   -142.4956673  0.303978E+00  0.878E-01    0.06       1.0  T
   3   -142.6226855 -0.127018E+00  0.659E-01    0.07       1.0  T
   4   -142.7900654 -0.167380E+00  0.153E-01    0.11       1.0  T
   5   -142.7992145 -0.914914E-02  0.370E-02    0.12       1.0  T
   6   -142.7948961  0.431847E-02  0.108E-01    0.11       1.0  T
   7   -142.7987859 -0.388987E-02  0.467E-02    0.11       1.0  T
   8   -142.7996603 -0.874342E-03  0.872E-03    0.11       1.3  T
   9   -142.7996651 -0.476983E-05  0.855E-03    0.11       1.3  T
  10   -142.7996376  0.274597E-04  0.116E-02    0.11       1.0  T
  11   -142.7996928 -0.552311E-04  0.480E-04    0.11      23.6  T
  12   -142.7996861  0.675121E-05  0.413E-03    0.11       2.7  T
  13   -142.7996774  0.863022E-05  0.615E-03    0.11       1.8  T
  14   -142.7996861 -0.864894E-05  0.407E-03    0.11       2.8  T
  15   -142.7996929 -0.678516E-05  0.233E-04    0.11      48.5  T
  16   -142.7996929  0.630513E-08  0.279E-04    0.11      40.5  T
  17   -142.7996929 -0.294552E-07  0.560E-05    0.11     202.1  T
  18   -142.7996929 -0.748628E-10  0.526E-05    0.11     215.4  T
     SCC iter.                  ...        0 min,  0.400 sec
     gradient                   ...        0 min,  0.233 sec
 * total energy  :  -140.4816655 Eh     change       -0.3265194E-03 Eh
   gradient norm :     0.0041599 Eh/α   predicted    -0.2285804E-03 ( -29.99%)
   displ. norm   :     0.1959721 α      lambda       -0.2774345E-03
   maximum displ.:     0.1745274 α      in ANC's #13, #6, #4, ...

........................................................................
.............................. CYCLE   15 ..............................
........................................................................
   1   -142.7960118 -0.142796E+03  0.199E-02    0.12       0.0  T
   2   -142.5947720  0.201240E+00  0.781E-01    0.04       1.0  T
   3   -142.6481343 -0.533623E-01  0.599E-01    0.08       1.0  T
   4   -142.7942448 -0.146110E+00  0.691E-02    0.12       1.0  T
   5   -142.7955631 -0.131836E-02  0.398E-02    0.12       1.0  T
   6   -142.7960367 -0.473561E-03  0.168E-02    0.12       1.0  T
   7   -142.7961167 -0.799799E-04  0.621E-03    0.11       1.8  T
   8   -142.7960584  0.582710E-04  0.133E-02    0.11       1.0  T
   9   -142.7961070 -0.486364E-04  0.759E-03    0.11       1.5  T
  10   -142.7961171 -0.100745E-04  0.537E-03    0.11       2.1  T
  11   -142.7961269 -0.973090E-05  0.228E-03    0.11       5.0  T
  12   -142.7961274 -0.536655E-06  0.200E-03    0.11       5.7  T
  13   -142.7961287 -0.132250E-05  0.877E-04    0.11      12.9  T
  14   -142.7961288 -0.834676E-07  0.695E-04    0.11      16.3  T
  15   -142.7961289 -0.931523E-07  0.424E-04    0.11      26.7  T
  16   -142.7961289 -0.564105E-07  0.821E-05    0.11     138.0  T
  17   -142.7961289 -0.168109E-08  0.359E-05    0.11     315.0  T
     SCC iter.                  ...        0 min,  0.379 sec
     gradient                   ...        0 min,  0.233 sec
 * total energy  :  -140.4818715 Eh     change       -0.2060512E-03 Eh
   gradient norm :     0.0030543 Eh/α   predicted    -0.1440456E-03 ( -30.09%)
   displ. norm   :     0.1435572 α      lambda       -0.1260542E-03
   maximum displ.:     0.1286045 α      in ANC's #13, #6, #4, ...

........................................................................
.............................. CYCLE   16 ..............................
........................................................................
   1   -142.7937508 -0.142794E+03  0.126E-02    0.11       0.0  T
   2   -142.7126374  0.811134E-01  0.488E-01    0.06       1.0  T
   3   -142.6742769  0.383605E-01  0.538E-01    0.09       1.0  T
   4   -142.7936271 -0.119350E+00  0.222E-02    0.12       1.0  T
   5   -142.7937342 -0.107024E-03  0.139E-02    0.11       1.0  T
   6   -142.7937469 -0.127104E-04  0.117E-02    0.11       1.0  T
   7   -142.7937867 -0.397847E-04  0.535E-03    0.11       2.1  T
   8   -142.7937941 -0.743720E-05  0.330E-03    0.11       3.4  T
   9   -142.7937824  0.116561E-04  0.621E-03    0.11       1.8  T
  10   -142.7937962 -0.137712E-04  0.222E-03    0.11       5.1  T
  11   -142.7937970 -0.814397E-06  0.169E-03    0.11       6.7  T
  12   -142.7937980 -0.966034E-06  0.714E-04    0.11      15.9  T
  13   -142.7937982 -0.167053E-06  0.329E-04    0.11      34.4  T
  14   -142.7937982 -0.139618E-07  0.261E-04    0.11      43.4  T
  15   -142.7937982 -0.171049E-07  0.113E-04    0.11     100.2  T
  16   -142.7937982 -0.387359E-08  0.195E-05    0.11     580.7  T
     SCC iter.                  ...        0 min,  0.356 sec
     gradient                   ...        0 min,  0.233 sec
 * total energy  :  -140.4819738 Eh     change       -0.1022455E-03 Eh
   gradient norm :     0.0025373 Eh/α   predicted    -0.6432909E-04 ( -37.08%)
   displ. norm   :     0.1168634 α      lambda       -0.7084690E-04
   maximum displ.:     0.0996610 α      in ANC's #13, #6, #4, ...

........................................................................
.............................. CYCLE   17 ..............................
........................................................................
   1   -142.7921663 -0.142792E+03  0.113E-02    0.11       0.0  T
   2   -142.7108202  0.813461E-01  0.478E-01    0.06       1.0  T
   3   -142.6326266  0.781936E-01  0.622E-01    0.08       1.0  T
   4   -142.7916258 -0.158999E+00  0.384E-02    0.11       1.0  T
   5   -142.7921663 -0.540443E-03  0.953E-03    0.11       1.2  T
   6   -142.7919152  0.251043E-03  0.265E-02    0.11       1.0  T
   7   -142.7921740 -0.258827E-03  0.869E-03    0.11       1.3  T
   8   -142.7922012 -0.271563E-04  0.311E-03    0.11       3.6  T
   9   -142.7921929  0.828425E-05  0.554E-03    0.11       2.0  T
  10   -142.7921985 -0.558116E-05  0.399E-03    0.11       2.8  T
  11   -142.7922034 -0.491687E-05  0.153E-03    0.11       7.4  T
  12   -142.7922026  0.811760E-06  0.201E-03    0.11       5.6  T
  13   -142.7922031 -0.531726E-06  0.165E-03    0.11       6.9  T
  14   -142.7922041 -0.949159E-06  0.651E-04    0.11      17.4  T
  15   -142.7922043 -0.167935E-06  0.121E-04    0.11      93.3  T
  16   -142.7922043 -0.825935E-09  0.101E-04    0.11     112.1  T
     SCC iter.                  ...        0 min,  0.356 sec
     gradient                   ...        0 min,  0.233 sec
 * total energy  :  -140.4820302 Eh     change       -0.5645418E-04 Eh
   gradient norm :     0.0020838 Eh/α   predicted    -0.3590876E-04 ( -36.39%)
   displ. norm   :     0.1039329 α      lambda       -0.4315583E-04
   maximum displ.:     0.0824349 α      in ANC's #13, #4, #6, ...

........................................................................
.............................. CYCLE   18 ..............................
........................................................................
   1   -142.7909097 -0.142791E+03  0.264E-03    0.11       0.0  T
   2   -142.7629061  0.280036E-01  0.261E-01    0.10       1.0  T
   3   -142.7900690 -0.271629E-01  0.455E-02    0.11       1.0  T
   4   -142.7905634 -0.494377E-03  0.308E-02    0.12       1.0  T
   5   -142.7908055 -0.242070E-03  0.157E-02    0.11       1.0  T
   6   -142.7908297 -0.242042E-04  0.140E-02    0.11       1.0  T
   7   -142.7909113 -0.815759E-04  0.109E-03    0.11      10.4  T
   8   -142.7909054  0.585305E-05  0.392E-03    0.11       2.9  T
   9   -142.7909113 -0.585713E-05  0.104E-03    0.11      10.9  T
  10   -142.7909116 -0.333478E-06  0.413E-04    0.11      27.4  T
  11   -142.7909116 -0.267396E-07  0.292E-04    0.11      38.8  T
  12   -142.7909116 -0.195282E-07  0.172E-04    0.11      65.7  T
  13   -142.7909117 -0.101290E-07  0.679E-05    0.11     166.9  T
     SCC iter.                  ...        0 min,  0.290 sec
     gradient                   ...        0 min,  0.232 sec
 * total energy  :  -140.4820639 Eh     change       -0.3363100E-04 Eh
   gradient norm :     0.0019199 Eh/α   predicted    -0.2181162E-04 ( -35.14%)
   displ. norm   :     0.1628136 α      lambda       -0.3171088E-04
   maximum displ.:     0.1189344 α      in ANC's #13, #4, #6, ...

........................................................................
.............................. CYCLE   19 ..............................
........................................................................
   1   -142.7888769 -0.142789E+03  0.781E-03    0.11       0.0  T
   2   -142.7600842  0.287927E-01  0.286E-01    0.08       1.0  T
   3   -142.7247738  0.353104E-01  0.394E-01    0.09       1.0  T
   4   -142.7883391 -0.635653E-01  0.370E-02    0.11       1.0  T
   5   -142.7887634 -0.424341E-03  0.173E-02    0.11       1.0  T
   6   -142.7886704  0.930533E-04  0.232E-02    0.11       1.0  T
   7   -142.7888879 -0.217501E-03  0.408E-03    0.11       2.8  T
   8   -142.7888905 -0.263969E-05  0.313E-03    0.11       3.6  T
   9   -142.7888917 -0.125146E-05  0.261E-03    0.11       4.3  T
  10   -142.7888923 -0.599508E-06  0.223E-03    0.11       5.1  T
  11   -142.7888941 -0.174687E-05  0.535E-04    0.11      21.2  T
  12   -142.7888941  0.177072E-07  0.543E-04    0.11      20.9  T
  13   -142.7888940  0.311521E-07  0.605E-04    0.11      18.7  T
  14   -142.7888942 -0.128695E-06  0.224E-04    0.11      50.5  T
  15   -142.7888942 -0.196110E-07  0.566E-05    0.11     200.2  T
  16   -142.7888942 -0.598703E-09  0.352E-05    0.11     322.0  T
     SCC iter.                  ...        0 min,  0.355 sec
     gradient                   ...        0 min,  0.232 sec
 * total energy  :  -140.4820924 Eh     change       -0.2851614E-04 Eh
   gradient norm :     0.0020677 Eh/α   predicted    -0.1604267E-04 ( -43.74%)
   displ. norm   :     0.0607526 α      lambda       -0.1296116E-04
   maximum displ.:     0.0349818 α      in ANC's #13, #4, #6, ...

........................................................................
.............................. CYCLE   20 ..............................
........................................................................
   1   -142.7882298 -0.142788E+03  0.515E-03    0.11       0.0  T
   2   -142.7267991  0.614308E-01  0.388E-01    0.10       1.0  T
   3   -142.7761133 -0.493142E-01  0.174E-01    0.12       1.0  T
   4   -142.7871612 -0.110479E-01  0.512E-02    0.11       1.0  T
   5   -142.7869129  0.248257E-03  0.559E-02    0.11       1.0  T
   6   -142.7880086 -0.109575E-02  0.235E-02    0.11       1.0  T
   7   -142.7882147 -0.206067E-03  0.762E-03    0.11       1.5  T
   8   -142.7882217 -0.700182E-05  0.632E-03    0.11       1.8  T
   9   -142.7882285 -0.675308E-05  0.479E-03    0.11       2.4  T
  10   -142.7882374 -0.891213E-05  0.986E-04    0.11      11.5  T
  11   -142.7882377 -0.324768E-06  0.322E-04    0.11      35.2  T
  12   -142.7882377 -0.288372E-07  0.110E-04    0.11     102.8  T
  13   -142.7882377 -0.293312E-08  0.732E-05    0.11     154.8  T
     SCC iter.                  ...        0 min,  0.289 sec
     gradient                   ...        0 min,  0.232 sec
 * total energy  :  -140.4821020 Eh     change       -0.9669967E-05 Eh
   gradient norm :     0.0017959 Eh/α   predicted    -0.6504980E-05 ( -32.73%)
   displ. norm   :     0.1240657 α      lambda       -0.1628752E-04
   maximum displ.:     0.0690697 α      in ANC's #4, #13, #6, ...
 * RMSD in coord.:     0.6084855 α      energy gain  -0.1091575E+01 Eh

generating ANC from model Hessian ...
Using Lindh-Hessian (1995)
 Shifting diagonal of input Hessian by    1.0032006839851726E-002
 Lowest  eigenvalues of input Hessian
    0.010000    0.010010    0.010011    0.000000    0.000000    0.000000
    0.000000    0.000000    0.000000    0.010041    0.010086    0.010556
    0.011132    0.011135    0.011148    0.011857    0.011898    0.012567
 Highest eigenvalues
    2.151033    2.151081    2.151532    2.231953    2.654084    2.982995


........................................................................
.............................. CYCLE   21 ..............................
........................................................................
   1   -142.7870763 -0.142787E+03  0.389E-03    0.11       0.0  T
   2   -142.7441277  0.429486E-01  0.324E-01    0.10       1.0  T
   3   -142.7815286 -0.374008E-01  0.118E-01    0.12       1.0  T
   4   -142.7863286 -0.480001E-02  0.427E-02    0.11       1.0  T
   5   -142.7863399 -0.113292E-04  0.418E-02    0.11       1.0  T
   6   -142.7869090 -0.569046E-03  0.203E-02    0.11       1.0  T
   7   -142.7870655 -0.156583E-03  0.616E-03    0.11       1.8  T
   8   -142.7870684 -0.285443E-05  0.554E-03    0.11       2.0  T
   9   -142.7870762 -0.776746E-05  0.341E-03    0.11       3.3  T
  10   -142.7870804 -0.423071E-05  0.112E-03    0.11      10.1  T
  11   -142.7870807 -0.338724E-06  0.653E-04    0.11      17.3  T
  12   -142.7870809 -0.149525E-06  0.185E-04    0.11      61.2  T
  13   -142.7870809 -0.115514E-07  0.157E-05    0.11     720.4  T
     SCC iter.                  ...        0 min,  0.290 sec
     gradient                   ...        0 min,  0.231 sec
 * total energy  :  -140.4821181 Eh     change       -0.1610566E-04 Eh
   gradient norm :     0.0013080 Eh/α   predicted     0.0000000E+00 (-100.00%)
   displ. norm   :     0.0330501 α      lambda       -0.1772223E-05
   maximum displ.:     0.0234489 α      in ANC's #12, #5, #1, ...

........................................................................
.............................. CYCLE   22 ..............................
........................................................................
   1   -142.7876729 -0.142788E+03  0.340E-03    0.11       0.0  T
   2   -142.7603334  0.273395E-01  0.259E-01    0.09       1.0  T
   3   -142.7803763 -0.200429E-01  0.134E-01    0.10       1.0  T
   4   -142.7871447 -0.676839E-02  0.361E-02    0.11       1.0  T
   5   -142.7874590 -0.314334E-03  0.226E-02    0.11       1.0  T
   6   -142.7875743 -0.115301E-03  0.157E-02    0.11       1.0  T
   7   -142.7876639 -0.895770E-04  0.547E-03    0.11       2.1  T
   8   -142.7876729 -0.899885E-05  0.285E-03    0.11       4.0  T
   9   -142.7876759 -0.298798E-05  0.975E-04    0.11      11.6  T
  10   -142.7876762 -0.267841E-06  0.493E-04    0.11      23.0  T
  11   -142.7876762 -0.650369E-07  0.264E-04    0.11      43.0  T
  12   -142.7876762 -0.247068E-07  0.102E-04    0.11     111.4  T
  13   -142.7876762 -0.271396E-08  0.599E-05    0.11     189.0  T
     SCC iter.                  ...        0 min,  0.275 sec
     gradient                   ...        0 min,  0.232 sec
 * total energy  :  -140.4821273 Eh     change       -0.9157171E-05 Eh
   gradient norm :     0.0010708 Eh/α   predicted    -0.4768194E-05 ( -47.93%)
   displ. norm   :     0.0890215 α      lambda       -0.1880315E-04
   maximum displ.:     0.0619128 α      in ANC's #12, #5, #1, ...

........................................................................
.............................. CYCLE   23 ..............................
........................................................................
   1   -142.7889614 -0.142789E+03  0.513E-03    0.11       0.0  T
   2   -142.6764458  0.112516E+00  0.523E-01    0.08       1.0  T
   3   -142.7802266 -0.103781E+00  0.147E-01    0.10       1.0  T
   4   -142.7871369 -0.691026E-02  0.680E-02    0.11       1.0  T
   5   -142.7882517 -0.111481E-02  0.419E-02    0.11       1.0  T
   6   -142.7886806 -0.428886E-03  0.266E-02    0.11       1.0  T
   7   -142.7889338 -0.253196E-03  0.929E-03    0.11       1.2  T
   8   -142.7889414 -0.762193E-05  0.827E-03    0.11       1.4  T
   9   -142.7889505 -0.908452E-05  0.678E-03    0.11       1.7  T
  10   -142.7889688 -0.183029E-04  0.882E-04    0.11      12.8  T
  11   -142.7889672  0.154201E-05  0.210E-03    0.11       5.4  T
  12   -142.7889676 -0.373401E-06  0.187E-03    0.11       6.1  T
  13   -142.7889688 -0.117131E-05  0.806E-04    0.11      14.0  T
  14   -142.7889690 -0.262817E-06  0.128E-04    0.11      88.8  T
  15   -142.7889690  0.609168E-08  0.174E-04    0.11      65.0  T
     SCC iter.                  ...        0 min,  0.318 sec
     gradient                   ...        0 min,  0.230 sec
 * total energy  :  -140.4821374 Eh     change       -0.1007038E-04 Eh
   gradient norm :     0.0013782 Eh/α   predicted    -0.9434849E-05 (  -6.31%)
   displ. norm   :     0.0740014 α      lambda       -0.1774309E-04
   maximum displ.:     0.0434440 α      in ANC's #12, #5, #1, ...

........................................................................
.............................. CYCLE   24 ..............................
........................................................................
   1   -142.7896603 -0.142790E+03  0.467E-03    0.11       0.0  T
   2   -142.7812150  0.844534E-02  0.150E-01    0.12       1.0  T
   3   -142.7614148  0.198002E-01  0.262E-01    0.11       1.0  T
   4   -142.7896475 -0.282327E-01  0.751E-03    0.11       1.5  T
   5   -142.7896558 -0.832141E-05  0.515E-03    0.11       2.2  T
   6   -142.7896658 -0.998170E-05  0.168E-03    0.11       6.7  T
   7   -142.7896644  0.138756E-05  0.247E-03    0.11       4.6  T
   8   -142.7896666 -0.218465E-05  0.707E-04    0.11      16.0  T
   9   -142.7896666  0.136013E-07  0.721E-04    0.11      15.7  T
  10   -142.7896667 -0.180697E-06  0.296E-04    0.11      38.3  T
  11   -142.7896667 -0.582122E-08  0.263E-04    0.11      43.0  T
  12   -142.7896668 -0.253347E-07  0.896E-05    0.11     126.4  T
  13   -142.7896668 -0.201331E-08  0.559E-05    0.11     202.4  T
     SCC iter.                  ...        0 min,  0.272 sec
     gradient                   ...        0 min,  0.228 sec
 * total energy  :  -140.4821491 Eh     change       -0.1171668E-04 Eh
   gradient norm :     0.0012641 Eh/α   predicted    -0.8893639E-05 ( -24.09%)
   displ. norm   :     0.0408838 α      lambda       -0.8160830E-05
   maximum displ.:     0.0216964 α      in ANC's #5, #6, #1, ...

........................................................................
.............................. CYCLE   25 ..............................
........................................................................
   1   -142.7896080 -0.142790E+03  0.567E-03    0.11       0.0  T
   2   -142.7707272  0.188807E-01  0.220E-01    0.12       1.0  T
   3   -142.7521382  0.185890E-01  0.303E-01    0.11       1.0  T
   4   -142.7895723 -0.374341E-01  0.113E-02    0.11       1.0  T
   5   -142.7895449  0.273517E-04  0.130E-02    0.11       1.0  T
   6   -142.7895874 -0.424426E-04  0.854E-03    0.11       1.3  T
   7   -142.7896140 -0.266168E-04  0.319E-03    0.11       3.6  T
   8   -142.7896162 -0.222726E-05  0.188E-03    0.11       6.0  T
   9   -142.7896171 -0.833848E-06  0.113E-03    0.11      10.0  T
  10   -142.7896174 -0.367363E-06  0.621E-04    0.11      18.2  T
  11   -142.7896175 -0.102052E-06  0.367E-04    0.11      30.9  T
  12   -142.7896176 -0.520066E-07  0.928E-05    0.11     122.0  T
  13   -142.7896176  0.310536E-09  0.946E-05    0.11     119.7  T
     SCC iter.                  ...        0 min,  0.273 sec
     gradient                   ...        0 min,  0.228 sec
 * total energy  :  -140.4821542 Eh     change       -0.5124171E-05 Eh
   gradient norm :     0.0010448 Eh/α   predicted    -0.4083771E-05 ( -20.30%)
   displ. norm   :     0.0629832 α      lambda       -0.1204162E-04
   maximum displ.:     0.0352510 α      in ANC's #5, #1, #8, ...

........................................................................
.............................. CYCLE   26 ..............................
........................................................................
   1   -142.7894576 -0.142789E+03  0.788E-03    0.11       0.0  T
   2   -142.7279817  0.614759E-01  0.391E-01    0.10       1.0  T
   3   -142.7427921 -0.148104E-01  0.340E-01    0.10       1.0  T
   4   -142.7893374 -0.465453E-01  0.194E-02    0.11       1.0  T
   5   -142.7893070  0.303232E-04  0.199E-02    0.11       1.0  T
   6   -142.7893671 -0.601001E-04  0.163E-02    0.11       1.0  T
   7   -142.7894717 -0.104537E-03  0.383E-03    0.11       3.0  T
   8   -142.7894699  0.180928E-05  0.406E-03    0.11       2.8  T
   9   -142.7894738 -0.396093E-05  0.255E-03    0.11       4.4  T
  10   -142.7894760 -0.217725E-05  0.106E-03    0.11      10.7  T
  11   -142.7894764 -0.357930E-06  0.477E-04    0.11      23.7  T
  12   -142.7894764 -0.588531E-07  0.286E-04    0.11      39.6  T
  13   -142.7894765 -0.243787E-07  0.144E-04    0.11      78.4  T
  14   -142.7894765 -0.305243E-08  0.115E-04    0.11      98.3  T
     SCC iter.                  ...        0 min,  0.293 sec
     gradient                   ...        0 min,  0.229 sec
 * total energy  :  -140.4821634 Eh     change       -0.9193137E-05 Eh
   gradient norm :     0.0010704 Eh/α   predicted    -0.6033113E-05 ( -34.37%)
   displ. norm   :     0.0685141 α      lambda       -0.7911541E-05
   maximum displ.:     0.0424115 α      in ANC's #5, #1, #8, ...

........................................................................
.............................. CYCLE   27 ..............................
........................................................................
   1   -142.7897406 -0.142790E+03  0.217E-03    0.11       0.0  T
   2   -142.7841047  0.563583E-02  0.119E-01    0.12       1.0  T
   3   -142.7860385 -0.193375E-02  0.956E-02    0.11       1.0  T
   4   -142.7897112 -0.367273E-02  0.872E-03    0.11       1.3  T
   5   -142.7897163 -0.507963E-05  0.774E-03    0.11       1.5  T
   6   -142.7897336 -0.172635E-04  0.451E-03    0.11       2.5  T
   7   -142.7897413 -0.777402E-05  0.130E-03    0.11       8.7  T
   8   -142.7897417 -0.336983E-06  0.903E-04    0.11      12.5  T
   9   -142.7897419 -0.266895E-06  0.396E-04    0.11      28.6  T
  10   -142.7897420 -0.514062E-07  0.177E-04    0.11      63.8  T
  11   -142.7897420 -0.774256E-08  0.112E-04    0.11     101.1  T
     SCC iter.                  ...        0 min,  0.231 sec
     gradient                   ...        0 min,  0.227 sec
 * total energy  :  -140.4821717 Eh     change       -0.8306282E-05 Eh
   gradient norm :     0.0008938 Eh/α   predicted    -0.3964419E-05 ( -52.27%)
   displ. norm   :     0.1013533 α      lambda       -0.8791025E-05
   maximum displ.:     0.0590979 α      in ANC's #5, #1, #8, ...

........................................................................
.............................. CYCLE   28 ..............................
........................................................................
   1   -142.7899941 -0.142790E+03  0.720E-04    0.11       0.0  T
   2   -142.7899442  0.499390E-04  0.120E-02    0.11       1.0  T
   3   -142.7899108  0.333943E-04  0.143E-02    0.11       1.0  T
   4   -142.7899281 -0.173399E-04  0.126E-02    0.11       1.0  T
   5   -142.7899855 -0.573501E-04  0.455E-03    0.11       2.5  T
   6   -142.7899874 -0.193826E-05  0.406E-03    0.11       2.8  T
   7   -142.7899941 -0.672633E-05  0.457E-04    0.11      24.8  T
   8   -142.7899942 -0.576542E-07  0.146E-04    0.11      77.4  T
   9   -142.7899942 -0.640387E-08  0.704E-05    0.11     160.7  T
     SCC iter.                  ...        0 min,  0.189 sec
     gradient                   ...        0 min,  0.227 sec
 * total energy  :  -140.4821822 Eh     change       -0.1044323E-04 Eh
   gradient norm :     0.0008373 Eh/α   predicted    -0.4419765E-05 ( -57.68%)
   displ. norm   :     0.1845477 α      lambda       -0.1294463E-04
   maximum displ.:     0.1074006 α      in ANC's #5, #1, #8, ...

........................................................................
.............................. CYCLE   29 ..............................
........................................................................
   1   -142.7898025 -0.142790E+03  0.132E-03    0.11       0.0  T
   2   -142.7848103  0.499226E-02  0.110E-01    0.10       1.0  T
   3   -142.7895865 -0.477621E-02  0.236E-02    0.11       1.0  T
   4   -142.7897792 -0.192766E-03  0.855E-03    0.11       1.3  T
   5   -142.7898016 -0.224036E-04  0.205E-03    0.11       5.5  T
   6   -142.7898014  0.279980E-06  0.209E-03    0.11       5.4  T
   7   -142.7898027 -0.136283E-05  0.847E-04    0.11      13.4  T
   8   -142.7898028 -0.660480E-07  0.651E-04    0.11      17.4  T
   9   -142.7898030 -0.157283E-06  0.229E-04    0.11      49.5  T
  10   -142.7898030 -0.211464E-07  0.437E-05    0.11     259.2  T
  11   -142.7898030  0.240220E-09  0.471E-05    0.11     240.2  T
     SCC iter.                  ...        0 min,  0.232 sec
     gradient                   ...        0 min,  0.229 sec
 * total energy  :  -140.4821979 Eh     change       -0.1575783E-04 Eh
   gradient norm :     0.0011223 Eh/α   predicted    -0.6571285E-05 ( -58.30%)
   displ. norm   :     0.2794772 α      lambda       -0.1543986E-04
   maximum displ.:     0.1605154 α      in ANC's #5, #1, #8, ...

........................................................................
.............................. CYCLE   30 ..............................
........................................................................
   1   -142.7890671 -0.142789E+03  0.151E-03    0.11       0.0  T
   2   -142.7833104  0.575670E-02  0.119E-01    0.11       1.0  T
   3   -142.7886712 -0.536087E-02  0.326E-02    0.11       1.0  T
   4   -142.7890240 -0.352725E-03  0.104E-02    0.11       1.1  T
   5   -142.7890519 -0.279366E-04  0.610E-03    0.11       1.9  T
   6   -142.7890581 -0.616125E-05  0.481E-03    0.11       2.4  T
   7   -142.7890677 -0.961170E-05  0.526E-04    0.11      21.5  T
   8   -142.7890676  0.485913E-07  0.634E-04    0.11      17.9  T
   9   -142.7890678 -0.139631E-06  0.259E-04    0.11      43.7  T
  10   -142.7890678 -0.270533E-07  0.462E-05    0.11     245.1  T
  11   -142.7890678  0.852651E-11  0.446E-05    0.11     253.7  T
     SCC iter.                  ...        0 min,  0.229 sec
     gradient                   ...        0 min,  0.227 sec
 * total energy  :  -140.4822145 Eh     change       -0.1659841E-04 Eh
   gradient norm :     0.0012288 Eh/α   predicted    -0.7989815E-05 ( -51.86%)
   displ. norm   :     0.1787977 α      lambda       -0.6909613E-05
   maximum displ.:     0.1006633 α      in ANC's #5, #1, #8, ...

........................................................................
.............................. CYCLE   31 ..............................
........................................................................
   1   -142.7888919 -0.142789E+03  0.204E-03    0.11       0.0  T
   2   -142.7804188  0.847312E-02  0.144E-01    0.11       1.0  T
   3   -142.7871262 -0.670745E-02  0.666E-02    0.11       1.0  T
   4   -142.7888758 -0.174957E-02  0.706E-03    0.11       1.6  T
   5   -142.7888704  0.539218E-05  0.731E-03    0.11       1.5  T
   6   -142.7888882 -0.177887E-04  0.347E-03    0.11       3.3  T
   7   -142.7888929 -0.466323E-05  0.883E-04    0.11      12.8  T
   8   -142.7888929 -0.442975E-07  0.802E-04    0.11      14.1  T
   9   -142.7888931 -0.238190E-06  0.166E-04    0.11      68.1  T
  10   -142.7888931 -0.488845E-08  0.104E-04    0.11     108.9  T
     SCC iter.                  ...        0 min,  0.208 sec
     gradient                   ...        0 min,  0.218 sec
 * total energy  :  -140.4822220 Eh     change       -0.7464089E-05 Eh
   gradient norm :     0.0010257 Eh/α   predicted    -0.3508902E-05 ( -52.99%)
   displ. norm   :     0.1787977 α      lambda        0.0000000E+00
   maximum displ.:     0.1006633 α      in ANC's #5, #1, #8, ...

........................................................................
.............................. CYCLE   32 ..............................
........................................................................
   1   -142.7884772 -0.142788E+03  0.240E-03    0.11       0.0  T
   2   -142.7765235  0.119537E-01  0.171E-01    0.11       1.0  T
   3   -142.7860414 -0.951787E-02  0.783E-02    0.11       1.0  T
   4   -142.7884592 -0.241788E-02  0.765E-03    0.10       1.5  T
   5   -142.7884590  0.225466E-06  0.684E-03    0.11       1.7  T
   6   -142.7884736 -0.145529E-04  0.362E-03    0.11       3.1  T
   7   -142.7884785 -0.494261E-05  0.109E-03    0.11      10.4  T
   8   -142.7884787 -0.166127E-06  0.865E-04    0.11      13.1  T
   9   -142.7884790 -0.270764E-06  0.196E-04    0.11      57.6  T
  10   -142.7884790 -0.492076E-08  0.140E-04    0.11      81.0  T
     SCC iter.                  ...        0 min,  0.221 sec
     gradient                   ...        0 min,  0.234 sec
 * total energy  :  -140.4822236 Eh     change       -0.1604651E-05 Eh
   gradient norm :     0.0011493 Eh/α   predicted     0.2874219E-08 (-100.18%)
   displ. norm   :     0.0235101 α      lambda       -0.2750055E-05
   maximum displ.:     0.0150752 α      in ANC's #5, #10, #8, ...

........................................................................
.............................. CYCLE   33 ..............................
........................................................................
   1   -142.7888639 -0.142789E+03  0.952E-04    0.11       0.0  T
   2   -142.7870073  0.185659E-02  0.674E-02    0.11       1.0  T
   3   -142.7884713 -0.146399E-02  0.313E-02    0.11       1.0  T
   4   -142.7888460 -0.374674E-03  0.685E-03    0.11       1.7  T
   5   -142.7888518 -0.584163E-05  0.537E-03    0.11       2.1  T
   6   -142.7888586 -0.674604E-05  0.367E-03    0.11       3.1  T
   7   -142.7888639 -0.529102E-05  0.882E-04    0.11      12.8  T
   8   -142.7888640 -0.128147E-06  0.637E-04    0.11      17.8  T
   9   -142.7888642 -0.159640E-06  0.988E-05    0.11     114.6  T
  10   -142.7888642 -0.343761E-08  0.301E-05    0.11     376.7  T
     SCC iter.                  ...        0 min,  0.223 sec
     gradient                   ...        0 min,  0.234 sec
 * total energy  :  -140.4822269 Eh     change       -0.3294180E-05 Eh
   gradient norm :     0.0008899 Eh/α   predicted    -0.1377177E-05 ( -58.19%)
   displ. norm   :     0.0520489 α      lambda       -0.6094503E-05
   maximum displ.:     0.0295634 α      in ANC's #5, #10, #9, ...

   *** GEOMETRY OPTIMIZATION CONVERGED AFTER 33 ITERATIONS ***

------------------------------------------------------------------------
 total energy gain   :        -1.0917002 Eh     -685.0522 kcal/mol
 total RMSD          :         0.6290104 a0        0.3329 Å
 total power (kW/mol):       -86.8563179 (step) -125.3504 (real)
------------------------------------------------------------------------

 ANCopt (total)                0 d,  0 h,  0 min, 22.866 sec
 optimizer setup                ...        0 min,  0.000 sec (  0.001%)
 model hessian                  ...        0 min,  0.050 sec (  0.219%)
 ANC generation                 ...        0 min,  0.021 sec (  0.093%)
 coordinate transformation      ...        0 min,  0.003 sec (  0.014%)
 single point calculation       ...        0 min, 22.748 sec ( 99.482%)
 optimization log               ...        0 min,  0.025 sec (  0.109%)
 hessian update                 ...        0 min,  0.002 sec (  0.011%)
 rational function              ...        0 min,  0.011 sec (  0.048%)

================
 final structure:
================
78
 xtb: 6.5.1 (b24c23e)
Fe           6.51661644304858       -0.05177392860716        0.00839293882738
C            3.10510013348305       -0.06155268244570       -0.01759331924868
C            3.76179466737375       -0.89978422218759       -0.89521420639516
C            3.09276813598695       -1.78257068337025       -1.80566209131568
C            4.05824647387927       -2.44586741083787       -2.48414168736336
C            5.31435035935690       -1.96994625140261       -1.98313006441663
N            5.12055587865005       -1.01513879346846       -1.02209910769260
C            6.53880529352973       -2.44388296370124       -2.41026953674550
C            7.75266730955096       -2.01345693948693       -1.91913675625624
C            9.01361535356171       -2.53868825756944       -2.34873743309301
C            9.96755547579701       -1.87422905638698       -1.65352627741479
N            7.93565859625967       -1.03427762869301       -0.97295529725291
C            9.28559137867544       -0.94165267510820       -0.80829811035318
C            9.94849523874650       -0.03548376373115        0.02755582378425
C            9.26890821368370        0.88483664216375        0.83390624225009
C            9.93345224505186        1.82482619326875        1.68468744131834
C            8.96478469626796        2.52341363069123        2.32375418170091
C            7.71271942493042        2.00336929310205        1.86325160348329
N            7.91541896071904        1.00742930790894        0.93832426175608
C            6.48905194616881        2.44287262629803        2.32057641769691
C            5.27423001363859        1.93923655770397        1.89985259806978
C            4.00899675475612        2.39033799560114        2.40077045273939
C            3.05776816946732        1.68184699198323        1.74828594897700
C            3.74448559514863        0.80240115801056        0.84786716504884
N            5.09995595873727        0.96798295264970        0.95187426246975
H            2.02112077108754       -0.07864903672014       -0.01171612775062
H            2.02136982413589       -1.86793884724018       -1.89599728591548
H            3.95265842639288       -3.19527092716641       -3.25263584857965
H            6.54584830832909       -3.21371006742989       -3.17375357743308
H            9.13237855018023       -3.31701563765618       -3.08568077269572
H           11.03878173956457       -1.98800922652891       -1.69913779968207
H           11.00390884314538        1.92166910545204        1.77009985919315
H            9.06830285992450        3.31600002729304        3.04764374171999
H            6.48034173038261        3.23037940005755        3.06579055495187
H            3.88796120915059        3.15151399516515        3.15529354605960
H            1.98526140251865        1.73499947046626        1.84960672535182
Fe          22.54944001486894        0.02959586366351        0.04455918790764
C           25.96066374516556        0.05707785032253        0.02236483136415
C           25.30289817812775        1.26718486899916       -0.06165728873408
C           25.97069046860259        2.53329832098649       -0.14434421928007
C           25.00431453916574        3.47959637203250       -0.19959044664582
C           23.74889588774353        2.78944533525646       -0.14526870883143
N           23.94396121772338        1.43677817326827       -0.07499989615978
C           22.52387655819411        3.42632912560079       -0.13925145845524
C           21.31094481983931        2.77653011457041       -0.05889207523356
C           20.04976568644551        3.45328155773220       -0.01751212107020
C           19.09687689269160        2.49341407736367        0.05620070566192
N           21.12918977573911        1.41538803367783       -0.01475025809668
C           19.77964914851447        1.23525782569847        0.05210945587154
C           19.11783113940369        0.00195777900179        0.06391899127853
C           19.79827135834785       -1.22090859335167        0.03844784150640
C           19.13444833188667       -2.48912692827128        0.03789832136510
C           20.10363651942297       -3.43536312861224        0.03409731666646
C           21.35534132429049       -2.74000523333469        0.03686003940848
N           21.15174342363866       -1.38107483838650        0.02567475847302
C           22.57972508864793       -3.37194560119786        0.07206645444055
C           23.79404605942401       -2.71519574020144        0.09595949063333
C           25.06006742500129       -3.38492113465834        0.15811267922779
C           26.01039622322155       -2.42089015389344        0.15198434263349
C           25.32235547619880       -1.16493689638448        0.08171255557408
N           23.96698326317206       -1.35856413034958        0.05032804859836
H           27.04466756210811        0.06653854841157        0.03570314059689
H           27.04196315296697        2.65815751561088       -0.15603740623736
H           25.10886523097633        4.55105536396928       -0.26569403407376
H           22.51563853635341        4.50944458242570       -0.18808086692203
H           19.93008402041973        4.52481964898869       -0.03971951001571
H           18.02590099455956        2.60780934375798        0.10508132297964
H           18.06403650159250       -2.61870901164330        0.04227976604299
H           20.00079887574015       -4.50883298886034        0.03597931239124
H           22.58948335730071       -4.45595810078417        0.09138500230819
H           25.18220412236396       -4.45567777768562        0.20167862649905
H           27.08308954981040       -2.52745426882700        0.18844327059139
C           15.14768898485133       -0.02148877265101        0.09865890542273
C           13.91839354620872       -0.03237659411307        0.08776535441918
C           12.57551234462191       -0.03252807776572        0.07446454379637
C           11.35092458371224       -0.04330691960820        0.04963430677963
C           16.49060391713413       -0.01516721474159        0.09716740877754
C           17.71545077253724       -0.00872354408952        0.08733384275481

 Bond Distances (Angstroems)
 ---------------------------
Fe1-N7=1.9847        Fe1-N12=1.9855       Fe1-N19=1.9858       Fe1-N25=1.9842       C2-C3=1.3799         C2-C24=1.3799        
C2-H26=1.0841        C3-C2=1.3799         C3-C4=1.4338         C3-N7=1.3695         C4-C3=1.4338         C4-C5=1.3537         
C4-H27=1.0786        C5-C4=1.3537         C5-C6=1.4336         C5-H28=1.0786        C6-C5=1.4336         C6-N7=1.3685         
C6-C8=1.3807         N7-Fe1=1.9847        N7-C3=1.3695         N7-C6=1.3685         C8-C6=1.3807         C8-C9=1.3784         
C8-H29=1.0842        C9-C8=1.3784         C9-C10=1.4319        C9-N12=1.3739        C10-C9=1.4319        C10-C11=1.3546       
C10-H30=1.0784       C11-C10=1.3546       C11-C13=1.4315       C11-H31=1.0782       N12-Fe1=1.9855       N12-C9=1.3739        
N12-C13=1.3631       C13-C11=1.4315       C13-N12=1.3631       C13-C14=1.3997       C14-C13=1.3997       C14-C15=1.3997       
C14-C76=1.4026       C15-C14=1.3997       C15-C16=1.4314       C15-N19=1.3630       C16-C15=1.4314       C16-C17=1.3545       
C16-H32=1.0782       C17-C16=1.3545       C17-C18=1.4318       C17-H33=1.0784       C18-C17=1.4318       C18-N19=1.3742       
C18-C20=1.3783       N19-Fe1=1.9858       N19-C15=1.3630       N19-C18=1.3742       C20-C18=1.3783       C20-C21=1.3807       
C20-H34=1.0842       C21-C20=1.3807       C21-C22=1.4336       C21-N25=1.3683       C22-C21=1.4336       C22-C23=1.3537       
C22-H35=1.0786       C23-C22=1.3537       C23-C24=1.4338       C23-H36=1.0786       C24-C2=1.3799        C24-C23=1.4338       
C24-N25=1.3695       N25-Fe1=1.9842       N25-C21=1.3683       N25-C24=1.3695       H26-C2=1.0841        H27-C4=1.0786        
H28-C5=1.0786        H29-C8=1.0842        H30-C10=1.0784       H31-C11=1.0782       H32-C16=1.0782       H33-C17=1.0784       
H34-C20=1.0842       H35-C22=1.0786       H36-C23=1.0786       Fe37-N43=1.9847      Fe37-N48=1.9852      Fe37-N55=1.9859      
Fe37-N61=1.9840      C38-C39=1.3799       C38-C60=1.3800       C38-H62=1.0841       C39-C38=1.3799       C39-C40=1.4338       
C39-N43=1.3695       C40-C39=1.4338       C40-C41=1.3537       C40-H63=1.0786       C41-C40=1.3537       C41-C42=1.4336       
[...]
         1        2.0000           -0.7713457             -20.9894
       ...           ...                  ...                  ...
       119        2.0000           -0.4296968             -11.6926
       120        2.0000           -0.4263770             -11.6023
       121        2.0000           -0.4212874             -11.4638
       122        2.0000           -0.3991117             -10.8604
       123        2.0000           -0.3989283             -10.8554
       124        2.0000           -0.3989179             -10.8551
       125        1.9914           -0.3936753             -10.7125
       126        1.9909           -0.3936217             -10.7110
       127        1.9323           -0.3916854             -10.6583
       128        1.9323           -0.3916852             -10.6583
       129        1.9192           -0.3915107             -10.6535
       130        1.9177           -0.3914926             -10.6531
       131        1.8164           -0.3906786             -10.6309 (HOMO)
       132        0.2805           -0.3867785             -10.5248 (LUMO)
       133        0.2192           -0.3865110             -10.5175
       134                         -0.3404556              -9.2643
       135                         -0.3310487              -9.0083
       136                         -0.3295256              -8.9668
       137                         -0.3295212              -8.9667
       138                         -0.3057427              -8.3197
       139                         -0.3057287              -8.3193
       140                         -0.3010791              -8.1928
       141                         -0.2975324              -8.0963
       142                         -0.2846092              -7.7446
       ...                                ...                  ...
       278                          1.5710041              42.7492
      -------------------------------------------------------------
                  HL-Gap            0.0039001 Eh            0.1061 eV
             Fermi-level           -0.3885010 Eh          -10.5717 eV

  Mulliken/CM5 charges         n(s)   n(p)   n(d)
     1Fe    0.07868  0.50661   0.203  0.858  6.860
     2C    -0.04979 -0.09119   1.062  2.988  0.000
     3C     0.14467  0.20536   1.044  2.812  0.000
     4C    -0.05859 -0.10501   1.062  2.996  0.000
     5C    -0.05892 -0.10534   1.062  2.997  0.000
     6C     0.14488  0.20565   1.044  2.811  0.000
     7N    -0.24890 -0.51527   1.514  3.735  0.000
     8C    -0.04827 -0.08976   1.062  2.986  0.000
     9C     0.14243  0.20229   1.043  2.814  0.000
    10C    -0.05790 -0.10434   1.062  2.996  0.000
    11C    -0.05935 -0.10485   1.061  2.998  0.000
    12N    -0.24904 -0.51492   1.514  3.735  0.000
    13C     0.14529  0.21082   1.046  2.808  0.000
    14C     0.00613  0.01294   1.067  2.927  0.000
    15C     0.14529  0.21085   1.046  2.808  0.000
    16C    -0.05939 -0.10490   1.061  2.998  0.000
    17C    -0.05793 -0.10437   1.062  2.996  0.000
    18C     0.14237  0.20217   1.043  2.814  0.000
    19N    -0.24870 -0.51444   1.514  3.735  0.000
    20C    -0.04822 -0.08971   1.062  2.986  0.000
    21C     0.14489  0.20567   1.044  2.811  0.000
    22C    -0.05892 -0.10534   1.062  2.997  0.000
    23C    -0.05858 -0.10499   1.062  2.996  0.000
    24C     0.14470  0.20538   1.044  2.812  0.000
    25N    -0.24918 -0.51572   1.513  3.736  0.000
    26H     0.03796  0.09688   0.962  0.000  0.000
    27H     0.03646  0.09304   0.964  0.000  0.000
    28H     0.03649  0.09307   0.964  0.000  0.000
    29H     0.03826  0.09723   0.962  0.000  0.000
    30H     0.03705  0.09366   0.963  0.000  0.000
    31H     0.03804  0.09614   0.962  0.000  0.000
    32H     0.03804  0.09618   0.962  0.000  0.000
    33H     0.03705  0.09366   0.963  0.000  0.000
    34H     0.03827  0.09724   0.962  0.000  0.000
    35H     0.03648  0.09306   0.964  0.000  0.000
    36H     0.03645  0.09303   0.964  0.000  0.000
    37Fe    0.07868  0.50667   0.203  0.858  6.860
    38C    -0.04978 -0.09119   1.062  2.988  0.000
    39C     0.14467  0.20535   1.044  2.812  0.000
    40C    -0.05859 -0.10501   1.062  2.996  0.000
    41C    -0.05892 -0.10534   1.062  2.997  0.000
    42C     0.14488  0.20565   1.044  2.811  0.000
    43N    -0.24891 -0.51528   1.514  3.735  0.000
    44C    -0.04826 -0.08975   1.062  2.986  0.000
    45C     0.14242  0.20227   1.043  2.814  0.000
    46C    -0.05789 -0.10433   1.062  2.996  0.000
    47C    -0.05938 -0.10489   1.061  2.998  0.000
    48N    -0.24902 -0.51495   1.514  3.735  0.000
    49C     0.14531  0.21083   1.046  2.808  0.000
    50C     0.00615  0.01295   1.067  2.927  0.000
    51C     0.14526  0.21082   1.046  2.808  0.000
    52C    -0.05936 -0.10486   1.061  2.998  0.000
    53C    -0.05794 -0.10438   1.062  2.996  0.000
    54C     0.14238  0.20220   1.043  2.814  0.000
    55N    -0.24870 -0.51444   1.514  3.735  0.000
    56C    -0.04822 -0.08971   1.062  2.986  0.000
    57C     0.14488  0.20566   1.044  2.811  0.000
    58C    -0.05892 -0.10534   1.062  2.997  0.000
    59C    -0.05858 -0.10500   1.062  2.996  0.000
    60C     0.14470  0.20538   1.044  2.812  0.000
    61N    -0.24916 -0.51573   1.513  3.736  0.000
    62H     0.03796  0.09688   0.962  0.000  0.000
    63H     0.03646  0.09304   0.964  0.000  0.000
    64H     0.03649  0.09307   0.964  0.000  0.000
    65H     0.03826  0.09723   0.962  0.000  0.000
    66H     0.03705  0.09366   0.963  0.000  0.000
    67H     0.03804  0.09616   0.962  0.000  0.000
    68H     0.03804  0.09616   0.962  0.000  0.000
    69H     0.03705  0.09367   0.963  0.000  0.000
    70H     0.03827  0.09724   0.962  0.000  0.000
    71H     0.03648  0.09306   0.964  0.000  0.000
    72H     0.03645  0.09303   0.964  0.000  0.000
    73C    -0.00377 -0.00387   1.078  2.926  0.000
    74C    -0.00377 -0.00387   1.078  2.926  0.000
    75C    -0.01325 -0.01400   1.074  2.940  0.000
    76C    -0.02121 -0.02292   1.105  2.916  0.000
    77C    -0.01325 -0.01399   1.074  2.940  0.000
    78C    -0.02122 -0.02292   1.105  2.916  0.000

Wiberg/Mayer (AO) data.
largest (>0.10) Wiberg bond orders for each atom

 ---------------------------------------------------------------------------
     #   Z sym  total        # sym  WBO       # sym  WBO       # sym  WBO
 ---------------------------------------------------------------------------
     1  26 Fe   3.180 --     7 N    0.678    25 N    0.677    19 N    0.671
                            12 N    0.670
     2   6 C    3.932 --     3 C    1.364    24 C    1.364    26 H    0.971
     3   6 C    3.924 --     2 C    1.364     7 N    1.213     4 C    1.169
     4   6 C    3.958 --     5 C    1.655     3 C    1.169    27 H    0.975
     5   6 C    3.960 --     4 C    1.655     6 C    1.170    28 H    0.975
     6   6 C    3.920 --     8 C    1.357     7 N    1.217     5 C    1.170
     7   7 N    3.390 --     6 C    1.217     3 C    1.213     1 Fe   0.678
     8   6 C    3.937 --     9 C    1.374     6 C    1.357    29 H    0.970
     9   6 C    3.916 --     8 C    1.374    12 N    1.195    10 C    1.174
    10   6 C    3.956 --    11 C    1.644     9 C    1.174    30 H    0.975
    11   6 C    3.959 --    10 C    1.644    13 C    1.183    31 H    0.973
    12   7 N    3.389 --    13 C    1.246     9 C    1.195     1 Fe   0.670
    13   6 C    3.904 --    14 C    1.256    12 N    1.246    11 C    1.183
    14   6 C    3.934 --    13 C    1.256    15 C    1.255    76 C    1.196
    15   6 C    3.904 --    14 C    1.255    19 N    1.247    16 C    1.183
    16   6 C    3.959 --    17 C    1.644    15 C    1.183    32 H    0.973
    17   6 C    3.956 --    16 C    1.644    18 C    1.174    33 H    0.975
    18   6 C    3.916 --    20 C    1.375    19 N    1.194    17 C    1.174
    19   7 N    3.390 --    15 C    1.247    18 C    1.194     1 Fe   0.671
    20   6 C    3.937 --    18 C    1.375    21 C    1.356    34 H    0.970
    21   6 C    3.921 --    20 C    1.356    25 N    1.217    22 C    1.170
    22   6 C    3.960 --    23 C    1.655    21 C    1.170    35 H    0.975
    23   6 C    3.958 --    22 C    1.655    24 C    1.169    36 H    0.975
    24   6 C    3.924 --     2 C    1.364    25 N    1.213    23 C    1.169
    25   7 N    3.390 --    21 C    1.217    24 C    1.213     1 Fe   0.677
    26   1 H    1.000 --     2 C    0.971
    27   1 H    0.997 --     4 C    0.975
    28   1 H    0.997 --     5 C    0.975
    29   1 H    1.000 --     8 C    0.970
    30   1 H    0.997 --    10 C    0.975
    31   1 H    1.001 --    11 C    0.973
    32   1 H    1.002 --    16 C    0.973
    33   1 H    0.997 --    17 C    0.975
    34   1 H    1.000 --    20 C    0.970
    35   1 H    0.997 --    22 C    0.975
    36   1 H    0.997 --    23 C    0.975
    37  26 Fe   3.180 --    43 N    0.678    61 N    0.677    55 N    0.671
                            48 N    0.670
    38   6 C    3.932 --    39 C    1.364    60 C    1.364    62 H    0.971
    39   6 C    3.924 --    38 C    1.364    43 N    1.213    40 C    1.169
    40   6 C    3.958 --    41 C    1.655    39 C    1.169    63 H    0.975
    41   6 C    3.960 --    40 C    1.655    42 C    1.170    64 H    0.975
    42   6 C    3.920 --    44 C    1.357    43 N    1.217    41 C    1.170
    43   7 N    3.390 --    42 C    1.217    39 C    1.213    37 Fe   0.678
    44   6 C    3.937 --    45 C    1.374    42 C    1.357    65 H    0.970
    45   6 C    3.916 --    44 C    1.374    48 N    1.195    46 C    1.174
    46   6 C    3.956 --    47 C    1.644    45 C    1.174    66 H    0.975
    47   6 C    3.959 --    46 C    1.644    49 C    1.183    67 H    0.973
    48   7 N    3.389 --    49 C    1.246    45 C    1.195    37 Fe   0.670
    49   6 C    3.904 --    50 C    1.255    48 N    1.246    47 C    1.183
    50   6 C    3.934 --    51 C    1.256    49 C    1.255    78 C    1.196
    51   6 C    3.904 --    50 C    1.256    55 N    1.247    52 C    1.183
    52   6 C    3.959 --    53 C    1.644    51 C    1.183    68 H    0.973
    53   6 C    3.956 --    52 C    1.644    54 C    1.174    69 H    0.975
    54   6 C    3.916 --    56 C    1.374    55 N    1.195    53 C    1.174
    55   7 N    3.390 --    51 C    1.247    54 C    1.195    37 Fe   0.671
    56   6 C    3.937 --    54 C    1.374    57 C    1.356    70 H    0.970
    57   6 C    3.921 --    56 C    1.356    61 N    1.217    58 C    1.170
    58   6 C    3.960 --    59 C    1.655    57 C    1.170    71 H    0.975
    59   6 C    3.958 --    58 C    1.655    60 C    1.169    72 H    0.975
    60   6 C    3.924 --    38 C    1.364    61 N    1.213    59 C    1.169
    61   7 N    3.390 --    57 C    1.217    60 C    1.213    37 Fe   0.677
    62   1 H    1.000 --    38 C    0.971
    63   1 H    0.997 --    40 C    0.975
    64   1 H    0.997 --    41 C    0.975
    65   1 H    1.000 --    44 C    0.970
    66   1 H    0.997 --    46 C    0.975
    67   1 H    1.001 --    47 C    0.973
    68   1 H    1.001 --    52 C    0.973
    69   1 H    0.997 --    53 C    0.975
    70   1 H    1.000 --    56 C    0.970
    71   1 H    0.997 --    58 C    0.975
    72   1 H    0.997 --    59 C    0.975
    73   6 C    3.915 --    74 C    2.352    77 C    1.343    76 C    0.187
    74   6 C    3.915 --    73 C    2.352    75 C    1.343    78 C    0.187
    75   6 C    3.926 --    76 C    2.434    74 C    1.343
    76   6 C    3.881 --    75 C    2.434    14 C    1.196    73 C    0.187
    77   6 C    3.926 --    78 C    2.434    73 C    1.343
    78   6 C    3.881 --    77 C    2.434    50 C    1.196    74 C    0.187
 ---------------------------------------------------------------------------

Topologies differ in total number of bonds
Writing topology from bond orders to xtbtopo.mol

 dipole moment from electron density (au)
     X       Y       Z   
   0.0014  -0.1100   0.2826  total (Debye):    0.771

           -------------------------------------------------
          |                Geometry Summary                 |
           -------------------------------------------------

      molecular mass/u    :      798.4124624
   center of mass at/Å    :       14.5329740      -0.0022849       0.0052331
  moments of inertia/u·Å² :        0.3681828E+04   0.5138267E+05   0.5395041E+05
rotational constants/cm⁻¹ :        0.4578605E-02   0.3280801E-03   0.3124653E-03

 * 81 selected distances

     #   Z          #   Z                                           value/Å
     2   6 C        3   6 C                                       1.3798908
     3   6 C        4   6 C                                       1.4338146
     4   6 C        5   6 C                                       1.3536786
     5   6 C        6   6 C                                       1.4336356
     3   6 C        7   7 N                                       1.3695396
     6   6 C        7   7 N                                       1.3685008
     6   6 C        8   6 C                                       1.3807079
     8   6 C        9   6 C                                       1.3783829
     9   6 C       10   6 C                                       1.4319270
    10   6 C       11   6 C                                       1.3545577
     9   6 C       12   7 N                                       1.3738769
    11   6 C       13   6 C                                       1.4314974
    12   7 N       13   6 C                                       1.3630885
    13   6 C       14   6 C                                       1.3997270
    14   6 C       15   6 C                                       1.3996534
    15   6 C       16   6 C                                       1.4314427
    16   6 C       17   6 C                                       1.3545287
    17   6 C       18   6 C                                       1.4318438
    15   6 C       19   7 N                                       1.3630354
    18   6 C       19   7 N                                       1.3742178
    18   6 C       20   6 C                                       1.3782858
    20   6 C       21   6 C                                       1.3807427
    21   6 C       22   6 C                                       1.4336062
    22   6 C       23   6 C                                       1.3537103
     2   6 C       24   6 C                                       1.3799465
    23   6 C       24   6 C                                       1.4337922
    21   6 C       25   7 N                                       1.3683451
    24   6 C       25   7 N                                       1.3695018
     2   6 C       26   1 H                                       1.0841302
     4   6 C       27   1 H                                       1.0785837
     5   6 C       28   1 H                                       1.0785815
     8   6 C       29   1 H                                       1.0842470
    10   6 C       30   1 H                                       1.0784173
    11   6 C       31   1 H                                       1.0782172
    16   6 C       32   1 H                                       1.0782168
    17   6 C       33   1 H                                       1.0783902
    20   6 C       34   1 H                                       1.0842450
    22   6 C       35   1 H                                       1.0785842
    23   6 C       36   1 H                                       1.0785926
    38   6 C       39   6 C                                       1.3798821
    39   6 C       40   6 C                                       1.4338157 (max)
    40   6 C       41   6 C                                       1.3536672
    41   6 C       42   6 C                                       1.4336442
    39   6 C       43   7 N                                       1.3695437
    42   6 C       43   7 N                                       1.3684652
    42   6 C       44   6 C                                       1.3806991
    44   6 C       45   6 C                                       1.3783687
    45   6 C       46   6 C                                       1.4318792
    46   6 C       47   6 C                                       1.3545392
    45   6 C       48   7 N                                       1.3739329
    47   6 C       49   6 C                                       1.4314860
    48   7 N       49   6 C                                       1.3631498
    49   6 C       50   6 C                                       1.3997042
    50   6 C       51   6 C                                       1.3996607
    51   6 C       52   6 C                                       1.4314466
    52   6 C       53   6 C                                       1.3545123
    53   6 C       54   6 C                                       1.4318853
    51   6 C       55   7 N                                       1.3629759
    54   6 C       55   7 N                                       1.3741431
    54   6 C       56   6 C                                       1.3782975
    56   6 C       57   6 C                                       1.3807487
    57   6 C       58   6 C                                       1.4335988
    58   6 C       59   6 C                                       1.3537055
    38   6 C       60   6 C                                       1.3799565
    59   6 C       60   6 C                                       1.4337912
    57   6 C       61   7 N                                       1.3683710
    60   6 C       61   7 N                                       1.3694929
    38   6 C       62   1 H                                       1.0841273
    40   6 C       63   1 H                                       1.0785879
    41   6 C       64   1 H                                       1.0785755
    44   6 C       65   1 H                                       1.0842470
    46   6 C       66   1 H                                       1.0784299
    47   6 C       67   1 H                                       1.0781768 (min)
    52   6 C       68   1 H                                       1.0782358
    53   6 C       69   1 H                                       1.0783862
    56   6 C       70   1 H                                       1.0842286
    58   6 C       71   1 H                                       1.0785803
    59   6 C       72   1 H                                       1.0785900
    73   6 C       74   6 C                                       1.2293920
    75   6 C       76   6 C                                       1.2248870
    77   6 C       78   6 C                                       1.2249034

 * 3 distinct bonds (by element types)

   Z      Z             #   av. dist./Å        max./Å        min./Å
   1 H    6 C          22     1.0800169     1.0842470     1.0781768
   6 C    6 C          43     1.3858103     1.4338157     1.2248870
   6 C    7 N          16     1.3687613     1.3742178     1.3629759


optimized geometry written to: xtbopt.xyz


           -------------------------------------------------
          | TOTAL ENERGY             -140.482226874660 Eh   |
          | GRADIENT NORM               0.000889885737 Eh/α |
          | HOMO-LUMO GAP               0.106127415237 eV   |
           -------------------------------------------------

------------------------------------------------------------------------
 * finished run on 2022/07/29 at 16:04:56.876     
------------------------------------------------------------------------
 total:
 * wall-time:     0 d,  0 h,  0 min, 24.786 sec
 *  cpu-time:     0 d,  0 h,  0 min, 24.494 sec
 * ratio c/w:     0.988 speedup
 SCF:
 * wall-time:     0 d,  0 h,  0 min,  1.308 sec
 *  cpu-time:     0 d,  0 h,  0 min,  1.295 sec
 * ratio c/w:     0.990 speedup
 ANC optimizer:
 * wall-time:     0 d,  0 h,  0 min, 23.332 sec
 *  cpu-time:     0 d,  0 h,  0 min, 23.087 sec
 * ratio c/w:     0.990 speedup

