      -----------------------------------------------------------      
     |                   =====================                   |     
     |                           x T B                           |     
     |                   =====================                   |     
     |                         S. Grimme                         |     
     |          Mulliken Center for Theoretical Chemistry        |     
     |                    University of Bonn                     |     
      -----------------------------------------------------------      

   * xtb version 6.5.1 (b24c23e) compiled by 'conda@728c89f4b128' on 2022-07-12

   xtb is free software: you can redistribute it and/or modify it under
   the terms of the GNU Lesser General Public License as published by
   the Free Software Foundation, either version 3 of the License, or
   (at your option) any later version.
   
   xtb is distributed in the hope that it will be useful,
   but WITHOUT ANY WARRANTY; without even the implied warranty of
   MERCHANTABILITY or FITNESS FOR A PARTICULAR PURPOSE.  See the
   GNU Lesser General Public License for more details.
   
   Cite this work as:
   * C. Bannwarth, E. Caldeweyher, S. Ehlert, A. Hansen, P. Pracht,
     J. Seibert, S. Spicher, S. Grimme, WIREs Comput. Mol. Sci., 2020, 11,
     e01493. DOI: 10.1002/wcms.1493
   
   for GFN2-xTB:
   * C. Bannwarth, S. Ehlert and S. Grimme., J. Chem. Theory Comput., 2019,
     15, 1652-1671. DOI: 10.1021/acs.jctc.8b01176
   for GFN1-xTB:
   * S. Grimme, C. Bannwarth, P. Shushkov, J. Chem. Theory Comput., 2017,
     13, 1989-2009. DOI: 10.1021/acs.jctc.7b00118
   for GFN0-xTB:
   * P. Pracht, E. Caldeweyher, S. Ehlert, S. Grimme, ChemRxiv, 2019, preprint.
     DOI: 10.26434/chemrxiv.8326202.v1
   for GFN-FF:
   * S. Spicher and S. Grimme, Angew. Chem. Int. Ed., 2020, 59, 15665-15673.
     DOI: 10.1002/anie.202004239
   
   for ALPB and GBSA implicit solvation:
   * S. Ehlert, M. Stahn, S. Spicher, S. Grimme, J. Chem. Theory Comput.,
     2021, 17, 4250-4261. DOI: 10.1021/acs.jctc.1c00471
   
   for DFT-D4:
   * E. Caldeweyher, C. Bannwarth and S. Grimme, J. Chem. Phys., 2017,
     147, 034112. DOI: 10.1063/1.4993215
   * E. Caldeweyher, S. Ehlert, A. Hansen, H. Neugebauer, S. Spicher,
     C. Bannwarth and S. Grimme, J. Chem. Phys., 2019, 150, 154122.
     DOI: 10.1063/1.5090222
   * E. Caldeweyher, J.-M. Mewes, S. Ehlert and S. Grimme, Phys. Chem. Chem. Phys.
     2020, 22, 8499-8512. DOI: 10.1039/D0CP00502A
   
   for sTDA-xTB:
   * S. Grimme and C. Bannwarth, J. Chem. Phys., 2016, 145, 054103.
     DOI: 10.1063/1.4959605
   
   in the mass-spec context:
   * V. Asgeirsson, C. Bauer and S. Grimme, Chem. Sci., 2017, 8, 4879.
     DOI: 10.1039/c7sc00601b
   * J. Koopman and S. Grimme, ACS Omega 2019, 4, 12, 15120-15133.
     DOI: 10.1021/acsomega.9b02011
   
   for metadynamics refer to:
   * S. Grimme, J. Chem. Theory Comput., 2019, 155, 2847-2862
     DOI: 10.1021/acs.jctc.9b00143
   
   for SPH calculations refer to:
   * S. Spicher and S. Grimme, J. Chem. Theory Comput., 2021, 17, 1701-1714
     DOI: 10.1021/acs.jctc.0c01306
   
   with help from (in alphabetical order)
   P. Atkinson, C. Bannwarth, F. Bohle, G. Brandenburg, E. Caldeweyher
   M. Checinski, S. Dohm, S. Ehlert, S. Ehrlich, I. Gerasimov, C. Hölzer
   A. Katbashev, J. Koopman, C. Lavigne, S. Lehtola, F. März, M. Müller,
   F. Musil, H. Neugebauer, J. Pisarek, C. Plett, P. Pracht, F. Pultar,
   J. Seibert, P. Shushkov, S. Spicher, M. Stahn, M. Steiner, T. Strunk,
   J. Stückrath, T. Rose, and J. Unsleber
   
 * started run on 2022/07/27 at 15:45:09.059     

           -------------------------------------------------
          |                Calculation Setup                |
           -------------------------------------------------

          program call               : xtb xtbopt.xyz --gfn 1 --vipea
          hostname                   : cx3-6-14.cx3.hpc.ic.ac.uk
          coordinate file            : xtbopt.xyz
          omp threads                :                     1

   ID    Z sym.   atoms
    1    6 C      1-5, 7-10, 12-16, 18-23, 25-28, 30-35, 56-60, 62-65, 67-71,
                  73-78, 80-83, 85-90, 111-179, 181-184, 186-190, 192-197,
                  199-202, 204-209, 229-233, 235-238, 240-244, 246-251,
                  253-256, 258-263, 283-287, 289-292, 294-298, 300-305,
                  307-310, 312-317, 337-341, 343-346, 348-352, 354-359,
                  361-364, 366-371, 391-395, 397-400, 402-406, 408-413,
                  415-418, 420-425, 445-449, 451-454, 456-460, 462-467,
                  469-472, 474-479, 499-503, 505-508, 510-514, 516-521,
                  523-526, 528-533
    2    7 N      6, 11, 17, 24, 29, 36, 61, 66, 72, 79, 84, 91, 180, 185,
                  191, 198, 203, 210, 234, 239, 245, 252, 257, 264, 288, 293,
                  299, 306, 311, 318, 342, 347, 353, 360, 365, 372, 396, 401,
                  407, 414, 419, 426, 450, 455, 461, 468, 473, 480, 504, 509,
                  515, 522, 527, 534
    3    1 H      37-55, 92-110, 211-228, 265-282, 319-336, 373-390, 427-444,
                  481-498, 535-552

           -------------------------------------------------
          |                 I P E A - x T B                 |
           -------------------------------------------------

        Reference                      10.1039/c7sc00601b
      * Hamiltonian:
        H0-scaling (s, p, d)           2.150000    2.300000    2.000000
        zeta-weighting                 0.000000
      * Dispersion:
        s8                             2.400000
        a1                             0.630000
        a2                             5.000000
        s9                             0.000000
      * Repulsion:
        kExp                           1.500000
        rExp                           1.000000
      * Coulomb:
        alpha                          1.000000
        third order                    atomic
        anisotropic                    false
      * Halogen bond correction:
        rad-scale                      1.300000
        damping                        0.440000


          ...................................................
          :                      SETUP                      :
          :.................................................:
          :  # basis functions                2268          :
          :  # atomic orbitals                2268          :
          :  # shells                         1492          :
          :  # electrons                      1770          :
          :  # halogen bonds                     0          :
          :  max. iterations                   250          :
          :  Hamiltonian                  GFN1-xTB          :
          :  restarted?                      false          :
          :  GBSA solvation                  false          :
          :  PC potential                    false          :
          :  electronic temp.          300.0000000     K    :
          :  accuracy                    1.0000000          :
          :  -> integral cutoff          0.2500000E+02      :
          :  -> integral neglect         0.1000000E-07      :
          :  -> SCF convergence          0.1000000E-05 Eh   :
          :  -> wf. convergence          0.2000000E-04 e    :
          :  Broyden damping             0.4000000          :
          ...................................................

 iter      E             dE          RMSdq      gap      omega  full diag
   1  -1120.1035466 -0.112010E+04  0.104E+01    0.62       0.0  T
   2  -1120.4326088 -0.329062E+00  0.647E+00    1.10       1.0  T
   3  -1097.9844687  0.224481E+02  0.521E+00    0.16       1.0  T
   4  -1123.9154745 -0.259310E+02  0.984E-01    1.07       1.0  T
   5  -1125.0801870 -0.116471E+01  0.287E-01    0.96       1.0  T
   6  -1125.1680257 -0.878388E-01  0.115E-01    0.95       1.0  T
   7  -1125.1792995 -0.112738E-01  0.557E-02    0.95       1.0  T
   8  -1125.1815518 -0.225225E-02  0.311E-02    0.94       1.0  T
   9  -1125.1818047 -0.252875E-03  0.215E-02    0.94       1.0  T
  10  -1125.1821600 -0.355343E-03  0.781E-03    0.94       1.0  T
  11  -1125.1822195 -0.595457E-04  0.254E-03    0.94       1.7  T
  12  -1125.1822255 -0.590483E-05  0.900E-04    0.94       4.7  T
  13  -1125.1822262 -0.770608E-06  0.391E-04    0.94      10.9  T
  14  -1125.1822263 -0.119103E-06  0.212E-04    0.94      20.1  T
  15  -1125.1822264 -0.319656E-07  0.101E-04    0.94      41.9  T
  16  -1125.1822264 -0.922682E-08  0.537E-05    0.94      79.2  T

   *** convergence criteria satisfied after 16 iterations ***

         #    Occupation            Energy/Eh            Energy/eV
      -------------------------------------------------------------
         1        2.0000           -1.0524522             -28.6387
       ...           ...                  ...                  ...
       879        2.0000           -0.3843929             -10.4599
       880        2.0000           -0.3816793             -10.3860
       881        2.0000           -0.3787511             -10.3063
       882        2.0000           -0.3757789             -10.2255
       883        2.0000           -0.3730139             -10.1502
       884        2.0000           -0.3707819             -10.0895
       885        2.0000           -0.3695716             -10.0566 (HOMO)
       886                         -0.3349140              -9.1135 (LUMO)
       887                         -0.3328938              -9.0585
       888                         -0.3301884              -8.9849
       889                         -0.3270581              -8.8997
       890                         -0.3237663              -8.8101
       ...                                ...                  ...
      2268                        532.6413130           14493.9079
      -------------------------------------------------------------
                  HL-Gap            0.0346575 Eh            0.9431 eV
             Fermi-level           -0.3521718 Eh           -9.5831 eV

 SCC (total)                   0 d,  0 h,  1 min, 27.736 sec
 SCC setup                      ...        0 min,  0.046 sec (  0.052%)
 Dispersion                     ...        0 min,  0.042 sec (  0.048%)
 classical contributions        ...        0 min,  0.008 sec (  0.010%)
 integral evaluation            ...        0 min,  2.412 sec (  2.749%)
 iterations                     ...        1 min, 20.935 sec ( 92.248%)
 molecular gradient             ...        0 min,  3.523 sec (  4.015%)
 printout                       ...        0 min,  0.770 sec (  0.878%)

         :::::::::::::::::::::::::::::::::::::::::::::::::::::
         ::                     SUMMARY                     ::
         :::::::::::::::::::::::::::::::::::::::::::::::::::::
         :: total energy           -1101.254819868898 Eh    ::
         :: gradient norm              0.129251393367 Eh/a0 ::
         :: HOMO-LUMO gap              0.943079226634 eV    ::
         ::.................................................::
         :: SCC energy             -1125.182226382892 Eh    ::
         :: -> electrostatic           0.823513649610 Eh    ::
         :: repulsion energy          24.400798315184 Eh    ::
         :: dispersion energy         -0.473391801190 Eh    ::
         :: halogen bond corr.         0.000000000000 Eh    ::
         :: add. restraining           0.000000000000 Eh    ::
         :: total charge               0.000000000007 e     ::
         :::::::::::::::::::::::::::::::::::::::::::::::::::::

           ------------------------------------------------- 
          |        vertical delta SCC IP calculation        |
           ------------------------------------------------- 
   1  -1124.7994109 -0.112480E+04  0.347E-02    0.94       0.0  T
   2  -1124.7984691  0.941787E-03  0.342E-02    0.92       1.0  T
   3  -1124.7997609 -0.129187E-02  0.246E-02    0.94       1.0  T
   4  -1124.8011318 -0.137087E-02  0.170E-02    0.93       1.0  T
   5  -1124.8016008 -0.469010E-03  0.813E-03    0.94       1.0  T
   6  -1124.8008698  0.730997E-03  0.126E-02    0.94       1.0  T
   7  -1124.8014974 -0.627618E-03  0.707E-03    0.94       1.0  T
   8  -1124.8017208 -0.223389E-03  0.212E-03    0.94       2.0  T
   9  -1124.8017296 -0.874609E-05  0.755E-04    0.94       5.6  T
  10  -1124.8017301 -0.546871E-06  0.381E-04    0.94      11.2  T
  11  -1124.8017303 -0.155225E-06  0.133E-04    0.94      32.1  T
  12  -1124.8017303 -0.261741E-07  0.677E-05    0.94      62.9  T
     SCC iter.                  ...        0 min, 49.177 sec
     gradient                   ...        0 min,  3.284 sec
------------------------------------------------------------------------
empirical IP shift (eV):    4.8455
delta SCC IP (eV):    5.5083
------------------------------------------------------------------------
           ------------------------------------------------- 
          |        vertical delta SCC EA calculation        |
           ------------------------------------------------- 
   1  -1125.4971286 -0.112550E+04  0.624E-02    0.05       0.0  T
   2  -1125.4984484 -0.131987E-02  0.553E-02    0.01       1.0  T
   3  -1125.5013272 -0.287875E-02  0.388E-02    0.06       1.0  T
   4  -1125.5035584 -0.223118E-02  0.283E-02    0.02       1.0  T
   5  -1125.5049418 -0.138343E-02  0.139E-02    0.03       1.0  T
   6  -1125.5044048  0.536956E-03  0.136E-02    0.03       1.0  T
   7  -1125.5041874  0.217425E-03  0.124E-02    0.04       1.0  T
   8  -1125.5050434 -0.855944E-03  0.416E-03    0.03       1.0  T
   9  -1125.5051049 -0.615954E-04  0.170E-03    0.03       2.5  T
  10  -1125.5051091 -0.415601E-05  0.626E-04    0.03       6.8  T
  11  -1125.5051099 -0.784089E-06  0.198E-04    0.03      21.5  T
  12  -1125.5051099 -0.302243E-07  0.125E-04    0.03      34.1  T
     SCC iter.                  ...        0 min, 50.434 sec
     gradient                   ...        0 min,  3.397 sec
------------------------------------------------------------------------
empirical EA shift (eV):    4.8455
delta SCC EA (eV):    3.9406
------------------------------------------------------------------------
           -------------------------------------------------
          |                Property Printout                |
           -------------------------------------------------

    * Orbital Energies and Occupations

         #    Occupation            Energy/Eh            Energy/eV
      -------------------------------------------------------------
         1        2.0000           -1.0325641             -28.0975
       ...           ...                  ...                  ...
       874        2.0000           -0.3751158             -10.2074
       875        2.0000           -0.3750455             -10.2055
       876        2.0000           -0.3750404             -10.2054
       877        2.0000           -0.3655915              -9.9482
       878        2.0000           -0.3651552              -9.9364
       879        2.0000           -0.3622326              -9.8569
       880        2.0000           -0.3591690              -9.7735
       881        2.0000           -0.3559762              -9.6866
       882        2.0000           -0.3527282              -9.5982
       883        2.0000           -0.3495738              -9.5124
       884        2.0000           -0.3467109              -9.4345
       885        2.0000           -0.3447112              -9.3801
       886        0.6123           -0.3099825              -8.4351 (HOMO)
       887        0.3324           -0.3088860              -8.4052 (LUMO)
       888        0.0524           -0.3067979              -8.3484
       889        0.0028           -0.3039534              -8.2710
       890        0.0001           -0.3010165              -8.1911
       891        0.0000           -0.2984140              -8.1203
       892        0.0000           -0.2966643              -8.0726
       893        0.0000           -0.2958645              -8.0509
       894        0.0000           -0.2948644              -8.0237
       895                         -0.2932704              -7.9803
       896                         -0.2921974              -7.9511
       897                         -0.2912094              -7.9242
       ...                                ...                  ...
      2268                        532.6657514           14494.5729
      -------------------------------------------------------------
                  HL-Gap            0.0010966 Eh            0.0298 eV
             Fermi-level           -0.3184907 Eh           -8.6666 eV

  Mulliken/CM5 charges         n(s)   n(p)   n(d)
     1C    -0.01860 -0.05943   1.090  2.928  0.000
     2C     0.06406  0.12446   1.105  2.831  0.000
     3C    -0.03162 -0.07694   1.081  2.950  0.000
     4C    -0.02959 -0.07452   1.075  2.955  0.000
     5C     0.06579  0.12981   1.100  2.834  0.000
     6N    -0.15690 -0.50987   1.311  3.846  0.000
     7C     0.01172  0.01764   1.090  2.899  0.000
     8C     0.02331  0.01682   1.099  2.878  0.000
     9C    -0.01495 -0.06266   1.080  2.935  0.000
    10C     0.05574  0.08042   1.129  2.816  0.000
    11N    -0.25314 -0.44901   1.376  3.877  0.000
    12C     0.05514  0.07986   1.128  2.817  0.000
    13C    -0.01651 -0.06415   1.078  2.939  0.000
    14C     0.06203  0.13010   1.117  2.821  0.000
    15C    -0.03490 -0.08088   1.084  2.951  0.000
    16C    -0.03588 -0.08133   1.090  2.946  0.000
    17N    -0.28280 -0.46938   1.292  3.990  0.000
    18C     0.06628  0.13714   1.130  2.804  0.000
    19C     0.01977  0.02697   1.085  2.895  0.000
    20C     0.06834  0.13327   1.109  2.822  0.000
    21C    -0.03070 -0.07514   1.079  2.951  0.000
    22C    -0.02959 -0.07453   1.074  2.956  0.000
    23C     0.06480  0.12818   1.098  2.837  0.000
    24N    -0.15498 -0.50716   1.313  3.842  0.000
    25C     0.01123  0.01720   1.090  2.899  0.000
    26C     0.02324  0.01677   1.099  2.878  0.000
    27C    -0.01620 -0.06386   1.078  2.938  0.000
    28C     0.05529  0.08000   1.128  2.816  0.000
    29N    -0.25336 -0.44921   1.376  3.877  0.000
    30C     0.05540  0.08007   1.129  2.816  0.000
    31C    -0.01541 -0.06312   1.080  2.936  0.000
    32C     0.06349  0.13295   1.120  2.816  0.000
    33C    -0.03506 -0.08103   1.085  2.950  0.000
    34C    -0.03693 -0.08332   1.092  2.945  0.000
    35C     0.06107  0.12676   1.125  2.814  0.000
    36N    -0.28486 -0.47186   1.293  3.992  0.000
    37H     0.03321  0.09223   0.967  0.000  0.000
    38H     0.04417  0.10085   0.956  0.000  0.000
    39H     0.03645  0.09521   0.964  0.000  0.000
    40H     0.16585  0.37414   0.834  0.000  0.000
    41H     0.03037  0.08851   0.970  0.000  0.000
    42H     0.03386  0.09979   0.966  0.000  0.000
    43H     0.03299  0.09891   0.967  0.000  0.000
    44H     0.02993  0.08806   0.970  0.000  0.000
    45H     0.02709  0.08590   0.973  0.000  0.000
    46H     0.02889  0.08696   0.971  0.000  0.000
    47H     0.03893  0.09704   0.961  0.000  0.000
    48H     0.03667  0.09550   0.963  0.000  0.000
    49H     0.16471  0.37296   0.835  0.000  0.000
    50H     0.03042  0.08855   0.970  0.000  0.000
    51H     0.03337  0.09929   0.967  0.000  0.000
    52H     0.03318  0.09910   0.967  0.000  0.000
    53H     0.02967  0.08782   0.970  0.000  0.000
    54H     0.02672  0.08544   0.973  0.000  0.000
    55H     0.03404  0.09048   0.966  0.000  0.000
    56C    -0.01863 -0.05946   1.090  2.928  0.000
    57C     0.06406  0.12446   1.105  2.831  0.000
    58C    -0.03164 -0.07696   1.081  2.950  0.000
    59C    -0.02959 -0.07453   1.075  2.955  0.000
    60C     0.06577  0.12979   1.100  2.834  0.000
    61N    -0.15691 -0.50989   1.311  3.846  0.000
    62C     0.01172  0.01763   1.090  2.899  0.000
    63C     0.02331  0.01682   1.099  2.878  0.000
    64C    -0.01495 -0.06266   1.080  2.935  0.000
    65C     0.05573  0.08040   1.129  2.816  0.000
    66N    -0.25314 -0.44901   1.376  3.877  0.000
    67C     0.05515  0.07987   1.128  2.817  0.000
    68C    -0.01650 -0.06414   1.078  2.939  0.000
    69C     0.06201  0.13008   1.117  2.821  0.000
    70C    -0.03489 -0.08088   1.084  2.951  0.000
    71C    -0.03591 -0.08135   1.090  2.946  0.000
    72N    -0.28279 -0.46939   1.292  3.990  0.000
    73C     0.06626  0.13712   1.130  2.804  0.000
    74C     0.01978  0.02697   1.085  2.895  0.000
    75C     0.06832  0.13325   1.109  2.823  0.000
    76C    -0.03073 -0.07516   1.079  2.951  0.000
    77C    -0.02960 -0.07454   1.074  2.956  0.000
    78C     0.06479  0.12816   1.098  2.837  0.000
    79N    -0.15497 -0.50716   1.313  3.842  0.000
    80C     0.01122  0.01719   1.090  2.899  0.000
    81C     0.02323  0.01676   1.099  2.878  0.000
    82C    -0.01620 -0.06384   1.078  2.938  0.000
    83C     0.05529  0.08000   1.128  2.816  0.000
    84N    -0.25337 -0.44922   1.376  3.877  0.000
    85C     0.05539  0.08007   1.129  2.816  0.000
    86C    -0.01541 -0.06313   1.080  2.936  0.000
    87C     0.06349  0.13294   1.120  2.816  0.000
    88C    -0.03506 -0.08103   1.085  2.950  0.000
    89C    -0.03694 -0.08333   1.092  2.945  0.000
    90C     0.06108  0.12676   1.125  2.814  0.000
    91N    -0.28488 -0.47187   1.293  3.992  0.000
    92H     0.03320  0.09222   0.967  0.000  0.000
    93H     0.04416  0.10084   0.956  0.000  0.000
    94H     0.03643  0.09519   0.964  0.000  0.000
    95H     0.16584  0.37413   0.834  0.000  0.000
    96H     0.03031  0.08845   0.970  0.000  0.000
    97H     0.03382  0.09974   0.966  0.000  0.000
    98H     0.03301  0.09893   0.967  0.000  0.000
    99H     0.02996  0.08808   0.970  0.000  0.000
   100H     0.02708  0.08589   0.973  0.000  0.000
   101H     0.02889  0.08696   0.971  0.000  0.000
   102H     0.03891  0.09702   0.961  0.000  0.000
   103H     0.03666  0.09548   0.963  0.000  0.000
   104H     0.16470  0.37296   0.835  0.000  0.000
   105H     0.03043  0.08857   0.970  0.000  0.000
   106H     0.03336  0.09928   0.967  0.000  0.000
   107H     0.03317  0.09909   0.967  0.000  0.000
   108H     0.02964  0.08780   0.970  0.000  0.000
   109H     0.02671  0.08543   0.973  0.000  0.000
   110H     0.03403  0.09047   0.966  0.000  0.000
   111C    -0.01418 -0.01581   1.092  2.922  0.000
   112C    -0.01560 -0.01636   1.061  2.955  0.000
   113C    -0.01148 -0.01157   1.075  2.936  0.000
   114C    -0.01070 -0.01071   1.077  2.934  0.000
   115C    -0.01250 -0.01251   1.075  2.937  0.000
   116C    -0.00950 -0.00959   1.077  2.932  0.000
   117C    -0.01718 -0.01791   1.060  2.957  0.000
   118C    -0.01225 -0.01382   1.094  2.918  0.000
   119C    -0.01376 -0.01533   1.092  2.921  0.000
   120C    -0.01637 -0.01710   1.061  2.956  0.000
   121C    -0.01106 -0.01115   1.076  2.935  0.000
   122C    -0.01168 -0.01168   1.076  2.936  0.000
   123C    -0.01211 -0.01212   1.076  2.936  0.000
   124C    -0.01053 -0.01062   1.077  2.934  0.000
   125C    -0.01673 -0.01746   1.060  2.956  0.000
   126C    -0.01316 -0.01472   1.093  2.920  0.000
   127C    -0.01326 -0.01483   1.093  2.920  0.000
   128C    -0.01649 -0.01721   1.061  2.956  0.000
   129C    -0.01056 -0.01065   1.076  2.934  0.000
   130C    -0.01174 -0.01175   1.076  2.936  0.000
   131C    -0.01163 -0.01164   1.076  2.936  0.000
   132C    -0.01061 -0.01070   1.076  2.934  0.000
   133C    -0.01629 -0.01702   1.061  2.956  0.000
   134C    -0.01327 -0.01483   1.093  2.921  0.000
   135C    -0.01312 -0.01468   1.093  2.920  0.000
   136C    -0.01626 -0.01698   1.061  2.956  0.000
   137C    -0.01040 -0.01049   1.076  2.934  0.000
   138C    -0.01153 -0.01154   1.076  2.936  0.000
   139C    -0.01148 -0.01149   1.076  2.935  0.000
   140C    -0.01043 -0.01052   1.076  2.934  0.000
   141C    -0.01618 -0.01690   1.061  2.956  0.000
   142C    -0.01314 -0.01470   1.093  2.920  0.000
   143C    -0.01316 -0.01471   1.093  2.920  0.000
   144C    -0.01617 -0.01689   1.061  2.956  0.000
   145C    -0.01044 -0.01053   1.076  2.934  0.000
   146C    -0.01147 -0.01148   1.076  2.935  0.000
   147C    -0.01154 -0.01155   1.076  2.936  0.000
   148C    -0.01038 -0.01047   1.076  2.934  0.000
   149C    -0.01626 -0.01699   1.061  2.956  0.000
   150C    -0.01310 -0.01466   1.093  2.920  0.000
   151C    -0.01326 -0.01482   1.093  2.921  0.000
   152C    -0.01629 -0.01701   1.061  2.956  0.000
   153C    -0.01060 -0.01069   1.076  2.934  0.000
   154C    -0.01163 -0.01164   1.076  2.936  0.000
   155C    -0.01174 -0.01175   1.076  2.936  0.000
   156C    -0.01056 -0.01065   1.076  2.934  0.000
   157C    -0.01648 -0.01721   1.061  2.956  0.000
   158C    -0.01326 -0.01482   1.093  2.920  0.000
   159C    -0.01314 -0.01470   1.093  2.920  0.000
   160C    -0.01674 -0.01747   1.060  2.956  0.000
   161C    -0.01052 -0.01061   1.077  2.934  0.000
   162C    -0.01213 -0.01213   1.076  2.936  0.000
   163C    -0.01166 -0.01167   1.076  2.936  0.000
   164C    -0.01108 -0.01118   1.076  2.935  0.000
   165C    -0.01637 -0.01710   1.061  2.956  0.000
   166C    -0.01378 -0.01534   1.092  2.921  0.000
   167C    -0.01223 -0.01380   1.094  2.918  0.000
   168C    -0.01717 -0.01790   1.060  2.957  0.000
   169C    -0.00950 -0.00959   1.077  2.932  0.000
   170C    -0.01249 -0.01250   1.075  2.937  0.000
   171C    -0.01069 -0.01070   1.077  2.934  0.000
   172C    -0.01146 -0.01155   1.075  2.936  0.000
   173C    -0.01559 -0.01635   1.061  2.955  0.000
   174C    -0.01416 -0.01579   1.092  2.922  0.000
   175C     0.01760  0.02484   1.083  2.899  0.000
   176C     0.06781  0.13272   1.109  2.823  0.000
   177C    -0.03259 -0.07703   1.078  2.954  0.000
   178C    -0.03034 -0.07525   1.074  2.956  0.000
   179C     0.06335  0.12681   1.096  2.841  0.000
   180N    -0.15443 -0.50684   1.312  3.842  0.000
   181C     0.01388  0.01970   1.091  2.895  0.000
   182C     0.02388  0.01731   1.099  2.877  0.000
   183C    -0.01476 -0.06248   1.080  2.935  0.000
   184C     0.05567  0.08036   1.129  2.816  0.000
   185N    -0.25330 -0.44920   1.376  3.878  0.000
   186C     0.05527  0.07999   1.128  2.816  0.000
   187C    -0.01597 -0.06363   1.078  2.938  0.000
   188C     0.06098  0.12901   1.116  2.823  0.000
   189C    -0.03526 -0.08124   1.084  2.951  0.000
   190C    -0.03679 -0.08225   1.090  2.947  0.000
   191N    -0.28253 -0.46869   1.292  3.990  0.000
   192C     0.06605  0.13692   1.130  2.804  0.000
   193C     0.01871  0.02596   1.084  2.897  0.000
   194C     0.06791  0.13285   1.109  2.823  0.000
   195C    -0.03204 -0.07648   1.078  2.954  0.000
   196C    -0.03021 -0.07512   1.074  2.956  0.000
   197C     0.06354  0.12697   1.096  2.840  0.000
   198N    -0.15420 -0.50659   1.313  3.842  0.000
   199C     0.01375  0.01956   1.091  2.895  0.000
   200C     0.02385  0.01729   1.099  2.877  0.000
   201C    -0.01484 -0.06257   1.080  2.935  0.000
   202C     0.05564  0.08033   1.129  2.816  0.000
   203N    -0.25326 -0.44916   1.376  3.878  0.000
   204C     0.05537  0.08009   1.128  2.816  0.000
   205C    -0.01590 -0.06356   1.078  2.938  0.000
   206C     0.06110  0.12918   1.116  2.823  0.000
   207C    -0.03522 -0.08120   1.084  2.951  0.000
   208C    -0.03702 -0.08248   1.089  2.948  0.000
   209C     0.06595  0.13677   1.130  2.804  0.000
   210N    -0.28291 -0.46907   1.292  3.991  0.000
   211H     0.03720  0.09526   0.963  0.000  0.000
   212H     0.03531  0.09420   0.965  0.000  0.000
   213H     0.16476  0.37270   0.835  0.000  0.000
   214H     0.03019  0.08832   0.970  0.000  0.000
   215H     0.03335  0.09928   0.967  0.000  0.000
   216H     0.03286  0.09878   0.967  0.000  0.000
   217H     0.03025  0.08836   0.970  0.000  0.000
   218H     0.02612  0.08497   0.974  0.000  0.000
   219H     0.02786  0.08588   0.972  0.000  0.000
   220H     0.03799  0.09606   0.962  0.000  0.000
   221H     0.03568  0.09457   0.964  0.000  0.000
   222H     0.16469  0.37263   0.835  0.000  0.000
   223H     0.03002  0.08814   0.970  0.000  0.000
   224H     0.03321  0.09914   0.967  0.000  0.000
   225H     0.03308  0.09900   0.967  0.000  0.000
   226H     0.03042  0.08853   0.970  0.000  0.000
   227H     0.02601  0.08487   0.974  0.000  0.000
   228H     0.02744  0.08546   0.973  0.000  0.000
   229C     0.01832  0.02557   1.084  2.898  0.000
   230C     0.06787  0.13279   1.109  2.823  0.000
   231C    -0.03226 -0.07670   1.078  2.954  0.000
   232C    -0.03020 -0.07510   1.074  2.956  0.000
   233C     0.06346  0.12690   1.096  2.841  0.000
   234N    -0.15424 -0.50664   1.313  3.842  0.000
   235C     0.01390  0.01971   1.091  2.895  0.000
   236C     0.02387  0.01730   1.099  2.877  0.000
   237C    -0.01477 -0.06249   1.080  2.935  0.000
   238C     0.05567  0.08036   1.129  2.816  0.000
   239N    -0.25325 -0.44915   1.376  3.878  0.000
   240C     0.05533  0.08005   1.128  2.816  0.000
   241C    -0.01590 -0.06356   1.078  2.938  0.000
   242C     0.06103  0.12907   1.116  2.823  0.000
   243C    -0.03515 -0.08113   1.084  2.951  0.000
   244C    -0.03686 -0.08232   1.090  2.947  0.000
   245N    -0.28261 -0.46874   1.292  3.991  0.000
   246C     0.06602  0.13688   1.130  2.804  0.000
   247C     0.01845  0.02570   1.084  2.898  0.000
   248C     0.06794  0.13286   1.109  2.823  0.000
   249C    -0.03213 -0.07657   1.078  2.954  0.000
   250C    -0.03011 -0.07502   1.074  2.956  0.000
   251C     0.06350  0.12693   1.096  2.840  0.000
   252N    -0.15426 -0.50664   1.313  3.842  0.000
   253C     0.01391  0.01972   1.091  2.895  0.000
   254C     0.02387  0.01730   1.099  2.877  0.000
   255C    -0.01479 -0.06251   1.080  2.935  0.000
   256C     0.05565  0.08034   1.129  2.816  0.000
   257N    -0.25324 -0.44915   1.376  3.878  0.000
   258C     0.05536  0.08008   1.128  2.816  0.000
   259C    -0.01588 -0.06354   1.078  2.938  0.000
   260C     0.06101  0.12907   1.116  2.823  0.000
   261C    -0.03522 -0.08119   1.084  2.951  0.000
   262C    -0.03696 -0.08242   1.090  2.947  0.000
   263C     0.06595  0.13679   1.130  2.804  0.000
   264N    -0.28261 -0.46876   1.292  3.991  0.000
   265H     0.03768  0.09574   0.962  0.000  0.000
   266H     0.03552  0.09442   0.964  0.000  0.000
   267H     0.16473  0.37266   0.835  0.000  0.000
   268H     0.03012  0.08825   0.970  0.000  0.000
   269H     0.03329  0.09922   0.967  0.000  0.000
   270H     0.03297  0.09890   0.967  0.000  0.000
   271H     0.03035  0.08846   0.970  0.000  0.000
   272H     0.02609  0.08495   0.974  0.000  0.000
   273H     0.02774  0.08575   0.972  0.000  0.000
   274H     0.03787  0.09593   0.962  0.000  0.000
   275H     0.03564  0.09453   0.964  0.000  0.000
   276H     0.16472  0.37265   0.835  0.000  0.000
   277H     0.03007  0.08819   0.970  0.000  0.000
   278H     0.03324  0.09917   0.967  0.000  0.000
   279H     0.03304  0.09897   0.967  0.000  0.000
   280H     0.03041  0.08851   0.970  0.000  0.000
   281H     0.02600  0.08486   0.974  0.000  0.000
   282H     0.02756  0.08557   0.972  0.000  0.000
   283C     0.01874  0.02600   1.084  2.897  0.000
   284C     0.06798  0.13289   1.109  2.823  0.000
   285C    -0.03199 -0.07644   1.078  2.954  0.000
   286C    -0.03002 -0.07493   1.074  2.956  0.000
   287C     0.06367  0.12711   1.096  2.840  0.000
   288N    -0.15416 -0.50655   1.313  3.842  0.000
   289C     0.01397  0.01977   1.091  2.895  0.000
   290C     0.02385  0.01728   1.099  2.877  0.000
   291C    -0.01478 -0.06250   1.080  2.935  0.000
   292C     0.05571  0.08040   1.129  2.816  0.000
   293N    -0.25313 -0.44904   1.376  3.877  0.000
   294C     0.05540  0.08012   1.128  2.816  0.000
   295C    -0.01589 -0.06355   1.078  2.938  0.000
   296C     0.06120  0.12924   1.116  2.823  0.000
   297C    -0.03507 -0.08104   1.084  2.951  0.000
   298C    -0.03676 -0.08222   1.090  2.947  0.000
   299N    -0.28250 -0.46863   1.292  3.991  0.000
   300C     0.06608  0.13692   1.130  2.804  0.000
   301C     0.01866  0.02592   1.084  2.897  0.000
   302C     0.06801  0.13293   1.109  2.823  0.000
   303C    -0.03199 -0.07644   1.078  2.954  0.000
   304C    -0.02997 -0.07488   1.074  2.956  0.000
   305C     0.06365  0.12709   1.096  2.840  0.000
   306N    -0.15419 -0.50657   1.313  3.842  0.000
   307C     0.01401  0.01982   1.091  2.894  0.000
   308C     0.02385  0.01728   1.099  2.877  0.000
   309C    -0.01477 -0.06250   1.080  2.935  0.000
   310C     0.05571  0.08039   1.129  2.816  0.000
   311N    -0.25312 -0.44903   1.376  3.877  0.000
   312C     0.05540  0.08012   1.128  2.816  0.000
   313C    -0.01589 -0.06355   1.078  2.938  0.000
   314C     0.06118  0.12923   1.116  2.823  0.000
   315C    -0.03509 -0.08107   1.084  2.951  0.000
   316C    -0.03678 -0.08224   1.090  2.947  0.000
   317C     0.06605  0.13689   1.130  2.804  0.000
   318N    -0.28246 -0.46859   1.292  3.990  0.000
   319H     0.03799  0.09604   0.962  0.000  0.000
   320H     0.03576  0.09466   0.964  0.000  0.000
   321H     0.16481  0.37273   0.835  0.000  0.000
   322H     0.03017  0.08830   0.970  0.000  0.000
   323H     0.03339  0.09931   0.967  0.000  0.000
   324H     0.03312  0.09904   0.967  0.000  0.000
   325H     0.03045  0.08855   0.970  0.000  0.000
   326H     0.02623  0.08509   0.974  0.000  0.000
   327H     0.02786  0.08587   0.972  0.000  0.000
   328H     0.03801  0.09607   0.962  0.000  0.000
   329H     0.03579  0.09469   0.964  0.000  0.000
   330H     0.16481  0.37273   0.835  0.000  0.000
   331H     0.03016  0.08829   0.970  0.000  0.000
   332H     0.03338  0.09930   0.967  0.000  0.000
   333H     0.03313  0.09906   0.967  0.000  0.000
   334H     0.03046  0.08856   0.970  0.000  0.000
   335H     0.02620  0.08507   0.974  0.000  0.000
   336H     0.02783  0.08584   0.972  0.000  0.000
   337C     0.01881  0.02606   1.084  2.897  0.000
   338C     0.06803  0.13294   1.109  2.823  0.000
   339C    -0.03193 -0.07638   1.079  2.953  0.000
   340C    -0.02995 -0.07486   1.074  2.956  0.000
   341C     0.06373  0.12717   1.096  2.840  0.000
   342N    -0.15415 -0.50653   1.313  3.842  0.000
   343C     0.01402  0.01982   1.092  2.894  0.000
   344C     0.02385  0.01728   1.099  2.877  0.000
   345C    -0.01478 -0.06250   1.080  2.935  0.000
   346C     0.05573  0.08042   1.129  2.816  0.000
   347N    -0.25308 -0.44899   1.376  3.877  0.000
   348C     0.05542  0.08014   1.128  2.816  0.000
   349C    -0.01589 -0.06355   1.078  2.938  0.000
   350C     0.06126  0.12930   1.116  2.823  0.000
   351C    -0.03506 -0.08103   1.084  2.951  0.000
   352C    -0.03672 -0.08218   1.090  2.947  0.000
   353N    -0.28244 -0.46856   1.292  3.990  0.000
   354C     0.06609  0.13693   1.130  2.804  0.000
   355C     0.01881  0.02607   1.084  2.897  0.000
   356C     0.06802  0.13294   1.109  2.823  0.000
   357C    -0.03193 -0.07638   1.079  2.953  0.000
   358C    -0.02995 -0.07486   1.074  2.956  0.000
   359C     0.06373  0.12717   1.096  2.840  0.000
   360N    -0.15416 -0.50654   1.313  3.842  0.000
   361C     0.01402  0.01982   1.092  2.894  0.000
   362C     0.02385  0.01728   1.099  2.877  0.000
   363C    -0.01478 -0.06250   1.080  2.935  0.000
   364C     0.05573  0.08042   1.129  2.816  0.000
   365N    -0.25308 -0.44899   1.376  3.877  0.000
   366C     0.05542  0.08014   1.128  2.816  0.000
   367C    -0.01589 -0.06355   1.078  2.938  0.000
   368C     0.06126  0.12930   1.116  2.823  0.000
   369C    -0.03505 -0.08103   1.084  2.951  0.000
   370C    -0.03673 -0.08218   1.090  2.947  0.000
   371C     0.06609  0.13693   1.130  2.804  0.000
   372N    -0.28244 -0.46856   1.292  3.990  0.000
   373H     0.03807  0.09613   0.962  0.000  0.000
   374H     0.03584  0.09474   0.964  0.000  0.000
   375H     0.16484  0.37276   0.835  0.000  0.000
   376H     0.03020  0.08832   0.970  0.000  0.000
   377H     0.03342  0.09935   0.967  0.000  0.000
   378H     0.03317  0.09909   0.967  0.000  0.000
   379H     0.03048  0.08858   0.970  0.000  0.000
   380H     0.02628  0.08514   0.974  0.000  0.000
   381H     0.02791  0.08591   0.972  0.000  0.000
   382H     0.03807  0.09612   0.962  0.000  0.000
   383H     0.03584  0.09474   0.964  0.000  0.000
   384H     0.16484  0.37276   0.835  0.000  0.000
   385H     0.03020  0.08832   0.970  0.000  0.000
   386H     0.03342  0.09935   0.967  0.000  0.000
   387H     0.03317  0.09909   0.967  0.000  0.000
   388H     0.03048  0.08858   0.970  0.000  0.000
   389H     0.02628  0.08514   0.974  0.000  0.000
   390H     0.02791  0.08591   0.972  0.000  0.000
   391C     0.01868  0.02593   1.084  2.897  0.000
   392C     0.06801  0.13293   1.109  2.823  0.000
   393C    -0.03198 -0.07642   1.078  2.954  0.000
   394C    -0.02998 -0.07489   1.074  2.956  0.000
   395C     0.06367  0.12710   1.096  2.840  0.000
   396N    -0.15419 -0.50657   1.313  3.842  0.000
   397C     0.01400  0.01981   1.091  2.895  0.000
   398C     0.02385  0.01728   1.099  2.877  0.000
   399C    -0.01478 -0.06250   1.080  2.935  0.000
   400C     0.05571  0.08040   1.129  2.816  0.000
   401N    -0.25312 -0.44903   1.376  3.877  0.000
   402C     0.05540  0.08012   1.128  2.816  0.000
   403C    -0.01589 -0.06355   1.078  2.938  0.000
   404C     0.06119  0.12924   1.116  2.823  0.000
   405C    -0.03510 -0.08108   1.084  2.951  0.000
   406C    -0.03677 -0.08223   1.090  2.947  0.000
   407N    -0.28245 -0.46858   1.292  3.990  0.000
   408C     0.06605  0.13689   1.130  2.804  0.000
   409C     0.01876  0.02602   1.084  2.897  0.000
   410C     0.06797  0.13289   1.109  2.823  0.000
   411C    -0.03198 -0.07642   1.078  2.954  0.000
   412C    -0.03003 -0.07493   1.074  2.956  0.000
   413C     0.06368  0.12712   1.096  2.840  0.000
   414N    -0.15416 -0.50655   1.313  3.842  0.000
   415C     0.01396  0.01977   1.091  2.895  0.000
   416C     0.02385  0.01728   1.099  2.877  0.000
   417C    -0.01478 -0.06250   1.080  2.935  0.000
   418C     0.05571  0.08040   1.129  2.816  0.000
   419N    -0.25313 -0.44904   1.376  3.877  0.000
   420C     0.05540  0.08012   1.128  2.816  0.000
   421C    -0.01589 -0.06355   1.078  2.938  0.000
   422C     0.06121  0.12925   1.116  2.823  0.000
   423C    -0.03508 -0.08105   1.084  2.951  0.000
   424C    -0.03675 -0.08221   1.090  2.947  0.000
   425C     0.06607  0.13691   1.130  2.804  0.000
   426N    -0.28250 -0.46862   1.292  3.991  0.000
   427H     0.03801  0.09607   0.962  0.000  0.000
   428H     0.03579  0.09469   0.964  0.000  0.000
   429H     0.16481  0.37273   0.835  0.000  0.000
   430H     0.03016  0.08829   0.970  0.000  0.000
   431H     0.03338  0.09930   0.967  0.000  0.000
   432H     0.03313  0.09906   0.967  0.000  0.000
   433H     0.03046  0.08856   0.970  0.000  0.000
   434H     0.02620  0.08507   0.974  0.000  0.000
   435H     0.02783  0.08584   0.972  0.000  0.000
   436H     0.03799  0.09604   0.962  0.000  0.000
   437H     0.03576  0.09466   0.964  0.000  0.000
   438H     0.16481  0.37273   0.835  0.000  0.000
   439H     0.03017  0.08830   0.970  0.000  0.000
   440H     0.03339  0.09931   0.967  0.000  0.000
   441H     0.03312  0.09904   0.967  0.000  0.000
   442H     0.03045  0.08855   0.970  0.000  0.000
   443H     0.02623  0.08509   0.974  0.000  0.000
   444H     0.02786  0.08587   0.972  0.000  0.000
   445C     0.01846  0.02571   1.084  2.898  0.000
   446C     0.06794  0.13286   1.109  2.823  0.000
   447C    -0.03212 -0.07657   1.078  2.954  0.000
   448C    -0.03011 -0.07502   1.074  2.956  0.000
   449C     0.06350  0.12693   1.096  2.840  0.000
   450N    -0.15426 -0.50664   1.313  3.842  0.000
   451C     0.01391  0.01972   1.091  2.895  0.000
   452C     0.02387  0.01730   1.099  2.877  0.000
   453C    -0.01479 -0.06251   1.080  2.935  0.000
   454C     0.05565  0.08034   1.129  2.816  0.000
   455N    -0.25324 -0.44915   1.376  3.878  0.000
   456C     0.05536  0.08008   1.128  2.816  0.000
   457C    -0.01588 -0.06354   1.078  2.938  0.000
   458C     0.06102  0.12907   1.116  2.823  0.000
   459C    -0.03522 -0.08120   1.084  2.951  0.000
   460C    -0.03696 -0.08242   1.090  2.947  0.000
   461N    -0.28261 -0.46876   1.292  3.991  0.000
   462C     0.06595  0.13680   1.130  2.804  0.000
   463C     0.01833  0.02558   1.084  2.898  0.000
   464C     0.06787  0.13280   1.109  2.823  0.000
   465C    -0.03225 -0.07669   1.078  2.954  0.000
   466C    -0.03020 -0.07511   1.074  2.956  0.000
   467C     0.06347  0.12691   1.096  2.841  0.000
   468N    -0.15424 -0.50664   1.313  3.842  0.000
   469C     0.01390  0.01971   1.091  2.895  0.000
   470C     0.02387  0.01730   1.099  2.877  0.000
   471C    -0.01478 -0.06250   1.080  2.935  0.000
   472C     0.05567  0.08036   1.129  2.816  0.000
   473N    -0.25325 -0.44916   1.376  3.878  0.000
   474C     0.05533  0.08005   1.128  2.816  0.000
   475C    -0.01590 -0.06356   1.078  2.938  0.000
   476C     0.06104  0.12907   1.116  2.823  0.000
   477C    -0.03516 -0.08114   1.084  2.951  0.000
   478C    -0.03685 -0.08231   1.090  2.947  0.000
   479C     0.06602  0.13688   1.130  2.804  0.000
   480N    -0.28261 -0.46875   1.292  3.991  0.000
   481H     0.03787  0.09593   0.962  0.000  0.000
   482H     0.03564  0.09453   0.964  0.000  0.000
   483H     0.16472  0.37265   0.835  0.000  0.000
   484H     0.03007  0.08819   0.970  0.000  0.000
   485H     0.03324  0.09916   0.967  0.000  0.000
   486H     0.03304  0.09897   0.967  0.000  0.000
   487H     0.03041  0.08851   0.970  0.000  0.000
   488H     0.02600  0.08486   0.974  0.000  0.000
   489H     0.02756  0.08557   0.972  0.000  0.000
   490H     0.03768  0.09574   0.962  0.000  0.000
   491H     0.03552  0.09442   0.964  0.000  0.000
   492H     0.16473  0.37266   0.835  0.000  0.000
   493H     0.03012  0.08825   0.970  0.000  0.000
   494H     0.03329  0.09922   0.967  0.000  0.000
   495H     0.03297  0.09890   0.967  0.000  0.000
   496H     0.03035  0.08846   0.970  0.000  0.000
   497H     0.02609  0.08495   0.974  0.000  0.000
   498H     0.02774  0.08575   0.972  0.000  0.000
   499C     0.01869  0.02594   1.084  2.897  0.000
   500C     0.06791  0.13285   1.109  2.823  0.000
   501C    -0.03205 -0.07649   1.078  2.954  0.000
   502C    -0.03020 -0.07511   1.074  2.956  0.000
   503C     0.06353  0.12695   1.096  2.840  0.000
   504N    -0.15421 -0.50660   1.313  3.842  0.000
   505C     0.01374  0.01956   1.091  2.895  0.000
   506C     0.02384  0.01728   1.099  2.877  0.000
   507C    -0.01484 -0.06256   1.080  2.935  0.000
   508C     0.05563  0.08031   1.129  2.816  0.000
   509N    -0.25325 -0.44915   1.376  3.878  0.000
   510C     0.05539  0.08011   1.128  2.816  0.000
   511C    -0.01588 -0.06354   1.078  2.938  0.000
   512C     0.06108  0.12917   1.116  2.823  0.000
   513C    -0.03521 -0.08119   1.084  2.951  0.000
   514C    -0.03704 -0.08250   1.089  2.948  0.000
   515N    -0.28289 -0.46907   1.292  3.991  0.000
   516C     0.06594  0.13676   1.130  2.804  0.000
   517C     0.01760  0.02485   1.083  2.899  0.000
   518C     0.06779  0.13271   1.109  2.823  0.000
   519C    -0.03261 -0.07705   1.078  2.954  0.000
   520C    -0.03034 -0.07525   1.074  2.956  0.000
   521C     0.06333  0.12679   1.096  2.841  0.000
   522N    -0.15441 -0.50683   1.312  3.842  0.000
   523C     0.01389  0.01970   1.091  2.895  0.000
   524C     0.02386  0.01731   1.099  2.877  0.000
   525C    -0.01476 -0.06248   1.080  2.935  0.000
   526C     0.05568  0.08036   1.129  2.816  0.000
   527N    -0.25330 -0.44920   1.376  3.878  0.000
   528C     0.05526  0.07998   1.128  2.816  0.000
   529C    -0.01596 -0.06362   1.078  2.938  0.000
   530C     0.06097  0.12900   1.116  2.823  0.000
   531C    -0.03525 -0.08122   1.084  2.951  0.000
   532C    -0.03680 -0.08226   1.090  2.947  0.000
   533C     0.06605  0.13692   1.130  2.804  0.000
   534N    -0.28253 -0.46869   1.292  3.990  0.000
   535H     0.03799  0.09605   0.962  0.000  0.000
   536H     0.03567  0.09456   0.964  0.000  0.000
   537H     0.16468  0.37263   0.835  0.000  0.000
   538H     0.02996  0.08809   0.970  0.000  0.000
   539H     0.03318  0.09911   0.967  0.000  0.000
   540H     0.03310  0.09903   0.967  0.000  0.000
   541H     0.03045  0.08856   0.970  0.000  0.000
   542H     0.02601  0.08486   0.974  0.000  0.000
   543H     0.02745  0.08547   0.973  0.000  0.000
   544H     0.03720  0.09526   0.963  0.000  0.000
   545H     0.03530  0.09419   0.965  0.000  0.000
   546H     0.16475  0.37270   0.835  0.000  0.000
   547H     0.03017  0.08830   0.970  0.000  0.000
   548H     0.03335  0.09928   0.967  0.000  0.000
   549H     0.03286  0.09878   0.967  0.000  0.000
   550H     0.03026  0.08838   0.970  0.000  0.000
   551H     0.02612  0.08497   0.974  0.000  0.000
   552H     0.02787  0.08588   0.972  0.000  0.000

Wiberg/Mayer (AO) data.
largest (>0.10) Wiberg bond orders for each atom

 ---------------------------------------------------------------------------
     #   Z sym  total        # sym  WBO       # sym  WBO       # sym  WBO
 ---------------------------------------------------------------------------
     1   6 C    3.820 --    35 C    1.386     2 C    1.374    37 H    0.995
     2   6 C    3.925 --     1 C    1.374     3 C    1.238     6 N    1.229
     3   6 C    3.841 --     4 C    1.602     2 C    1.238    38 H    0.992
     4   6 C    3.824 --     3 C    1.602     5 C    1.248    39 H    0.997
     5   6 C    3.900 --     7 C    1.341     4 C    1.248     6 N    1.232
     6   7 N    3.249 --     5 C    1.232     2 C    1.229    40 H    0.960
     7   6 C    3.843 --    14 C    1.368     5 C    1.341     8 C    1.051
     8   6 C    3.907 --     9 C    1.426    13 C    1.425     7 C    1.051
     9   6 C    3.870 --    10 C    1.447     8 C    1.426    41 H    0.987
                            12 C    0.102
    10   6 C    3.999 --    11 N    1.479     9 C    1.447    42 H    0.982
                            13 C    0.101
    11   7 N    2.941 --    12 C    1.480    10 C    1.479
    12   6 C    3.999 --    11 N    1.480    13 C    1.447    43 H    0.982
                             9 C    0.102
    13   6 C    3.865 --    12 C    1.447     8 C    1.425    44 H    0.987
                            10 C    0.101
    14   6 C    3.925 --     7 C    1.368    17 N    1.355    15 C    1.159
    15   6 C    3.838 --    16 C    1.696    14 C    1.159    45 H    0.997
    16   6 C    3.852 --    15 C    1.696    18 C    1.164    46 H    0.998
    17   7 N    2.569 --    18 C    1.413    14 C    1.355
    18   6 C    3.942 --    17 N    1.413    19 C    1.288    16 C    1.164
    19   6 C    3.856 --    20 C    1.289    18 C    1.288   111 C    1.219
    20   6 C    3.903 --    19 C    1.289    21 C    1.264    24 N    1.249
    21   6 C    3.836 --    22 C    1.588    20 C    1.264    47 H    0.997
    22   6 C    3.817 --    21 C    1.588    23 C    1.255    48 H    0.996
    23   6 C    3.895 --    25 C    1.346    22 C    1.255    24 N    1.222
    24   7 N    3.259 --    20 C    1.249    23 C    1.222    49 H    0.959
    25   6 C    3.830 --    32 C    1.354    23 C    1.346    26 C    1.052
    26   6 C    3.907 --    27 C    1.425    31 C    1.425    25 C    1.052
    27   6 C    3.865 --    28 C    1.447    26 C    1.425    50 H    0.987
                            30 C    0.101
    28   6 C    3.999 --    29 N    1.479    27 C    1.447    51 H    0.982
                            31 C    0.101
    29   7 N    2.941 --    28 C    1.479    30 C    1.479
    30   6 C    3.999 --    29 N    1.479    31 C    1.448    52 H    0.982
                            27 C    0.101
    31   6 C    3.868 --    30 C    1.448    26 C    1.425    53 H    0.987
                            28 C    0.101
    32   6 C    3.946 --    36 N    1.383    25 C    1.354    33 C    1.151
    33   6 C    3.842 --    34 C    1.709    32 C    1.151    54 H    0.997
    34   6 C    3.863 --    33 C    1.709    35 C    1.146    55 H    0.992
    35   6 C    3.967 --     1 C    1.386    36 N    1.373    34 C    1.146
    36   7 N    2.557 --    32 C    1.383    35 C    1.373
    37   1 H    1.031 --     1 C    0.995
    38   1 H    1.014 --     3 C    0.992
    39   1 H    1.030 --     4 C    0.997
    40   1 H    1.081 --     6 N    0.960
    41   1 H    1.052 --     9 C    0.987
    42   1 H    1.053 --    10 C    0.982
    43   1 H    1.053 --    12 C    0.982
    44   1 H    1.049 --    13 C    0.987
    45   1 H    1.034 --    15 C    0.997
    46   1 H    1.031 --    16 C    0.998
    47   1 H    1.027 --    21 C    0.997
    48   1 H    1.030 --    22 C    0.996
    49   1 H    1.084 --    24 N    0.959
    50   1 H    1.049 --    27 C    0.987
    51   1 H    1.053 --    28 C    0.982
    52   1 H    1.053 --    30 C    0.982
    53   1 H    1.052 --    31 C    0.987
    54   1 H    1.034 --    33 C    0.997
    55   1 H    1.017 --    34 C    0.992
    56   6 C    3.820 --    90 C    1.386    57 C    1.374    92 H    0.995
    57   6 C    3.925 --    56 C    1.374    58 C    1.239    61 N    1.229
    58   6 C    3.841 --    59 C    1.602    57 C    1.239    93 H    0.992
    59   6 C    3.824 --    58 C    1.602    60 C    1.248    94 H    0.997
    60   6 C    3.900 --    62 C    1.341    59 C    1.248    61 N    1.232
    61   7 N    3.249 --    60 C    1.232    57 C    1.229    95 H    0.960
    62   6 C    3.843 --    69 C    1.368    60 C    1.341    63 C    1.051
    63   6 C    3.907 --    64 C    1.425    68 C    1.425    62 C    1.051
    64   6 C    3.870 --    65 C    1.447    63 C    1.425    96 H    0.987
                            67 C    0.102
    65   6 C    3.999 --    66 N    1.479    64 C    1.447    97 H    0.982
                            68 C    0.101
    66   7 N    2.941 --    67 C    1.480    65 C    1.479
    67   6 C    3.999 --    66 N    1.480    68 C    1.447    98 H    0.982
                            64 C    0.102
    68   6 C    3.865 --    67 C    1.447    63 C    1.425    99 H    0.987
                            65 C    0.101
    69   6 C    3.925 --    62 C    1.368    72 N    1.355    70 C    1.159
    70   6 C    3.838 --    71 C    1.695    69 C    1.159   100 H    0.997
    71   6 C    3.852 --    70 C    1.695    73 C    1.164   101 H    0.998
    72   7 N    2.569 --    73 C    1.413    69 C    1.355
    73   6 C    3.942 --    72 N    1.413    74 C    1.288    71 C    1.164
    74   6 C    3.856 --    75 C    1.289    73 C    1.288   174 C    1.220
    75   6 C    3.903 --    74 C    1.289    76 C    1.264    79 N    1.249
    76   6 C    3.836 --    77 C    1.588    75 C    1.264   102 H    0.997
    77   6 C    3.817 --    76 C    1.588    78 C    1.255   103 H    0.996
    78   6 C    3.895 --    80 C    1.346    77 C    1.255    79 N    1.222
    79   7 N    3.259 --    75 C    1.249    78 C    1.222   104 H    0.959
    80   6 C    3.830 --    87 C    1.354    78 C    1.346    81 C    1.052
    81   6 C    3.907 --    86 C    1.425    82 C    1.424    80 C    1.052
    82   6 C    3.865 --    83 C    1.447    81 C    1.424   105 H    0.987
                            85 C    0.101
    83   6 C    3.999 --    84 N    1.479    82 C    1.447   106 H    0.982
                            86 C    0.101
    84   7 N    2.941 --    83 C    1.479    85 C    1.479
    85   6 C    3.999 --    84 N    1.479    86 C    1.448   107 H    0.982
                            82 C    0.101
    86   6 C    3.868 --    85 C    1.448    81 C    1.425   108 H    0.987
                            83 C    0.101
    87   6 C    3.946 --    91 N    1.383    80 C    1.354    88 C    1.151
    88   6 C    3.842 --    89 C    1.709    87 C    1.151   109 H    0.997
    89   6 C    3.863 --    88 C    1.709    90 C    1.146   110 H    0.992
    90   6 C    3.967 --    56 C    1.386    91 N    1.373    89 C    1.146
    91   7 N    2.557 --    87 C    1.383    90 C    1.373
    92   1 H    1.031 --    56 C    0.995
    93   1 H    1.014 --    58 C    0.992
    94   1 H    1.030 --    59 C    0.997
    95   1 H    1.081 --    61 N    0.960
    96   1 H    1.052 --    64 C    0.987
    97   1 H    1.053 --    65 C    0.982
    98   1 H    1.053 --    67 C    0.982
    99   1 H    1.049 --    68 C    0.987
   100   1 H    1.034 --    70 C    0.997
   101   1 H    1.031 --    71 C    0.998
   102   1 H    1.027 --    76 C    0.997
   103   1 H    1.030 --    77 C    0.996
   104   1 H    1.084 --    79 N    0.959
   105   1 H    1.049 --    82 C    0.987
   106   1 H    1.053 --    83 C    0.982
   107   1 H    1.053 --    85 C    0.982
   108   1 H    1.052 --    86 C    0.987
   109   1 H    1.034 --    88 C    0.997
   110   1 H    1.017 --    89 C    0.992
   111   6 C    3.756 --   112 C    2.465    19 C    1.219   114 C    0.169
   112   6 C    3.813 --   111 C    2.465   113 C    1.363
   113   6 C    3.804 --   114 C    2.345   112 C    1.363   116 C    0.163
   114   6 C    3.841 --   113 C    2.345   115 C    1.391   111 C    0.169
   115   6 C    3.839 --   116 C    2.344   114 C    1.391   118 C    0.168
   116   6 C    3.806 --   115 C    2.344   117 C    1.365   113 C    0.163
   117   6 C    3.808 --   118 C    2.460   116 C    1.365
   118   6 C    3.758 --   117 C    2.460   175 C    1.225   115 C    0.168
   119   6 C    3.756 --   120 C    2.456   193 C    1.228   122 C    0.167
   120   6 C    3.808 --   119 C    2.456   121 C    1.368
   121   6 C    3.803 --   122 C    2.339   120 C    1.368   124 C    0.162
   122   6 C    3.838 --   121 C    2.339   123 C    1.395   119 C    0.167
   123   6 C    3.838 --   124 C    2.339   122 C    1.395   126 C    0.167
   124   6 C    3.803 --   123 C    2.339   125 C    1.368   121 C    0.162
   125   6 C    3.808 --   126 C    2.456   124 C    1.368
   126   6 C    3.756 --   125 C    2.456   229 C    1.227   123 C    0.167
   127   6 C    3.756 --   128 C    2.457   247 C    1.227   130 C    0.167
   128   6 C    3.808 --   127 C    2.457   129 C    1.368
   129   6 C    3.804 --   130 C    2.340   128 C    1.368   132 C    0.162
   130   6 C    3.838 --   129 C    2.340   131 C    1.395   127 C    0.167
   131   6 C    3.839 --   132 C    2.340   130 C    1.395   134 C    0.167
   132   6 C    3.804 --   131 C    2.340   133 C    1.368   129 C    0.162
   133   6 C    3.809 --   134 C    2.457   132 C    1.368
   134   6 C    3.756 --   133 C    2.457   283 C    1.227   131 C    0.167
   135   6 C    3.757 --   136 C    2.458   301 C    1.226   138 C    0.168
   136   6 C    3.809 --   135 C    2.458   137 C    1.367
   137   6 C    3.804 --   138 C    2.340   136 C    1.367   140 C    0.162
   138   6 C    3.839 --   137 C    2.340   139 C    1.394   135 C    0.168
   139   6 C    3.839 --   140 C    2.340   138 C    1.394   142 C    0.168
   140   6 C    3.804 --   139 C    2.340   141 C    1.367   137 C    0.162
   141   6 C    3.809 --   142 C    2.458   140 C    1.367
   142   6 C    3.757 --   141 C    2.458   337 C    1.226   139 C    0.168
   143   6 C    3.757 --   144 C    2.458   355 C    1.226   146 C    0.168
   144   6 C    3.809 --   143 C    2.458   145 C    1.367
   145   6 C    3.804 --   146 C    2.340   144 C    1.367   148 C    0.162
   146   6 C    3.839 --   145 C    2.340   147 C    1.394   143 C    0.168
   147   6 C    3.839 --   148 C    2.340   146 C    1.394   150 C    0.168
   148   6 C    3.804 --   147 C    2.340   149 C    1.367   145 C    0.162
   149   6 C    3.809 --   150 C    2.458   148 C    1.367
   150   6 C    3.757 --   149 C    2.458   391 C    1.226   147 C    0.168
   151   6 C    3.756 --   152 C    2.457   409 C    1.227   154 C    0.167
   152   6 C    3.809 --   151 C    2.457   153 C    1.368
   153   6 C    3.804 --   154 C    2.340   152 C    1.368   156 C    0.162
   154   6 C    3.839 --   153 C    2.340   155 C    1.395   151 C    0.167
   155   6 C    3.838 --   156 C    2.340   154 C    1.395   158 C    0.167
   156   6 C    3.804 --   155 C    2.340   157 C    1.368   153 C    0.162
   157   6 C    3.808 --   158 C    2.457   156 C    1.368
   158   6 C    3.756 --   157 C    2.457   445 C    1.227   155 C    0.167
   159   6 C    3.756 --   160 C    2.456   463 C    1.227   162 C    0.167
   160   6 C    3.808 --   159 C    2.456   161 C    1.368
   161   6 C    3.803 --   162 C    2.339   160 C    1.368   164 C    0.162
   162   6 C    3.838 --   161 C    2.339   163 C    1.395   159 C    0.167
   163   6 C    3.838 --   164 C    2.339   162 C    1.395   166 C    0.167
   164   6 C    3.803 --   163 C    2.339   165 C    1.368   161 C    0.162
   165   6 C    3.808 --   166 C    2.456   164 C    1.368
   166   6 C    3.756 --   165 C    2.456   499 C    1.228   163 C    0.167
   167   6 C    3.758 --   168 C    2.459   517 C    1.225   170 C    0.168
   168   6 C    3.808 --   167 C    2.459   169 C    1.366
   169   6 C    3.806 --   170 C    2.343   168 C    1.366   172 C    0.163
   170   6 C    3.839 --   169 C    2.343   171 C    1.391   167 C    0.168
   171   6 C    3.841 --   172 C    2.345   170 C    1.391   174 C    0.169
   172   6 C    3.804 --   171 C    2.345   173 C    1.363   169 C    0.163
   173   6 C    3.813 --   174 C    2.465   172 C    1.363
   174   6 C    3.756 --   173 C    2.465    74 C    1.220   171 C    0.169
   175   6 C    3.836 --   209 C    1.284   176 C    1.282   118 C    1.225
   176   6 C    3.904 --   175 C    1.282   177 C    1.269   180 N    1.251
   177   6 C    3.829 --   178 C    1.580   176 C    1.269   211 H    0.997
   178   6 C    3.819 --   177 C    1.580   179 C    1.261   212 H    0.997
   179   6 C    3.887 --   181 C    1.337   178 C    1.261   180 N    1.222
   180   7 N    3.251 --   176 C    1.251   179 C    1.222   213 H    0.960
   181   6 C    3.834 --   188 C    1.372   179 C    1.337   182 C    1.049
   182   6 C    3.907 --   183 C    1.426   187 C    1.426   181 C    1.049
   183   6 C    3.869 --   184 C    1.447   182 C    1.426   214 H    0.987
                           186 C    0.102
   184   6 C    3.999 --   185 N    1.479   183 C    1.447   215 H    0.982
                           187 C    0.102
   185   7 N    2.941 --   186 C    1.480   184 C    1.479
   186   6 C    3.999 --   185 N    1.480   187 C    1.447   216 H    0.982
                           183 C    0.102
   187   6 C    3.865 --   186 C    1.447   182 C    1.426   217 H    0.987
                           184 C    0.102
   188   6 C    3.924 --   181 C    1.372   191 N    1.352   189 C    1.160
   189   6 C    3.838 --   190 C    1.694   188 C    1.160   218 H    0.997
   190   6 C    3.849 --   189 C    1.694   192 C    1.166   219 H    0.998
   191   7 N    2.553 --   192 C    1.415   188 C    1.352
   192   6 C    3.942 --   191 N    1.415   193 C    1.283   190 C    1.166
   193   6 C    3.836 --   192 C    1.283   194 C    1.281   119 C    1.228
   194   6 C    3.903 --   193 C    1.281   195 C    1.270   198 N    1.251
   195   6 C    3.829 --   196 C    1.580   194 C    1.270   220 H    0.997
   196   6 C    3.818 --   195 C    1.580   197 C    1.261   221 H    0.997
   197   6 C    3.886 --   199 C    1.336   196 C    1.261   198 N    1.222
   198   7 N    3.252 --   194 C    1.251   197 C    1.222   222 H    0.960
   199   6 C    3.833 --   206 C    1.373   197 C    1.336   200 C    1.049
   200   6 C    3.907 --   201 C    1.426   205 C    1.426   199 C    1.049
   201   6 C    3.869 --   202 C    1.447   200 C    1.426   223 H    0.987
                           204 C    0.102
   202   6 C    3.999 --   203 N    1.479   201 C    1.447   224 H    0.982
                           205 C    0.102
   203   7 N    2.941 --   204 C    1.480   202 C    1.479
   204   6 C    3.999 --   203 N    1.480   205 C    1.447   225 H    0.982
                           201 C    0.102
   205   6 C    3.865 --   204 C    1.447   200 C    1.426   226 H    0.987
                           202 C    0.102
   206   6 C    3.924 --   199 C    1.373   210 N    1.352   207 C    1.159
   207   6 C    3.838 --   208 C    1.695   206 C    1.159   227 H    0.997
   208   6 C    3.849 --   207 C    1.695   209 C    1.165   228 H    0.998
   209   6 C    3.943 --   210 N    1.415   175 C    1.284   208 C    1.165
   210   7 N    2.552 --   209 C    1.415   206 C    1.352
   211   1 H    1.027 --   177 C    0.997
   212   1 H    1.030 --   178 C    0.997
   213   1 H    1.082 --   180 N    0.960
   214   1 H    1.052 --   183 C    0.987
   215   1 H    1.053 --   184 C    0.982
   216   1 H    1.054 --   186 C    0.982
   217   1 H    1.049 --   187 C    0.987
   218   1 H    1.035 --   189 C    0.997
   219   1 H    1.031 --   190 C    0.998
   220   1 H    1.027 --   195 C    0.997
   221   1 H    1.030 --   196 C    0.997
   222   1 H    1.082 --   198 N    0.960
   223   1 H    1.052 --   201 C    0.987
   224   1 H    1.053 --   202 C    0.982
   225   1 H    1.053 --   204 C    0.982
   226   1 H    1.049 --   205 C    0.987
   227   1 H    1.036 --   207 C    0.997
   228   1 H    1.031 --   208 C    0.998
   229   6 C    3.836 --   263 C    1.283   230 C    1.281   126 C    1.227
   230   6 C    3.903 --   229 C    1.281   231 C    1.270   234 N    1.251
   231   6 C    3.830 --   232 C    1.580   230 C    1.270   265 H    0.997
   232   6 C    3.819 --   231 C    1.580   233 C    1.261   266 H    0.997
   233   6 C    3.887 --   235 C    1.337   232 C    1.261   234 N    1.222
   234   7 N    3.251 --   230 C    1.251   233 C    1.222   267 H    0.960
   235   6 C    3.833 --   242 C    1.373   233 C    1.337   236 C    1.049
   236   6 C    3.907 --   237 C    1.426   241 C    1.426   235 C    1.049
   237   6 C    3.869 --   238 C    1.447   236 C    1.426   268 H    0.987
                           240 C    0.102
   238   6 C    3.999 --   239 N    1.479   237 C    1.447   269 H    0.982
                           241 C    0.102
   239   7 N    2.941 --   240 C    1.480   238 C    1.479
   240   6 C    3.999 --   239 N    1.480   241 C    1.447   270 H    0.982
                           237 C    0.102
   241   6 C    3.865 --   240 C    1.447   236 C    1.426   271 H    0.987
                           238 C    0.102
   242   6 C    3.924 --   235 C    1.373   245 N    1.352   243 C    1.159
   243   6 C    3.838 --   244 C    1.694   242 C    1.159   272 H    0.997
   244   6 C    3.850 --   243 C    1.694   246 C    1.166   273 H    0.998
   245   7 N    2.553 --   246 C    1.415   242 C    1.352
   246   6 C    3.942 --   245 N    1.415   247 C    1.283   244 C    1.166
   247   6 C    3.837 --   246 C    1.283   248 C    1.281   127 C    1.227
   248   6 C    3.903 --   247 C    1.281   249 C    1.270   252 N    1.251
   249   6 C    3.830 --   250 C    1.580   248 C    1.270   274 H    0.997
   250   6 C    3.819 --   249 C    1.580   251 C    1.261   275 H    0.997
   251   6 C    3.887 --   253 C    1.337   250 C    1.261   252 N    1.222
   252   7 N    3.251 --   248 C    1.251   251 C    1.222   276 H    0.960
   253   6 C    3.833 --   260 C    1.372   251 C    1.337   254 C    1.049
   254   6 C    3.907 --   255 C    1.426   259 C    1.426   253 C    1.049
   255   6 C    3.869 --   256 C    1.447   254 C    1.426   277 H    0.987
                           258 C    0.102
   256   6 C    3.999 --   257 N    1.479   255 C    1.447   278 H    0.982
                           259 C    0.102
   257   7 N    2.941 --   258 C    1.480   256 C    1.479
   258   6 C    3.999 --   257 N    1.480   259 C    1.447   279 H    0.982
                           255 C    0.102
   259   6 C    3.865 --   258 C    1.447   254 C    1.426   280 H    0.987
                           256 C    0.102
   260   6 C    3.924 --   253 C    1.372   264 N    1.352   261 C    1.159
   261   6 C    3.838 --   262 C    1.694   260 C    1.159   281 H    0.997
   262   6 C    3.850 --   261 C    1.694   263 C    1.166   282 H    0.998
   263   6 C    3.942 --   264 N    1.415   229 C    1.283   262 C    1.166
   264   7 N    2.553 --   263 C    1.415   260 C    1.352
   265   1 H    1.027 --   231 C    0.997
   266   1 H    1.030 --   232 C    0.997
   267   1 H    1.082 --   234 N    0.960
   268   1 H    1.052 --   237 C    0.987
   269   1 H    1.053 --   238 C    0.982
   270   1 H    1.053 --   240 C    0.982
   271   1 H    1.049 --   241 C    0.987
   272   1 H    1.035 --   243 C    0.997
   273   1 H    1.031 --   244 C    0.998
   274   1 H    1.027 --   249 C    0.997
   275   1 H    1.030 --   250 C    0.997
   276   1 H    1.082 --   252 N    0.960
   277   1 H    1.052 --   255 C    0.987
   278   1 H    1.053 --   256 C    0.982
   279   1 H    1.053 --   258 C    0.982
   280   1 H    1.049 --   259 C    0.987
   281   1 H    1.035 --   261 C    0.997
   282   1 H    1.031 --   262 C    0.998
   283   6 C    3.838 --   317 C    1.284   284 C    1.282   134 C    1.227
   284   6 C    3.904 --   283 C    1.282   285 C    1.270   288 N    1.250
   285   6 C    3.830 --   286 C    1.581   284 C    1.270   319 H    0.997
   286   6 C    3.819 --   285 C    1.581   287 C    1.261   320 H    0.997
   287   6 C    3.887 --   289 C    1.337   286 C    1.261   288 N    1.222
   288   7 N    3.252 --   284 C    1.250   287 C    1.222   321 H    0.960
   289   6 C    3.833 --   296 C    1.372   287 C    1.337   290 C    1.049
   290   6 C    3.907 --   291 C    1.426   295 C    1.426   289 C    1.049
   291   6 C    3.869 --   292 C    1.447   290 C    1.426   322 H    0.987
                           294 C    0.102
   292   6 C    3.999 --   293 N    1.479   291 C    1.447   323 H    0.982
                           295 C    0.102
   293   7 N    2.941 --   294 C    1.480   292 C    1.479
   294   6 C    3.999 --   293 N    1.480   295 C    1.447   324 H    0.982
                           291 C    0.102
   295   6 C    3.865 --   294 C    1.447   290 C    1.426   325 H    0.987
                           292 C    0.102
   296   6 C    3.925 --   289 C    1.372   299 N    1.352   297 C    1.159
   297   6 C    3.838 --   298 C    1.694   296 C    1.159   326 H    0.997
   298   6 C    3.850 --   297 C    1.694   300 C    1.166   327 H    0.998
   299   7 N    2.553 --   300 C    1.415   296 C    1.352
   300   6 C    3.943 --   299 N    1.415   301 C    1.284   298 C    1.166
   301   6 C    3.838 --   300 C    1.284   302 C    1.282   135 C    1.226
   302   6 C    3.904 --   301 C    1.282   303 C    1.269   306 N    1.250
   303   6 C    3.830 --   304 C    1.581   302 C    1.269   328 H    0.997
   304   6 C    3.819 --   303 C    1.581   305 C    1.261   329 H    0.997
   305   6 C    3.887 --   307 C    1.337   304 C    1.261   306 N    1.222
   306   7 N    3.252 --   302 C    1.250   305 C    1.222   330 H    0.960
   307   6 C    3.833 --   314 C    1.372   305 C    1.337   308 C    1.049
   308   6 C    3.907 --   309 C    1.426   313 C    1.426   307 C    1.049
   309   6 C    3.869 --   310 C    1.447   308 C    1.426   331 H    0.987
                           312 C    0.102
   310   6 C    3.999 --   311 N    1.479   309 C    1.447   332 H    0.982
                           313 C    0.102
   311   7 N    2.941 --   312 C    1.480   310 C    1.479
   312   6 C    3.999 --   311 N    1.480   313 C    1.446   333 H    0.982
                           309 C    0.102
   313   6 C    3.865 --   312 C    1.446   308 C    1.426   334 H    0.987
                           310 C    0.102
   314   6 C    3.924 --   307 C    1.372   318 N    1.352   315 C    1.159
   315   6 C    3.838 --   316 C    1.694   314 C    1.159   335 H    0.997
   316   6 C    3.850 --   315 C    1.694   317 C    1.166   336 H    0.998
   317   6 C    3.943 --   318 N    1.415   283 C    1.284   316 C    1.166
   318   7 N    2.553 --   317 C    1.415   314 C    1.352
   319   1 H    1.027 --   285 C    0.997
   320   1 H    1.030 --   286 C    0.997
   321   1 H    1.082 --   288 N    0.960
   322   1 H    1.052 --   291 C    0.987
   323   1 H    1.053 --   292 C    0.982
   324   1 H    1.053 --   294 C    0.982
   325   1 H    1.049 --   295 C    0.987
   326   1 H    1.035 --   297 C    0.997
   327   1 H    1.031 --   298 C    0.998
   328   1 H    1.027 --   303 C    0.997
   329   1 H    1.030 --   304 C    0.997
   330   1 H    1.082 --   306 N    0.960
   331   1 H    1.052 --   309 C    0.987
   332   1 H    1.053 --   310 C    0.982
   333   1 H    1.053 --   312 C    0.982
   334   1 H    1.049 --   313 C    0.987
   335   1 H    1.035 --   315 C    0.997
   336   1 H    1.031 --   316 C    0.998
   337   6 C    3.838 --   371 C    1.284   338 C    1.282   142 C    1.226
   338   6 C    3.904 --   337 C    1.282   339 C    1.269   342 N    1.250
   339   6 C    3.830 --   340 C    1.581   338 C    1.269   373 H    0.997
   340   6 C    3.819 --   339 C    1.581   341 C    1.261   374 H    0.997
   341   6 C    3.887 --   343 C    1.337   340 C    1.261   342 N    1.222
   342   7 N    3.252 --   338 C    1.250   341 C    1.222   375 H    0.960
   343   6 C    3.834 --   350 C    1.372   341 C    1.337   344 C    1.049
   344   6 C    3.907 --   345 C    1.426   349 C    1.426   343 C    1.049
   345   6 C    3.869 --   346 C    1.447   344 C    1.426   376 H    0.987
                           348 C    0.102
   346   6 C    3.999 --   347 N    1.479   345 C    1.447   377 H    0.982
                           349 C    0.102
   347   7 N    2.941 --   348 C    1.480   346 C    1.479
   348   6 C    3.999 --   347 N    1.480   349 C    1.446   378 H    0.982
                           345 C    0.102
   349   6 C    3.865 --   348 C    1.446   344 C    1.426   379 H    0.987
                           346 C    0.102
   350   6 C    3.925 --   343 C    1.372   353 N    1.352   351 C    1.159
   351   6 C    3.838 --   352 C    1.694   350 C    1.159   380 H    0.997
   352   6 C    3.850 --   351 C    1.694   354 C    1.166   381 H    0.998
   353   7 N    2.553 --   354 C    1.415   350 C    1.352
   354   6 C    3.943 --   353 N    1.415   355 C    1.284   352 C    1.166
   355   6 C    3.838 --   354 C    1.284   356 C    1.282   143 C    1.226
   356   6 C    3.904 --   355 C    1.282   357 C    1.269   360 N    1.250
   357   6 C    3.830 --   358 C    1.581   356 C    1.269   382 H    0.997
   358   6 C    3.819 --   357 C    1.581   359 C    1.261   383 H    0.997
   359   6 C    3.887 --   361 C    1.337   358 C    1.261   360 N    1.222
   360   7 N    3.252 --   356 C    1.250   359 C    1.222   384 H    0.960
   361   6 C    3.834 --   368 C    1.372   359 C    1.337   362 C    1.049
   362   6 C    3.907 --   363 C    1.426   367 C    1.426   361 C    1.049
   363   6 C    3.869 --   364 C    1.447   362 C    1.426   385 H    0.987
                           366 C    0.102
   364   6 C    3.999 --   365 N    1.479   363 C    1.447   386 H    0.982
                           367 C    0.102
   365   7 N    2.941 --   366 C    1.480   364 C    1.479
   366   6 C    3.999 --   365 N    1.480   367 C    1.446   387 H    0.982
                           363 C    0.102
   367   6 C    3.865 --   366 C    1.446   362 C    1.426   388 H    0.987
                           364 C    0.102
   368   6 C    3.925 --   361 C    1.372   372 N    1.352   369 C    1.159
   369   6 C    3.838 --   370 C    1.694   368 C    1.159   389 H    0.997
   370   6 C    3.850 --   369 C    1.694   371 C    1.166   390 H    0.998
   371   6 C    3.943 --   372 N    1.415   337 C    1.284   370 C    1.166
   372   7 N    2.553 --   371 C    1.415   368 C    1.352
   373   1 H    1.027 --   339 C    0.997
   374   1 H    1.030 --   340 C    0.997
   375   1 H    1.082 --   342 N    0.960
   376   1 H    1.052 --   345 C    0.987
   377   1 H    1.053 --   346 C    0.982
   378   1 H    1.053 --   348 C    0.982
   379   1 H    1.049 --   349 C    0.987
   380   1 H    1.035 --   351 C    0.997
   381   1 H    1.031 --   352 C    0.998
   382   1 H    1.027 --   357 C    0.997
   383   1 H    1.030 --   358 C    0.997
   384   1 H    1.082 --   360 N    0.960
   385   1 H    1.052 --   363 C    0.987
   386   1 H    1.053 --   364 C    0.982
   387   1 H    1.053 --   366 C    0.982
   388   1 H    1.049 --   367 C    0.987
   389   1 H    1.035 --   369 C    0.997
   390   1 H    1.031 --   370 C    0.998
   391   6 C    3.838 --   425 C    1.284   392 C    1.282   150 C    1.226
   392   6 C    3.904 --   391 C    1.282   393 C    1.269   396 N    1.250
   393   6 C    3.830 --   394 C    1.581   392 C    1.269   427 H    0.997
   394   6 C    3.819 --   393 C    1.581   395 C    1.261   428 H    0.997
   395   6 C    3.887 --   397 C    1.337   394 C    1.261   396 N    1.222
   396   7 N    3.252 --   392 C    1.250   395 C    1.222   429 H    0.960
   397   6 C    3.834 --   404 C    1.372   395 C    1.337   398 C    1.049
   398   6 C    3.907 --   399 C    1.426   403 C    1.426   397 C    1.049
   399   6 C    3.869 --   400 C    1.447   398 C    1.426   430 H    0.987
                           402 C    0.102
   400   6 C    3.999 --   401 N    1.479   399 C    1.447   431 H    0.982
                           403 C    0.102
   401   7 N    2.941 --   402 C    1.480   400 C    1.479
   402   6 C    3.999 --   401 N    1.480   403 C    1.447   432 H    0.982
                           399 C    0.102
   403   6 C    3.865 --   402 C    1.447   398 C    1.426   433 H    0.987
                           400 C    0.102
   404   6 C    3.924 --   397 C    1.372   407 N    1.352   405 C    1.159
   405   6 C    3.838 --   406 C    1.694   404 C    1.159   434 H    0.997
   406   6 C    3.850 --   405 C    1.694   408 C    1.166   435 H    0.998
   407   7 N    2.553 --   408 C    1.415   404 C    1.352
   408   6 C    3.942 --   407 N    1.415   409 C    1.284   406 C    1.166
   409   6 C    3.838 --   408 C    1.284   410 C    1.282   151 C    1.227
   410   6 C    3.904 --   409 C    1.282   411 C    1.269   414 N    1.250
   411   6 C    3.830 --   412 C    1.581   410 C    1.269   436 H    0.997
   412   6 C    3.819 --   411 C    1.581   413 C    1.261   437 H    0.997
   413   6 C    3.887 --   415 C    1.337   412 C    1.261   414 N    1.222
   414   7 N    3.252 --   410 C    1.250   413 C    1.222   438 H    0.960
   415   6 C    3.833 --   422 C    1.372   413 C    1.337   416 C    1.049
   416   6 C    3.907 --   417 C    1.426   421 C    1.426   415 C    1.049
   417   6 C    3.869 --   418 C    1.447   416 C    1.426   439 H    0.987
                           420 C    0.102
   418   6 C    3.999 --   419 N    1.479   417 C    1.447   440 H    0.982
                           421 C    0.102
   419   7 N    2.941 --   420 C    1.480   418 C    1.479
   420   6 C    3.999 --   419 N    1.480   421 C    1.447   441 H    0.982
                           417 C    0.102
   421   6 C    3.865 --   420 C    1.447   416 C    1.426   442 H    0.987
                           418 C    0.102
   422   6 C    3.925 --   415 C    1.372   426 N    1.352   423 C    1.159
   423   6 C    3.838 --   424 C    1.694   422 C    1.159   443 H    0.997
   424   6 C    3.850 --   423 C    1.694   425 C    1.166   444 H    0.998
   425   6 C    3.943 --   426 N    1.415   391 C    1.284   424 C    1.166
   426   7 N    2.553 --   425 C    1.415   422 C    1.352
   427   1 H    1.027 --   393 C    0.997
   428   1 H    1.030 --   394 C    0.997
   429   1 H    1.082 --   396 N    0.960
   430   1 H    1.052 --   399 C    0.987
   431   1 H    1.053 --   400 C    0.982
   432   1 H    1.053 --   402 C    0.982
   433   1 H    1.049 --   403 C    0.987
   434   1 H    1.035 --   405 C    0.997
   435   1 H    1.031 --   406 C    0.998
   436   1 H    1.027 --   411 C    0.997
   437   1 H    1.030 --   412 C    0.997
   438   1 H    1.082 --   414 N    0.960
   439   1 H    1.052 --   417 C    0.987
   440   1 H    1.053 --   418 C    0.982
   441   1 H    1.053 --   420 C    0.982
   442   1 H    1.049 --   421 C    0.987
   443   1 H    1.035 --   423 C    0.997
   444   1 H    1.031 --   424 C    0.998
   445   6 C    3.837 --   479 C    1.283   446 C    1.281   158 C    1.227
   446   6 C    3.904 --   445 C    1.281   447 C    1.270   450 N    1.251
   447   6 C    3.830 --   448 C    1.580   446 C    1.270   481 H    0.997
   448   6 C    3.819 --   447 C    1.580   449 C    1.261   482 H    0.997
   449   6 C    3.887 --   451 C    1.337   448 C    1.261   450 N    1.222
   450   7 N    3.251 --   446 C    1.251   449 C    1.222   483 H    0.960
   451   6 C    3.833 --   458 C    1.372   449 C    1.337   452 C    1.049
   452   6 C    3.907 --   453 C    1.426   457 C    1.426   451 C    1.049
   453   6 C    3.869 --   454 C    1.447   452 C    1.426   484 H    0.987
                           456 C    0.102
   454   6 C    3.999 --   455 N    1.479   453 C    1.447   485 H    0.982
                           457 C    0.102
   455   7 N    2.941 --   456 C    1.480   454 C    1.479
   456   6 C    3.999 --   455 N    1.480   457 C    1.447   486 H    0.982
                           453 C    0.102
   457   6 C    3.865 --   456 C    1.447   452 C    1.426   487 H    0.987
                           454 C    0.102
   458   6 C    3.924 --   451 C    1.372   461 N    1.352   459 C    1.159
   459   6 C    3.838 --   460 C    1.694   458 C    1.159   488 H    0.997
   460   6 C    3.850 --   459 C    1.694   462 C    1.166   489 H    0.998
   461   7 N    2.553 --   462 C    1.415   458 C    1.352
   462   6 C    3.942 --   461 N    1.415   463 C    1.283   460 C    1.166
   463   6 C    3.836 --   462 C    1.283   464 C    1.281   159 C    1.227
   464   6 C    3.903 --   463 C    1.281   465 C    1.270   468 N    1.251
   465   6 C    3.830 --   466 C    1.580   464 C    1.270   490 H    0.997
   466   6 C    3.819 --   465 C    1.580   467 C    1.261   491 H    0.997
   467   6 C    3.887 --   469 C    1.337   466 C    1.261   468 N    1.222
   468   7 N    3.251 --   464 C    1.251   467 C    1.222   492 H    0.960
   469   6 C    3.833 --   476 C    1.373   467 C    1.337   470 C    1.049
   470   6 C    3.907 --   471 C    1.426   475 C    1.426   469 C    1.049
   471   6 C    3.869 --   472 C    1.447   470 C    1.426   493 H    0.987
                           474 C    0.102
   472   6 C    3.999 --   473 N    1.479   471 C    1.447   494 H    0.982
                           475 C    0.102
   473   7 N    2.941 --   474 C    1.480   472 C    1.479
   474   6 C    3.999 --   473 N    1.480   475 C    1.447   495 H    0.982
                           471 C    0.102
   475   6 C    3.865 --   474 C    1.447   470 C    1.426   496 H    0.987
                           472 C    0.102
   476   6 C    3.924 --   469 C    1.373   480 N    1.352   477 C    1.159
   477   6 C    3.838 --   478 C    1.694   476 C    1.159   497 H    0.997
   478   6 C    3.850 --   477 C    1.694   479 C    1.166   498 H    0.998
   479   6 C    3.942 --   480 N    1.415   445 C    1.283   478 C    1.166
   480   7 N    2.553 --   479 C    1.415   476 C    1.352
   481   1 H    1.027 --   447 C    0.997
   482   1 H    1.030 --   448 C    0.997
   483   1 H    1.082 --   450 N    0.960
   484   1 H    1.052 --   453 C    0.987
   485   1 H    1.053 --   454 C    0.982
   486   1 H    1.053 --   456 C    0.982
   487   1 H    1.049 --   457 C    0.987
   488   1 H    1.035 --   459 C    0.997
   489   1 H    1.031 --   460 C    0.998
   490   1 H    1.027 --   465 C    0.997
   491   1 H    1.030 --   466 C    0.997
   492   1 H    1.082 --   468 N    0.960
   493   1 H    1.052 --   471 C    0.987
   494   1 H    1.053 --   472 C    0.982
   495   1 H    1.053 --   474 C    0.982
   496   1 H    1.049 --   475 C    0.987
   497   1 H    1.035 --   477 C    0.997
   498   1 H    1.031 --   478 C    0.998
   499   6 C    3.836 --   533 C    1.283   500 C    1.281   166 C    1.228
   500   6 C    3.903 --   499 C    1.281   501 C    1.270   504 N    1.251
   501   6 C    3.829 --   502 C    1.580   500 C    1.270   535 H    0.997
   502   6 C    3.818 --   501 C    1.580   503 C    1.261   536 H    0.997
   503   6 C    3.886 --   505 C    1.336   502 C    1.261   504 N    1.222
   504   7 N    3.252 --   500 C    1.251   503 C    1.222   537 H    0.960
   505   6 C    3.833 --   512 C    1.373   503 C    1.336   506 C    1.049
   506   6 C    3.907 --   511 C    1.426   507 C    1.426   505 C    1.049
   507   6 C    3.869 --   508 C    1.447   506 C    1.426   538 H    0.987
                           510 C    0.102
   508   6 C    3.999 --   509 N    1.479   507 C    1.447   539 H    0.982
                           511 C    0.102
   509   7 N    2.941 --   510 C    1.480   508 C    1.479
   510   6 C    3.999 --   509 N    1.480   511 C    1.447   540 H    0.982
                           507 C    0.102
   511   6 C    3.865 --   510 C    1.447   506 C    1.426   541 H    0.987
                           508 C    0.102
   512   6 C    3.924 --   505 C    1.373   515 N    1.352   513 C    1.159
   513   6 C    3.838 --   514 C    1.694   512 C    1.159   542 H    0.997
   514   6 C    3.849 --   513 C    1.694   516 C    1.165   543 H    0.998
   515   7 N    2.552 --   516 C    1.415   512 C    1.352
   516   6 C    3.943 --   515 N    1.415   517 C    1.284   514 C    1.165
   517   6 C    3.836 --   516 C    1.284   518 C    1.282   167 C    1.225
   518   6 C    3.904 --   517 C    1.282   519 C    1.269   522 N    1.251
   519   6 C    3.829 --   520 C    1.580   518 C    1.269   544 H    0.997
   520   6 C    3.819 --   519 C    1.580   521 C    1.261   545 H    0.997
   521   6 C    3.887 --   523 C    1.337   520 C    1.261   522 N    1.222
   522   7 N    3.251 --   518 C    1.251   521 C    1.222   546 H    0.960
   523   6 C    3.834 --   530 C    1.372   521 C    1.337   524 C    1.049
   524   6 C    3.907 --   525 C    1.426   529 C    1.426   523 C    1.049
   525   6 C    3.869 --   526 C    1.447   524 C    1.426   547 H    0.987
                           528 C    0.102
   526   6 C    3.999 --   527 N    1.479   525 C    1.447   548 H    0.982
                           529 C    0.102
   527   7 N    2.941 --   528 C    1.480   526 C    1.479
   528   6 C    3.999 --   527 N    1.480   529 C    1.447   549 H    0.982
                           525 C    0.102
   529   6 C    3.865 --   528 C    1.447   524 C    1.426   550 H    0.987
                           526 C    0.102
   530   6 C    3.924 --   523 C    1.372   534 N    1.352   531 C    1.160
   531   6 C    3.838 --   532 C    1.694   530 C    1.160   551 H    0.997
   532   6 C    3.849 --   531 C    1.694   533 C    1.166   552 H    0.998
   533   6 C    3.942 --   534 N    1.415   499 C    1.283   532 C    1.166
   534   7 N    2.553 --   533 C    1.415   530 C    1.352
   535   1 H    1.027 --   501 C    0.997
   536   1 H    1.030 --   502 C    0.997
   537   1 H    1.082 --   504 N    0.960
   538   1 H    1.052 --   507 C    0.987
   539   1 H    1.053 --   508 C    0.982
   540   1 H    1.053 --   510 C    0.982
   541   1 H    1.049 --   511 C    0.987
   542   1 H    1.036 --   513 C    0.997
   543   1 H    1.031 --   514 C    0.998
   544   1 H    1.027 --   519 C    0.997
   545   1 H    1.030 --   520 C    0.997
   546   1 H    1.082 --   522 N    0.960
   547   1 H    1.052 --   525 C    0.987
   548   1 H    1.053 --   526 C    0.982
   549   1 H    1.054 --   528 C    0.982
   550   1 H    1.049 --   529 C    0.987
   551   1 H    1.035 --   531 C    0.997
   552   1 H    1.031 --   532 C    0.998
 ---------------------------------------------------------------------------

Topologies differ in total number of bonds
Writing topology from bond orders to xtbtopo.mol

 dipole moment from electron density (au)
     X       Y       Z   
-302.1572  -0.1187  -0.3438  total (Debye):  768.008


           -------------------------------------------------
          | TOTAL ENERGY            -1101.577703404189 Eh   |
          | GRADIENT NORM               0.130076969609 Eh/α |
          | HOMO-LUMO GAP               0.029839313367 eV   |
           -------------------------------------------------
########################################################################
[WARNING] Runtime exception occurred
-1- restart_readRestart: Dimension missmatch in restart file.
########################################################################

------------------------------------------------------------------------
 * finished run on 2022/07/27 at 15:48:30.331     
------------------------------------------------------------------------
 total:
 * wall-time:     0 d,  0 h,  3 min, 21.272 sec
 *  cpu-time:     0 d,  0 h,  3 min, 20.000 sec
 * ratio c/w:     0.994 speedup
 SCF:
 * wall-time:     0 d,  0 h,  3 min, 19.691 sec
 *  cpu-time:     0 d,  0 h,  3 min, 18.494 sec
 * ratio c/w:     0.994 speedup

