552
 energy: -964.584170739477 gnorm: 0.000666003034 xtb: 6.5.1 (b24c23e)
C           82.02068369400030        0.04859124961164        0.06281382919648
C           82.62791518290416        1.27855636163201        0.28037899794520
C           81.97481469305619        2.52679534912156        0.48261266199869
C           82.93617057263432        3.48051158483703        0.66463442133881
C           84.20783507559197        2.84334429349941        0.58997524859007
N           83.97108380860196        1.52025564698087        0.34779237585964
C           85.47073954411249        3.43360909618491        0.71385406647176
C           85.49812281457207        4.88873713339040        0.99457780668681
C           86.09598383359993        5.78538193275697        0.10959629552196
C           86.09047716665023        7.13802652726493        0.41117288388530
N           85.54131451666663        7.63170422833277        1.51639479714406
C           84.97254150656056        6.78372945744710        2.36714054424035
C           84.92326375614503        5.41559404643812        2.15070624236085
C           86.68825626365438        2.75949707218939        0.59541312355588
C           87.98359669920086        3.38585028148899        0.79107612197747
C           88.90717548619770        2.42165828873863        0.59881170002943
N           86.84677694925925        1.43775677828241        0.30892021210386
C           88.17490874878567        1.20737275671258        0.29440894659948
C           88.81567172350648       -0.01867253888880        0.02115152320921
C           88.18141353120394       -1.24610815679477       -0.25054708151079
C           88.82688441846869       -2.47308813204104       -0.55798711325565
C           87.86094959920426       -3.42178390835035       -0.74897708778458
C           86.59454179883269       -2.80379668132808       -0.55396476639131
N           86.84028459087655       -1.48762705916228       -0.26380132034034
C           85.33298459216709       -3.39876504833473       -0.65916937523616
C           85.30222393181759       -4.84811182132203       -0.96469379233377
C           85.88753086738178       -5.78340435652823       -0.11168419298322
C           85.83002136728993       -7.12835727878836       -0.44143443135182
N           85.24344823311897       -7.57923244929393       -1.54556570881985
C           84.68474861365257       -6.69445819338499       -2.36524015808819
C           84.68614051472528       -5.33068149353786       -2.11913736012335
C           84.11448457890738       -2.73042984306417       -0.49839700141548
C           82.81264874349840       -3.37770048884742       -0.55370221515529
C           81.89616544898303       -2.41012921322880       -0.35107173681650
C           82.63689799100455       -1.17503892927022       -0.16283219432236
N           83.96983650939663       -1.40780349674494       -0.24853307325531
H           80.93538876929847        0.05409522454416        0.07087789393253
H           80.90534987108592        2.66460018531767        0.48024269157876
H           82.78395575789004        4.53498766375008        0.82822452403231
H           84.69673998554400        0.82091508772641        0.23135613538964
H           86.54460321983967        5.42952884865029       -0.81016787762122
H           86.54573423631615        7.85579545181657       -0.26491946793318
H           84.53592451919643        7.21648594419185        3.26253445673960
H           84.46008509450971        4.76132350359309        2.87977030693596
H           88.14222434827542        4.41899610743024        1.05425682392180
H           89.98108429555248        2.49683260425003        0.65871074524594
H           89.89488241807064       -2.60194756216356       -0.62827913450591
H           88.00914462799699       -4.45649158093106       -1.01149359868835
H           86.11782000010228       -0.79615287222121       -0.09188173518548
H           86.36468013642751       -5.46396440317204        0.80722248810288
H           86.27429207188538       -7.87531866146255        0.20994408057070
H           84.21534557753066       -7.09301582769638       -3.25989296442394
H           84.22934396946462       -4.64528694739040       -2.82302851226618
H           82.64818253926023       -4.43126250175728       -0.71241506375268
H           80.82116784714090       -2.49373742674703       -0.31884838209026
C          237.69863462422279       -0.05259330050916        0.01621626539199
C          237.09361733715258       -1.25015332192855       -0.34251725815128
C          237.74884051686598       -2.45424031004417       -0.72513551511466
C          236.78921697152174       -3.39042163395695       -0.98897934415722
C          235.51658105419011       -2.79120027959997       -0.76532989503640
N          235.75097066040166       -1.49978942441466       -0.38769963045715
C          234.25475414298288       -3.37798842949849       -0.91425265156800
C          234.22950106153027       -4.80422159082692       -1.31677865530913
C          233.62572291965733       -5.20920233306412       -2.50679469006460
C          233.63350171258855       -6.55296040197601       -2.84565891578257
N          234.19028605040464       -7.48907080949436       -2.08374339611501
C          234.76460756140642       -7.11231410859560       -0.94596583412357
C          234.81219485244341       -5.79279835479158       -0.52441241721812
C          233.03619214569903       -2.72577448513214       -0.71271311886600
C          231.74240045334682       -3.37772751457445       -0.81039247005166
C          230.81706399965279       -2.43149653318282       -0.54947724468003
N          232.87516929730356       -1.41525326386287       -0.37990303601857
C          231.54675602730680       -1.20622992220514       -0.28570057861253
C          230.90360736172318        0.01333446205302        0.01014268622454
C          231.53572062015766        1.23566397365570        0.30867356065974
C          230.88823510492722        2.47066925745742        0.57717675219410
C          231.85245864099667        3.40583081596759        0.83279822618955
C          233.11972721109930        2.76663804439429        0.73714579825058
N          232.87632342958739        1.45905558610645        0.40878780047535
C          234.38008618211157        3.34673099293270        0.91508718194567
C          234.40787125884756        4.77877139023611        1.29362966639726
C          233.81623598091849        5.22991763160246        2.47324677706912
C          233.87136614774869        6.57941332544868        2.78424737408940
N          234.46140175653096        7.47921867794374        2.00406505231464
C          235.02598646673397        7.05822435898614        0.87675114331076
C          235.02739535674434        5.72956435775597        0.48286718652467
C          235.59976024590944        2.67848856448708        0.76309867603519
C          236.90030692143532        3.28299811128736        1.00792066242362
C          237.81856281001345        2.32907020298290        0.75487085641765
C          237.08016236135666        1.14042859953610        0.36568932768399
N          235.74684190076479        1.38496006784887        0.39176586085159
H          238.78394700341434       -0.05891911420685        0.02032279484280
H          238.81844363634448       -2.57345363612908       -0.79213550829984
H          236.94324293491081       -4.40536036527689       -1.31765061994227
H          235.02411425297888       -0.82468221683442       -0.17529139428463
H          233.17078443909111       -4.47923277417615       -3.16561272517389
H          233.17378239299234       -6.89155703062209       -3.76954595946793
H          235.20733191012545       -7.90004928543786       -0.34338130176969
H          235.28009042622355       -5.53476625644629        0.41825764248492
H          231.58601735247709       -4.42060021014080       -1.03351007129928
H          229.74354495625158       -2.52871847377962       -0.52456417643336
H          229.82013905225719        2.61643605650843        0.56776370966226
H          231.70260915356289        4.44898942866720        1.05833916334242
H          233.59990111805010        0.76387843900325        0.25776664087504
H          233.33605979386525        4.53087370533200        3.14769360880852
H          233.42225131917718        6.95311647924030        3.69981579819303
H          235.49804271061032        7.81700360881962        0.25949392746699
H          235.48902570282286        5.43451554107358       -0.45186747431841
H          237.06280931932818        4.29539519179501        1.34090025259632
H          238.89335084559960        2.39067526610605        0.82331694173633
C           90.22096077346399       -0.03065869288835        0.01440033522823
C           91.44582537691392       -0.04050059906334        0.00727536647804
C           92.78813667404070       -0.05047536654860        0.00213943277758
C           94.01917038500169       -0.05848740064206       -0.00282247086927
C           95.35668710881994       -0.06178993890693       -0.00836283230130
C           96.58779692008790       -0.06347945953082       -0.01158305417704
C           97.92989808671291       -0.06441794601958       -0.01356522972168
C           99.15503174960924       -0.06056565611119       -0.01722729836259
C          108.83559469662264       -0.03113590377328       -0.01991654422975
C          110.06098576612278       -0.02518054581284       -0.01745421510733
C          111.40285942052736       -0.02114949852523       -0.01718772770360
C          112.63430690693258       -0.01772363627477       -0.01789560135446
C          113.97150298541419       -0.01417708499260       -0.01798867452302
C          115.20295468623975       -0.01129913802692       -0.01823239565162
C          116.54480996225003       -0.00987443759296       -0.01674358160974
C          117.77021274514740       -0.00604058949282       -0.01776568851242
C          127.45559239011880       -0.00546347692052       -0.01336442017708
C          128.68108994277605       -0.00327895269792       -0.01331349705614
C          130.02306121080855       -0.00402291651824       -0.01283347838214
C          131.25450115176454       -0.00403753418920       -0.01287368808827
C          132.59179715998138       -0.00433384676931       -0.01302413898773
C          133.82335028414255       -0.00616031310582       -0.01370748792932
C          135.16534159875289       -0.00609289451593       -0.01364437251958
C          136.39081127982499       -0.00468912614487       -0.01453499509960
C          146.07956501234548       -0.00939506090836       -0.01533453254328
C          147.30505837887506       -0.00720537542047       -0.01475256293024
C          148.64710788108732       -0.00782043427769       -0.01395623990339
C          149.87866959668906       -0.00707703932518       -0.01329685226958
C          151.21604777571855       -0.00783381377543       -0.01401126892655
C          152.44759414343230       -0.00880604807577       -0.01438881556582
C          153.78964118393611       -0.00801560803967       -0.01507975601294
C          155.01513990879022       -0.00581457261220       -0.01508848492400
C          164.70509303945553       -0.00889226560532       -0.01293353441439
C          165.93058124158384       -0.00718592626245       -0.01280874243357
C          167.27261776964650       -0.00746429816512       -0.01199404476010
C          168.50414857107117       -0.00690284730801       -0.01162003721490
C          169.84152863657530       -0.00658893402272       -0.01145195478323
C          171.07304076859296       -0.00534089483943       -0.01133676624389
C          172.41507054104039       -0.00753732592514       -0.01188803862270
C          173.64055115257696       -0.00530581246572       -0.01251037379570
C          183.32921803539395       -0.00879745397021       -0.01109662990615
C          184.55468016559638       -0.00688392451253       -0.01066925458340
C          185.89664715286935       -0.00793023768802       -0.01036417047825
C          187.12816740815958       -0.00773893739546       -0.01023999557949
C          188.46547152864534       -0.00762106736251       -0.01023323298040
C          189.69698823515355       -0.00710181008192       -0.01057656413548
C          191.03896132922137       -0.00802678916127       -0.01079039115031
C          192.26442809618894       -0.00600007748696       -0.01204530452671
C          201.94958629752171       -0.00603640838059       -0.01758939256372
C          203.17500539632559       -0.00201374880197       -0.01736522694337
C          204.51687312286879        0.00058380734172       -0.01740095734230
C          205.74832952970814        0.00023252241618       -0.01935990371216
C          207.08551350267385        0.00514081285033       -0.02104621620179
C          208.31695409038684        0.00818541674227       -0.02089455642394
C          209.65880555724823        0.01060554529089       -0.02072560923674
C          210.88418161175309        0.01652090799036       -0.02242148520057
C          220.56430199998849        0.04672524181302       -0.01246322345828
C          221.78946483989429        0.05136537575819       -0.00916232076298
C          223.13151876699666        0.05118978572823       -0.00529471594165
C          224.36267718749832        0.05141861306955       -0.00204423033847
C          225.70015040841383        0.04791980114248        0.00098918687537
C          226.93115895207606        0.04276542445674        0.00391335195501
C          228.27345289268428        0.03551426922708        0.00697358485741
C          229.49834853579628        0.02454537232290        0.00874287774795
C          100.55926820615655       -0.05814337520784       -0.01948840112136
C          101.18983910990873       -1.28916073385402        0.24707241174550
C          100.54555943545492       -2.51776143395862        0.54387253563458
C          101.51386433431918       -3.46678438098048        0.72733615181570
C          102.77824003047775       -2.84521783824242        0.53821889126646
N          102.53164152320065       -1.52762911862944        0.25947663812097
C          104.04000663051882       -3.44488925739621        0.63432307624215
C          104.05537423919149       -4.89969162056357        0.92204937551472
C          104.64227411112493       -5.40067120233275        2.08344309864568
C          104.62697094911520       -6.76739497241465        2.31284330832480
N          104.07890248316880       -7.63718553362034        1.47040671085409
C          103.52060269090406       -7.16838571997982        0.35920705531158
C          103.48115392143154       -5.81900021934814        0.04486826142226
C          105.26515972559990       -2.79390710525645        0.48360325680868
C          106.55025860079390       -3.46850339183493        0.53222869945821
C          107.48871103997681       -2.51696760083402        0.34896929840558
N          105.44394621984010       -1.46326563583537        0.25550058695406
C          106.77546230011370       -1.26616751483637        0.18097651508438
C          107.43161759053527       -0.03436708335940       -0.01978389456755
C          106.80067557345259        1.20873454748058       -0.22286032677864
C          107.44468403393434        2.46078843663707       -0.39746389675170
C          106.47629924926578        3.41037755320967       -0.57720267182337
C          105.21202565723877        2.76235665323495       -0.52650535018889
N          105.45898683033366        1.43451224361524       -0.30064253607211
C          103.95054572358468        3.35487611803265       -0.65992010645409
C          103.93419967353351        4.81322376180836       -0.92894160785368
C          103.34426277508786        5.70661898227115       -0.03556813417393
C          103.35689718650450        7.06139609223609       -0.32746522790898
N          103.90521657408337        7.55948940843993       -1.43103219596939
C          104.46665734192658        6.71452020614755       -2.28952518527828
C          104.50890683476888        5.34457202116433       -2.08290787855551
C          102.72518535526157        2.69371459170617       -0.56224130958366
C          101.44016548237821        3.33863336748851       -0.76640478484595
C          100.50175736211776        2.38624679785686       -0.58740999102868
C          101.21501424758289        1.16151813431932       -0.28329775064321
N          102.54674303667933        1.37262806813629       -0.28536792182906
H           99.47772388097636       -2.64873675512543        0.61210413438259
H          101.36703922625898       -4.50403758419666        0.98024210229217
H          103.24943206644747       -0.83031830325909        0.09280214093527
H          105.09039988024244       -4.72743389435996        2.80439141486187
H          105.07338441124406       -7.18075180796537        3.21248891765930
H          103.08442187323318       -7.90364089610094       -0.31065506141579
H          103.02543778544248       -5.48392531377787       -0.87931892685032
H          106.69240478465638       -4.52757652127169        0.67337160759739
H          108.56105103245969       -2.62521617539957        0.31903415477290
H          108.51242683022998        2.60814285459187       -0.38066997418990
H          106.62279211991552        4.46802813026595       -0.72327264954262
H          104.74132244924432        0.72441733953936       -0.20075836266301
H          102.89553875736109        5.34645242834698        0.88244946034747
H          102.90779299360459        7.77692772289303        0.35504613351726
H          104.90290039199812        7.15113987932062       -3.18317724340086
H          104.96681967274552        4.69266488314916       -2.81734982082495
H          101.29783710808442        4.37527456040930       -1.02496077993521
H           99.42947093577524        2.47564514331565       -0.65605245532635
C          119.17416590658237       -0.00716459765499       -0.01764331326062
C          119.80175344386615       -1.23778349344939        0.25887951603077
C          119.15488180062469       -2.46293441550542        0.56394023051903
C          120.12116846144984       -3.41316150870730        0.75190025919476
C          121.38685331870282       -2.79588753268668        0.55742700392788
N          121.14298763449811       -1.47922276557998        0.27158617481150
C          122.64692775166772       -3.39899784971640        0.65398669231454
C          122.65781342410588       -4.85275293999104        0.94749209433041
C          123.24427517766965       -5.35116935759660        2.11019101487990
C          123.22499426645852       -6.71699379879701        2.34465691589067
N          122.67350699137513       -7.58818470880874        1.50592758187557
C          122.11553446023811       -7.12182937550523        0.39354934990784
C          122.07989513825683       -5.77349317817426        0.07426642832604
C          123.87443552188009       -2.75342021289592        0.49861291511547
C          125.15683040736594       -3.43311634347632        0.54827509450571
C          126.09906631592466       -2.48606309684754        0.36115166697320
N          124.05848849245390       -1.42438811104777        0.26562159555410
C          125.39085335163723       -1.23296858119341        0.18967389292167
C          126.05154745777054       -0.00416833719942       -0.01463369839944
C          125.42382313399280        1.23995606018695       -0.22194558725224
C          126.07052044806906        2.49009563956767       -0.39959226985908
C          125.10418202765644        3.44103783389076       -0.58353922574413
C          123.83854982218371        2.79571168645564       -0.53261152901829
N          124.08260151323836        1.46817339362335       -0.30215223084118
C          122.57854934848608        3.39063285529080       -0.67092409922418
C          122.56678869863305        4.84813129546420       -0.94518435460697
C          121.97811102757139        5.74619026229087       -0.05566762632652
C          121.99526398973862        7.09996552687543       -0.35195947220439
N          122.54675559531830        7.59277544632212       -1.45630922439186
C          123.10697108900757        6.74333490118594       -2.31117530539720
C          123.14483315676752        5.37394364045262       -2.10000358738877
C          121.35099285293671        2.73370192660859       -0.57356870599380
C          120.06866088299394        3.38184423148089       -0.78460796364984
C          119.12647784778805        2.43367634950486       -0.60288368279751
C          119.83471490597236        1.20834385830201       -0.28980229242610
N          121.16707450354788        1.41463001463339       -0.28995485894718
H          118.08682835421384       -2.59100655812264        0.63411695046280
H          119.97214294311341       -4.44854286200253        1.01109409107731
H          121.86193534061717       -0.78441559673420        0.09954741134757
H          123.69521491687587       -4.67663333828283        2.82816233223990
H          123.67102113622613       -7.12839252237379        3.24538458279424
H          121.67647774515090       -7.85821343892698       -0.27317450956007
H          121.62429472060234       -5.44039651641064       -0.85069088638549
H          125.29479684077694       -4.49228170472697        0.69279273006072
H          127.17092610317982       -2.59880064137374        0.33063314566963
H          127.13852959761553        2.63538491882822       -0.38191092649096
H          125.25302647987685        4.49792921031799       -0.73267107668310
H          123.36370126417052        0.75953610140589       -0.20084279369467
H          121.52686318053634        5.39033049712642        0.86279377013429
H          121.54729517942731        7.81907369452516        0.32753180201549
H          123.54589580679563        7.17572707669998       -3.20556494337198
H          123.60200179727528        4.71827470252481       -2.83155095698051
H          119.93060011267603        4.41752955402442       -1.04925570017706
H          118.05466193877604        2.52630671761680       -0.67473668371672
C          137.79484685444979       -0.00698862924216       -0.01512465036935
C          138.42238925607191       -1.23781122048464        0.26074214435355
C          137.77581590058455       -2.46306712101851        0.56597082802269
C          138.74230741936771       -3.41328014322893        0.75293556713048
C          140.00789414395916       -2.79593769095750        0.55772850698256
N          139.76368528039643       -1.47920103932243        0.27239434746007
C          141.26787386158293       -3.39939884275050        0.65331465361168
C          141.27830657727080       -4.85330443319168        0.94638161996605
C          141.86448408558897       -5.35222010929371        2.10900520225464
C          141.84509362901809       -6.71814292556523        2.34289598917456
N          141.29375876150650       -7.58894815742429        1.50366937464142
C          140.73601699816456       -7.12210486731280        0.39138579445426
C          140.70049556070720       -5.77362721890137        0.07266290221488
C          142.49589100539592       -2.75478776366871        0.49749538634218
C          143.77765038626097       -3.43580682936347        0.54656696921371
C          144.72082541273053       -2.48969326913051        0.35940357384187
N          142.68125769185428       -1.42593679214963        0.26475808456561
C          144.01386042089840       -1.23587770176805        0.18839087870312
C          144.67548578347973       -0.00761326913939       -0.01603541036154
C          144.04787246548653        1.23663363035938       -0.22298255453903
C          144.69440905361918        2.48676258173607       -0.40101920062642
C          143.72789406770855        3.43759772566519       -0.58461699259900
C          142.46229742483800        2.79220990838022       -0.53300132364758
N          142.70655642227746        1.46475189543225       -0.30248568603704
C          141.20234468064857        3.38741775586439       -0.67089889104191
C          141.19145701133704        4.84487709802269       -0.94570140924835
C          140.60488017153594        5.74384064570287       -0.05573544629944
C          140.62308958206447        7.09749714079310       -0.35253345403275
N          141.17366810849575        7.58932789165036       -1.45776977572723
C          141.73185023715487        6.73900275923774       -2.31308510368766
C          141.76853359792293        5.36964895566348       -2.10147280672136
C          139.97430683821651        2.73154247153657       -0.57277931091097
C          138.69252253691886        3.38104535124031       -0.78319857290828
C          137.74937695030420        2.43399762908049       -0.60066911308316
C          138.45641554456742        1.20792866610598       -0.28779705985633
N          139.78902553248236        1.41272763362525       -0.28875093222564
H          136.70781653076713       -2.59119300289541        0.63688194300584
H          138.59352342791701       -4.44874685460724        1.01192804092446
H          140.48227452305605       -0.78412628811038        0.09994121138575
H          142.31537989986995       -4.67800581120209        2.82730621233805
H          142.29094579347580       -7.12994396713778        3.24352475565347
H          140.29708840271323       -7.85819087295690       -0.27574892025163
H          140.24509422395337       -5.44010649289854       -0.85223917827093
H          143.91462116722741       -4.49514205726008        0.69077493254867
H          145.79256689649606       -2.60349400223447        0.32855525097362
H          145.76241694970764        2.63213542292571       -0.38384146319443
H          143.87662407126291        4.49447480760675       -0.73395546352243
H          141.98796462828969        0.75586881153926       -0.20073278494961
H          140.15445276732498        5.38876803434624        0.86343267260677
H          140.17680023037565        7.81732216681344        0.32730114462452
H          142.17009267772011        7.17061409695584       -3.20818433989085
H          142.22413122472966        4.71322486326481       -2.83332364437303
H          138.55545563606927        4.41683221130958       -1.04796080169681
H          136.67762499054652        2.52783014910707       -0.67189723257926
C          156.41922120434333       -0.00794903521569       -0.01535699242019
C          157.04704187868055       -1.23854631874402        0.26100507103684
C          156.40084931125688       -2.46396275944100        0.56642114553393
C          157.36765186263187       -3.41370712608377        0.75415194672696
C          158.63309077622108       -2.79598324580762        0.55909509560815
N          158.38844008365430       -1.47945403732647        0.27310138446964
C          159.89318933841264       -3.39908356644105        0.65533626887836
C          159.90397440906605       -4.85286711776502        0.94911367889147
C          160.48984517520677       -5.35096528729099        2.11224740242954
C          160.47120877347339       -6.71680932517008        2.34665199510132
N          159.92087818652834       -7.58828167504124        1.50745786339521
C          159.36340026225693       -7.12221466705461        0.39472026346569
C          159.32717546782891       -5.77387697172947        0.07546299272097
C          161.12124828392831       -2.75449180040797        0.49954485346764
C          162.40298915697133       -3.43552494409078        0.54924314406402
C          163.34625286952505       -2.48951873040400        0.36195983385467
N          161.30672666202386       -1.42576545230512        0.26629134444415
C          162.63938027020586       -1.23576815774511        0.19025027684351
C          163.30100299551574       -0.00754766315912       -0.01444208959382
C          162.67311568832494        1.23644353212293       -0.22206576640155
C          163.31928640764477        2.48668567344026       -0.40047935936519
C          162.35248911599876        3.43711823960761       -0.58466990978277
C          161.08707976856599        2.79134573083942       -0.53302268766568
N          161.33172661172563        1.46407527966469       -0.30193249432310
C          159.82699892882388        3.38621498855052       -0.67138633045502
C          159.81621825305336        4.84357701334683       -0.94682471041131
C          159.23006907099619        5.74307255303655       -0.05712839435209
C          159.24876956363849        7.09661781225432       -0.35442589987230
N          159.79941552372995        7.58783833986269       -1.45989714208647
C          160.35715577413663        6.73699089824164       -2.31498291950810
C          160.39333787265804        5.36770470452210       -2.10286952349658
C          158.59896865086560        2.73034547506892       -0.57325857315958
C          157.31724784627170        3.37989008747779       -0.78403433658592
C          156.37399968658687        2.43293600986692       -0.60156224702137
C          157.08088057517494        1.20690131031213       -0.28819125734160
N          158.41351854327590        1.41159135855859       -0.28900805843693
H          155.33287655810918       -2.59248466128746        0.63703259798349
H          157.21919718282481       -4.44912241615028        1.01354593073400
H          159.10676130635386       -0.78411693720395        0.10058855771329
H          160.94000718146759       -4.67619308396953        2.83048527864653
H          160.91689681643689       -7.12798871327923        3.24764629393303
H          158.92532613622791       -7.85883943985996       -0.27238067637395
H          158.87206972368975       -5.44099792168004       -0.84981453408249
H          162.53992041452307       -4.49480299439293        0.69390058234655
H          164.41799844031974       -2.60335567832458        0.33142540383937
H          164.38724478051864        2.63240241822481       -0.38316837727284
H          162.50093658313682        4.49397590622463       -0.73441294172348