248
 energy: -413.815951666101 gnorm: 0.763081310431 xtb: 6.5.1 (b24c23e)
Zn          39.10989600000000        0.43633300000000        0.32986300000000
C           35.77535300000000        0.31016700000000        0.28820500000000
C           36.43624400000000       -0.85123200000000        0.28897200000000
C           35.78436000000000       -2.15391400000000        0.33936900000000
C           36.72305400000000       -3.08080300000000        0.28451400000000
C           38.02793900000000       -2.41279500000000        0.18526100000000
N           37.85234000000000       -0.99540900000000        0.19963800000000
C           39.21837599999999       -3.03900100000000        0.07039800000000
C           39.26961900000000       -4.51965000000000        0.02111800000000
C           38.79891700000000       -5.18030400000000       -1.04769500000000
C           38.78805700000000       -6.68594400000000       -1.12188700000000
N           39.59171799999999       -7.30340700000000       -0.06376100000000
C           40.03847200000000       -6.57512400000000        1.08456700000000
C           39.88928900000000       -5.25377400000000        1.14119800000000
C           40.50876800000000       -2.30445700000000       -0.00679000000000
C           41.78904800000000       -2.93399000000000       -0.35426500000000
C           42.72355199999999       -2.00652200000000       -0.29398600000000
N           40.65453699999999       -1.04135100000000        0.25245900000000
C           42.04755399999999       -0.77432000000000        0.09182500000000
C           42.64356400000000        0.40535800000000        0.33141700000000
C           41.87954100000000        1.61463900000000        0.70675500000000
C           42.40367400000000        2.67624500000000        1.30668600000000
C           41.36156600000000        3.68209600000000        1.39001300000000
C           40.27163500000000        3.16835800000000        0.83025900000000
N           40.50978100000000        1.83651400000000        0.37269700000000
C           39.00050900000000        3.90911700000000        0.62964500000000
C           39.03973000000000        5.39301100000000        0.63497700000000
C           38.36306299999999        6.09144900000000        1.56199100000000
C           38.33863400000000        7.59850600000000        1.57326900000000
N           39.34542199999999        8.18163100000000        0.68267900000000
C           40.02170600000000        7.41323900000000       -0.31837800000000
C           39.88314500000000        6.08991100000000       -0.35627000000000
C           37.83916500000000        3.26072100000000        0.41609400000000
C           36.53772699999999        3.87371300000000        0.15462900000000
C           35.67442000000000        2.87946100000000        0.07023800000000
C           36.41631999999999        1.63452700000000        0.26233600000000
N           37.67833200000000        1.84460400000000        0.46460800000000
H           34.69212700000000        0.28517600000000        0.30301900000000
H           34.72146299999999       -2.34494300000000        0.41249400000000
H           36.53372200000000       -4.14554600000000        0.30731600000000
H           38.35189000000000       -4.63022900000000       -1.86793500000000
H           39.18536000000000       -7.00203200000000       -2.11014300000000
H           37.73954000000000       -7.03998000000000       -1.03328800000000
H           39.74253400000000       -8.33630000000000       -0.09051700000000
H           40.52021500000000       -7.09993300000000        1.90009400000000
H           40.24848500000000       -4.71175200000000        2.00824200000000
H           41.95644899999999       -3.97061000000000       -0.61640900000000
H           43.77470000000000       -2.16158200000000       -0.49531900000000
H           43.42510400000000        2.78976700000000        1.64499000000000
H           41.46555400000000        4.67732400000000        1.80315600000000
H           37.76345200000000        5.56936200000000        2.29863700000000
H           38.52358400000000        7.95189200000000        2.60936200000000
H           37.33097400000000        7.94205500000000        1.25776000000000
H           39.48810000000000        9.21543400000000        0.69883900000000
H           40.66252300000000        7.91037700000000       -1.03590100000000
H           40.41157500000000        5.51926500000000       -1.11054700000000
H           36.29957699999999        4.92357400000000        0.04696100000000
H           34.61199599999999        2.98186300000000       -0.11128700000000
Zn          84.74982199999999        0.37544000000000        0.32325100000000
C           88.08436500000001        0.50760600000000        0.30964400000000
C           87.42347400000000        1.64177200000000        0.55967600000000
C           88.07535799999999        2.90327500000000        0.88850600000000
C           87.13666399999998        3.82033600000000        1.03387700000000
C           85.83177900000000        3.18920100000000        0.79355600000000
N           86.00737799999999        1.80176300000000        0.50337100000000
C           84.64134099999998        3.82546600000000        0.81577900000000
C           84.59009900000000        5.28218300000000        1.08545400000000
C           85.06080100000000        6.15685000000000        0.18335400000000
C           85.07166099999999        7.64332300000000        0.43406200000000
N           84.26800000000000        8.01927800000000        1.60005900000000
C           83.82124599999999        7.06149200000000        2.56530400000000
C           83.97042900000000        5.75878300000000        2.33700100000000
C           83.35095000000000        3.12460900000000        0.58272800000000
C           82.07067000000001        3.81405200000000        0.37847400000000
C           81.13616600000000        2.89526200000000        0.23827600000000
N           83.20518100000000        1.83529700000000        0.56482100000000
C           81.81216400000000        1.60896800000000        0.35061500000000
C           81.21615299999999        0.40535800000000        0.33141700000000
C           81.98017700000000       -0.85630100000000        0.43844700000000
C           81.45604400000001       -2.02193300000000        0.79653200000000
C           82.49815200000000       -3.02222600000000        0.66202100000000
C           83.58808300000000       -2.40031600000000        0.22558300000000
N           83.34993700000000       -1.00130200000000        0.06455100000000
C           84.85920900000001       -3.08075000000000       -0.12935200000000
C           84.81998800000000       -4.53120400000000       -0.44264800000000
C           85.49665500000000       -5.41233800000000        0.31284800000000
C           85.52108399999999       -6.88669100000000        0.00038800000000
N           84.51429600000000       -7.26506900000000       -0.99460700000000
C           83.83801200000001       -6.29971900000000       -1.80740600000000
C           83.97657300000000       -4.99910000000000       -1.56037500000000
C           86.02055300000001       -2.40163000000000       -0.19875500000000
C           87.32199100000000       -2.94421400000000       -0.58569800000000
C           88.18529800000000       -1.95502200000000       -0.45471700000000
C           87.44339799999999       -0.78033500000000        0.00011700000000
N           86.18138599999999       -1.02893100000000        0.15258400000000
H           89.16759100000000        0.52883500000000        0.32947600000000
H           89.13825500000000        3.07415700000000        1.00092900000000
H           87.32599599999999        4.85536900000000        1.28468400000000
H           85.50782800000000        5.79565200000000       -0.73583700000000
H           84.67435800000000        8.16416300000000       -0.46331600000000
H           86.12017799999998        7.97009100000000        0.59658700000000
H           84.11718399999999        9.03384100000000        1.79562700000000
H           83.33950299999999        7.39902500000000        3.47446900000000
H           83.61123300000000        5.04329200000000        3.06749800000000
H           81.90326799999998        4.88277800000000        0.34494000000000
H           80.08501800000001        3.08992200000000        0.07491800000000
H           80.43461299999998       -2.20542200000000        1.10258500000000
H           82.39416400000000       -4.08293500000000        0.85192000000000
H           86.09626500000000       -5.06053300000000        1.14438600000000
H           85.33613400000000       -7.45422800000000        0.93648200000000
H           86.52874400000000       -7.15451300000000       -0.38150700000000
H           84.37161699999999       -8.27824700000000       -1.20072000000000
H           83.19719499999999       -6.63126100000000       -2.61491100000000
H           83.44814300000000       -4.27985600000000       -2.17458900000000
H           87.56014100000000       -3.94649600000000       -0.91619900000000
H           89.24772199999998       -2.01607500000000       -0.65399000000000
C           48.13663800000000        0.40646100000000        0.33990700000000
C           46.92769800000000        0.39300600000000        0.33145900000000
C           45.50617000000000        0.40182500000000        0.31947600000000
C           44.29450000000000        0.40926400000000        0.33033900000000
C           49.55324200000000        0.39978600000000        0.34044000000000
C           50.77393800000000        0.40926400000000        0.33033900000000
C           62.53370300000000        0.40646100000000        0.33990700000000
C           61.32476399999999        0.39300600000000        0.33145900000000
C           59.90323500000000        0.40182500000000        0.31947600000000
C           58.69156500000000        0.40926400000000        0.33033900000000
C           63.95030700000000        0.39978600000000        0.34044000000000
C           65.17100300000000        0.40926400000000        0.33033900000000
C           76.93076799999999        0.40646100000000        0.33990700000000
C           75.72182900000000        0.39300600000000        0.33145900000000
C           74.30029999999999        0.40182500000000        0.31947600000000
C           73.08862999999999        0.40926400000000        0.33033900000000
C           78.34737199999999        0.39978600000000        0.34044000000000
C           79.56806799999998        0.40926400000000        0.33033900000000
Zn          54.44044700000000        0.08273000000000       -0.22397900000000
C           51.60679600000000       -0.47709100000000       -0.38939000000000
C           51.92602500000000        0.56823100000000       -1.15438800000000
C           51.72186400000000        1.96873400000000       -0.77978700000000
C           52.53101600000000        2.72047600000000       -1.50753700000000
C           53.39599100000000        1.83003900000000       -2.28520200000000
N           52.98121600000000        0.47863800000000       -2.10448200000000
C           54.62852600000000        2.16785300000000       -2.70311200000000
C           54.97319200000000        3.58385400000000       -3.00124600000000
C           54.17963999999999        4.31653300000000       -3.80089900000000
C           54.48818700000000        5.74667900000000       -4.16255000000000
N           55.61654100000000        6.28726100000000       -3.39858700000000
C           56.47470700000000        5.46644000000000       -2.60443800000000
C           56.18469499999999        4.18529400000000       -2.40769100000000
C           55.72918900000000        1.20104000000000       -2.51019100000000
C           56.85914400000000        1.00157200000000       -3.41940600000000
C           57.75616899999999        0.26355300000000       -2.78216600000000
N           55.93987900000000        0.64667400000000       -1.35913900000000
C           57.21676200000000        0.02829500000000       -1.44467900000000
C           57.88025100000000       -0.47709100000000       -0.38939000000000
C           57.27798400000000       -0.52567400000000        0.96607200000000
C           57.95622400000000       -0.53125400000000        2.11033300000000
C           56.98201000000000       -0.58824300000000        3.19235800000000
C           55.77401399999999       -0.62402000000000        2.63510700000000
N           55.87677300000000       -0.58268500000000        1.21023100000000
C           54.48556000000000       -0.76784900000000        3.37484000000000
C           54.49983800000000       -1.20020300000000        4.79535100000000
C           55.07876900000000       -2.36126700000000        5.13978000000000
C           55.14886500000000       -2.82334100000000        6.57205400000000
N           54.20658499999999       -2.10515100000000        7.42874000000000
C           53.67972100000000       -0.82492400000000        7.06365900000000
C           53.82060499999999       -0.37868800000000        5.81521700000000
C           53.31077100000000       -0.60110800000000        2.73514300000000
C           51.98019699999999       -0.99747300000000        3.20248400000000
C           51.17977699999999       -0.92455100000000        2.14730900000000
C           51.97628100000000       -0.43109700000000        1.02532000000000
N           53.20908700000000       -0.25542700000000        1.36516400000000
H           51.04253900000000        2.33746100000000       -0.02336300000000
H           52.63211700000000        3.79114000000000       -1.39984600000000
H           53.30383000000000        3.86486200000000       -4.24942300000000
H           54.72213900000000        5.79916800000000       -5.24892000000000
H           53.58756100000000        6.36801500000000       -3.96485800000000
H           55.85800800000000        7.29251500000000       -3.51464400000000
H           57.35457600000000        5.89433200000000       -2.14762700000000
H           56.83740000000000        3.58885500000000       -1.78374200000000
H           56.96458900000000        1.40068600000000       -4.42048200000000
H           58.71434000000000       -0.04228600000000       -3.18060100000000
H           59.03050699999999       -0.48630800000000        2.22287000000000
H           57.20408100000000       -0.61918400000000        4.25227200000000
H           55.56521599999999       -2.96576100000000        4.38895700000000
H           56.17836300000000       -2.66424500000000        6.95123200000000
H           54.91866300000000       -3.90900400000000        6.61030400000000
H           54.04568999999999       -2.45526400000000        8.40000600000000
H           53.13732599999999       -0.24075300000000        7.78879500000000
H           53.40236200000000        0.58670700000000        5.54869900000000
H           51.70136800000000       -1.36526900000000        4.17997700000000
H           50.13944600000000       -1.20961800000000        2.12520900000000
Zn          68.83751200000000        0.08273000000000       -0.22397900000000
C           66.00386100000000       -0.47709100000000       -0.38939000000000
C           66.32308999999999        0.56823100000000       -1.15438800000000
C           66.11892899999999        1.96873400000000       -0.77978700000000
C           66.92808100000001        2.72047600000000       -1.50753700000000
C           67.79305600000001        1.83003900000000       -2.28520200000000
N           67.37828100000000        0.47863800000000       -2.10448200000000
C           69.02559200000000        2.16785300000000       -2.70311200000000
C           69.37025700000000        3.58385400000000       -3.00124600000000
C           68.57670500000000        4.31653300000000       -3.80089900000000
C           68.88525199999999        5.74667900000000       -4.16255000000000
N           70.01360599999998        6.28726100000000       -3.39858700000000
C           70.87177200000001        5.46644000000000       -2.60443800000000
C           70.58176100000000        4.18529400000000       -2.40769100000000
C           70.12625400000000        1.20104000000000       -2.51019100000000
C           71.25620900000000        1.00157200000000       -3.41940600000000
C           72.15323400000000        0.26355300000000       -2.78216600000000
N           70.33694400000000        0.64667400000000       -1.35913900000000
C           71.61382699999999        0.02829500000000       -1.44467900000000
C           72.27731599999998       -0.47709100000000       -0.38939000000000
C           71.67504899999999       -0.52567400000000        0.96607200000000
C           72.35328900000000       -0.53125400000000        2.11033300000000
C           71.37907499999999       -0.58824300000000        3.19235800000000
C           70.17107900000001       -0.62402000000000        2.63510700000000
N           70.27383799999998       -0.58268500000000        1.21023100000000
C           68.88262600000000       -0.76784900000000        3.37484000000000
C           68.89690400000001       -1.20020300000000        4.79535100000000
C           69.47583400000001       -2.36126700000000        5.13978000000000
C           69.54593000000000       -2.82334100000000        6.57205400000000
N           68.60365000000000       -2.10515100000000        7.42874000000000
C           68.07678600000000       -0.82492400000000        7.06365900000000
C           68.21767000000000       -0.37868800000000        5.81521700000000
C           67.70783600000000       -0.60110800000000        2.73514300000000
C           66.37726200000000       -0.99747300000000        3.20248400000000
C           65.57684200000000       -0.92455100000000        2.14730900000000
C           66.37334600000000       -0.43109700000000        1.02532000000000
N           67.60615199999999       -0.25542700000000        1.36516400000000
H           65.43960400000000        2.33746100000000       -0.02336300000000
H           67.02918200000001        3.79114000000000       -1.39984600000000
H           67.70089500000000        3.86486200000000       -4.24942300000000
H           69.11920399999998        5.79916800000000       -5.24892000000000
H           67.98462600000001        6.36801500000000       -3.96485800000000
H           70.25507299999998        7.29251500000000       -3.51464400000000
H           71.75164100000001        5.89433200000000       -2.14762700000000
H           71.23446499999999        3.58885500000000       -1.78374200000000
H           71.36165399999999        1.40068600000000       -4.42048200000000
H           73.11140500000000       -0.04228600000000       -3.18060100000000
H           73.42757200000000       -0.48630800000000        2.22287000000000
H           71.60114600000000       -0.61918400000000        4.25227200000000
H           69.96228099999999       -2.96576100000000        4.38895700000000
H           70.57542800000000       -2.66424500000000        6.95123200000000
H           69.31572799999999       -3.90900400000000        6.61030400000000
H           68.44275500000001       -2.45526400000000        8.40000600000000
H           67.53439100000000       -0.24075300000000        7.78879500000000
H           67.79942699999998        0.58670700000000        5.54869900000000
H           66.09843300000000       -1.36526900000000        4.17997700000000
H           64.53651200000000       -1.20961800000000        2.12520900000000
248
 energy: -414.124155223304 gnorm: 0.484379885554 xtb: 6.5.1 (b24c23e)
Zn          39.11376594895858        0.43359245991046        0.32983608671752
C           35.77543899091402        0.32708563672752        0.28746812027936
C           36.44113884903815       -0.85266812218854        0.28883310632770
C           35.78390067763563       -2.14779231033274        0.33921414307446
C           36.73274995422142       -3.08327261448536        0.28347047309619
C           38.02707291951091       -2.40815143636643        0.18570486448159
N           37.83154992600657       -1.01599459073365        0.20274788885454
C           39.23477023764316       -3.03469973274242        0.07147017840533
C           39.27620687564460       -4.51793751454771        0.02188996444888
C           38.79929312910927       -5.18111447815329       -1.04113521026591
C           38.79034352396990       -6.68810333621923       -1.11776424763994
N           39.59953220549193       -7.30152948519089       -0.05442010008682
C           40.03263539746258       -6.58008791606507        1.07181625233018
C           39.88811583969038       -5.24910783009287        1.13616899058373
C           40.50414614160409       -2.32037809304632       -0.00635178222594
C           41.77714427795676       -2.94607479058294       -0.35361151213913
C           42.72332403524621       -2.00293497223795       -0.29227143218606
N           40.67181136936073       -1.03833330330035        0.24413102265447
C           42.05776972427499       -0.77460822790304        0.09131095794185
C           42.66813268582221        0.41638113209824        0.33915926847365
C           41.88292815553185        1.60622919492390        0.69335440738687
C           42.40798506703729        2.69967630147208        1.31277275691558
C           41.38416303214213        3.68424176965142        1.39321592885879
C           40.26552994296933        3.15750387249425        0.81814714814603
N           40.52171471546050        1.83827528656117        0.38181130603852
C           39.01611958310127        3.89988589961042        0.62635223336816
C           39.04856059819046        5.38726154309649        0.63608563413140
C           38.36518164306302        6.09001318581212        1.55452171130235
C           38.34229007547979        7.59950956736731        1.56965233160367
N           39.35488400499595        8.17906151329719        0.67512806144164
C           40.01265196606976        7.41792341374112       -0.30728999643216
C           39.88060880949983        6.08452412185571       -0.35147798369906
C           37.83787103077920        3.26058624498131        0.41498513662654
C           36.54438989876870        3.87298059265890        0.15664050155989
C           35.66376189115935        2.86880035420216        0.07050006579519
C           36.39569087899657        1.62752627835334        0.26305823976289
N           37.67506284162997        1.85744982275571        0.45931624713267
H           34.69221692916280        0.29119795268195        0.30189196007668
H           34.72157854046038       -2.33674576797175        0.41243009529504
H           36.54406522521906       -4.14685608416399        0.30674761414775
H           38.35348745124151       -4.63528959741446       -1.86776264182687
H           39.18306953064662       -7.00367841957384       -2.10420574343741
H           37.74245587507861       -7.04180558597194       -1.03624776919958
H           39.73949115362363       -8.31827519878071       -0.08724560175483
H           40.51631099371954       -7.10861455133942        1.88916895792326
H           40.24656937052772       -4.70977443818590        2.00532330051135
H           41.94813580810345       -3.97659024286655       -0.61613057398015
H           43.77406006682300       -2.15355315837219       -0.49356173405513
H           43.42647577292781        2.79690986244618        1.64922305138787
H           41.47143423964317        4.67710095078141        1.80593378166686
H           37.76498243677450        5.57420522710026        2.29845971819387
H           38.52255226555446        7.95339029033950        2.60324245342102
H           37.33373064769157        7.94347629700318        1.26104274672257
H           39.48574622889642        9.19722286278888        0.69591139270303
H           40.65630920200404        7.91898212012409       -1.02602224087224
H           40.40939839143602        5.51716101641100       -1.10800894973829
H           36.30919635469937        4.92280289701196        0.04826785955939
H           34.60722620522606        2.97497317363039       -0.11173181616794
Zn          84.74589687377328        0.37813150914326        0.32385033273410
C           88.08430494507711        0.49121215716331        0.30528481401080
C           87.41855130891093        1.64319394399883        0.55985693099822
C           88.07581020245952        2.89731600858402        0.88704115089500
C           87.12696100339525        3.82298710655915        1.03339034244125
C           85.83263736649502        3.18465425440902        0.79297806135503
N           86.02820182824519        1.82116761725508        0.51081345144623
C           84.62506403639371        3.82105341673914        0.81592783663346
C           84.58352329892688        5.28032013246593        1.08584497042831
C           85.06039610038836        6.15622555137739        0.18993975956661
C           85.06939159960504        7.64454690791961        0.43855614359775
N           84.26017457316080        8.01548148924719        1.60873540546429
C           83.82706597401634        7.06902105670227        2.55395384673154
C           83.97160150594227        5.75532186343461        2.33108540523365
C           83.35549652498112        3.14012752285517        0.58658576822771
C           82.08272641390074        3.82576945254409        0.38169118010096
C           81.13646763443754        2.89133721040318        0.23919850888263
N           83.18785884691881        1.83419996568604        0.55598859872501
C           81.80197986508243        1.60959903024572        0.34996465996267
C           81.19042741382327        0.39346678082780        0.33707044103372
C           81.97642657174889       -0.84502507426614        0.42730927675752
C           81.45166748308665       -2.04606187794428        0.79746645910506
C           82.47555110375700       -3.02497357006269        0.66468734799540
C           83.59412012768883       -2.38706387133278        0.21607674597601
N           83.33779096458268       -1.00485654984741        0.07304152985477
C           84.84358623135816       -3.07099861693146       -0.13058747675283
C           84.81115031174905       -4.52581063881105       -0.44032328228494
C           85.49452209625854       -5.40932419956098        0.30586245105266
C           85.51742803882647       -6.88689347336908       -0.00336175916642
N           84.50485176874996       -7.26095044220080       -1.00143224011878
C           83.84705468699623       -6.30665795600922       -1.79758715191385
C           83.97911985780183       -4.99487119308983       -1.55453989994003
C           86.02183922407382       -2.40127123713124       -0.19980143656799
C           87.31531603604914       -2.94393315452188       -0.58357590999660
C           88.19595722059252       -1.94465523305832       -0.45216865973222
C           87.46404296056340       -0.77363011008368        0.00233365829535
N           86.18465626668950       -1.04033859549452        0.14464380527230
H           89.16752275463472        0.52319011265845        0.32707743625169
H           89.13814715860909        3.06616179449482        0.99910763647316
H           87.31566678789397        4.85678733734384        1.28441755315450
H           85.50623640840507        5.80056198023352       -0.73457187153255
H           84.67665349614957        8.16451423721820       -0.45717424214745
H           86.11727957721968        7.97253496494770        0.59408869491898
H           84.12024587309033        9.01555102095601        1.79496060557503
H           83.34340251236556        7.40984836016105        3.46568394945889
H           83.61315196832221        5.04199545659001        3.06421859997456
H           81.91161936825138        4.88859997023543        0.34649465087711
H           80.08567215730864        3.08165047280317        0.07494248411026
H           80.43323065960595       -2.21333235776898        1.10520337808031
H           82.38829278943574       -4.08329832374304        0.85467584836481
H           86.09473461438786       -5.06522563098691        1.14317144285042
H           85.33716669691545       -7.45438424338312        0.93018504261675
H           86.52599766528922       -7.15661824753661       -0.37860627187037
H           84.37396133392211       -8.25983515670985       -1.19966456156057
H           83.20340320197352       -6.64178642179104       -2.60711158895437
H           83.45031843857952       -4.27834803634013       -2.17165437411394
H           87.55052254406229       -3.94603126951122       -0.91475874733244
H           89.25250285036455       -2.00925224415567       -0.65294519949940
C           48.12480048954154        0.41689118511265        0.34357857762258
C           46.89624589245996        0.39712806796733        0.33170934702668
C           45.49299412289140        0.40037456461337        0.32011828207172
C           44.25987450577318        0.41746357258783        0.33063274135052
C           49.48461169163296        0.39872147914567        0.35451986148335
C           50.71997444779782        0.38256125527260        0.34675913205344
C           62.54325385985562        0.42092432008772        0.34234849683883
C           61.31508634335738        0.40755842464293        0.34834329129542
C           59.97017512082703        0.40929109086263        0.30969739551741
C           58.73057676018348        0.41242235036729        0.29306714285949
C           63.88574475035448        0.39896095763921        0.35273162011247
C           65.12391152439308        0.38158162440169        0.34785598723375
C           76.96356679629362        0.41081526792780        0.34023435673843
C           75.73387336394525        0.40555609549704        0.34886260097453
C           74.37207295532620        0.40953283927971        0.30749293717617
C           73.13557783043264        0.41485661036348        0.29224620326520
C           78.36433061528730        0.39628672242642        0.33747955250982
C           79.59948205661395        0.39916723003265        0.32958294337979