181
 energy: -326.110240882023 gnorm: 0.624471503514 xtb: 6.5.1 (b24c23e)
Co          29.49763500000000        0.02854900000000       -0.02285800000000
C           26.16735000000000       -0.12218100000000       -0.17265500000000
C           26.83347200000000       -1.27924400000000       -0.13947800000000
C           26.18438099999999       -2.58453100000000       -0.12814000000000
C           27.12411600000000       -3.50485000000000       -0.02491400000000
C           28.42869200000000       -2.82970700000000        0.02780100000000
N           28.25090500000000       -1.41468500000000       -0.04792800000000
C           29.61738000000000       -3.45010800000000        0.17551800000000
C           29.65235400000000       -4.92518200000000        0.28851900000000
C           29.45973600000000       -5.72632400000000       -0.84751400000000
C           29.48549100000000       -7.11964600000000       -0.73680500000000
C           29.70824900000000       -7.72261200000000        0.50907400000000
O           29.73404500000000       -9.10967800000000        0.63171400000000
C           29.90555000000000       -6.92507300000000        1.64174200000000
C           29.87635700000000       -5.53145900000000        1.53403700000000
C           30.91280400000000       -2.72147800000000        0.23865500000000
C           32.20679500000000       -3.37696600000000        0.46568500000000
C           33.14191600000000       -2.45070100000000        0.42246000000000
N           31.05229900000000       -1.44307300000000        0.05609800000000
C           32.45478300000000       -1.19207500000000        0.16007000000000
C           33.05154600000000       -0.00114300000000       -0.01898900000000
C           32.29635900000000        1.24418500000000       -0.29601600000000
C           32.85287900000000        2.37121400000000       -0.72058600000000
C           31.80852399999999        3.37339000000000       -0.78360900000000
C           30.68038800000000        2.79506500000000       -0.39152100000000
N           30.89695100000000        1.42005000000000       -0.06606000000000
C           29.38273900000000        3.50643800000000       -0.25807000000000
C           29.39199600000000        4.98789400000000       -0.20790900000000
C           30.00699699999999        5.64994800000000        0.86662100000000
C           30.02477900000000        7.04660400000000        0.91618100000000
C           29.43763100000000        7.79325700000000       -0.10940100000000
O           29.45727100000000        9.18398900000000       -0.04303400000000
C           28.83659000000000        7.13629700000000       -1.19314600000000
C           28.81511600000000        5.73988600000000       -1.24315200000000
C           28.21413099999999        2.84336300000000       -0.17200800000000
C           26.89160000000000        3.44510600000000       -0.01045600000000
C           26.03204300000000        2.44528700000000        0.00101900000000
C           26.79586400000000        1.20741600000000       -0.13938800000000
N           28.06921400000000        1.42643400000000       -0.24168600000000
H           25.08419000000000       -0.15463100000000       -0.19903300000000
H           25.12098800000000       -2.78078100000000       -0.17728300000000
H           26.93618800000000       -4.56968200000000        0.02275600000000
H           29.28663900000000       -5.27081700000000       -1.81504300000000
H           29.33195100000000       -7.72916400000000       -1.61833900000000
H           29.58818900000000       -9.71451800000000       -0.16875400000000
H           30.07957800000000       -7.38600800000000        2.60613600000000
H           30.02837700000000       -4.92486700000000        2.41855900000000
H           32.38729500000000       -4.43086100000000        0.63259900000000
H           34.20259600000000       -2.62505100000000        0.54803800000000
H           33.89589500000000        2.53204900000000       -0.95670400000000
H           31.93551900000000        4.40615400000000       -1.07965100000000
H           30.46314700000000        5.08375800000000        1.66862600000000
H           30.49052700000000        7.54922400000000        1.75532900000000
H           29.03391900000000        9.75339900000000       -0.76741000000000
H           28.38768100000000        7.70662300000000       -1.99608200000000
H           28.35215000000000        5.24370800000000       -2.08849800000000
H           26.63910500000000        4.49263500000000        0.08658800000000
H           24.95906600000000        2.53891000000000        0.10691400000000
Co          59.66448799999999       -0.03108200000000       -0.01855800000000
C           62.99477300000000        0.09659700000000       -0.18843100000000
C           62.32865100000000        1.24644800000000       -0.32160600000000
C           62.97774200000000        2.53985800000000       -0.49766100000000
C           62.03800699999999        3.46546600000000       -0.52754600000000
C           60.73343100000000        2.80487100000000       -0.37851000000000
N           60.91121800000000        1.39362400000000       -0.25043600000000
C           59.54474300000000        3.44004700000000       -0.32133300000000
C           59.50976900000000        4.91607300000000       -0.42113700000000
C           59.70238799999999        5.54593400000000       -1.66036000000000
C           59.67663199999999        6.94072500000000       -1.75070300000000
C           59.45387400000000        7.71620500000000       -0.60422300000000
O           59.42807800000000        9.10651600000000       -0.68186100000000
C           59.25657300000000        7.08942500000000        0.63115200000000
C           59.28576600000000        5.69477700000000        0.72451000000000
C           58.24931900000000        2.72801400000000       -0.15431000000000
C           56.95532799999999        3.40929300000000       -0.02367400000000
C           56.02020699999999        2.48640900000000        0.06644300000000
N           58.10982400000000        1.43664200000000       -0.15155900000000
C           56.70734100000000        1.20315900000000       -0.01265100000000
C           56.11057700000000       -0.00114300000000       -0.01898900000000
C           56.86576400000000       -1.27333200000000       -0.11447800000000
C           56.30924400000000       -2.44961600000000       -0.37295400000000
C           57.35359900000000       -3.45046600000000       -0.29153900000000
C           58.48173500000000       -2.82186900000000        0.01351700000000
N           58.26517199999999       -1.41438500000000        0.13833100000000
C           59.77938400000000       -3.50673500000000        0.24765200000000
C           59.77012700000000       -4.96566800000000        0.50984500000000
C           59.15512600000000       -5.46670400000000        1.66824600000000
C           59.13734400000000       -6.84180000000000        1.91767800000000
C           59.72449200000000       -7.72787300000000        1.00983200000000
O           59.70485200000000       -9.09469400000000        1.27504700000000
C           60.32553399999999       -7.23320000000000       -0.15695700000000
C           60.34700699999999       -5.85841100000000       -0.40679600000000
C           60.94799200000000       -2.83817300000000        0.23769000000000
C           62.27052300000000       -3.41051100000000        0.48390500000000
C           63.13008099999999       -2.41939100000000        0.35181200000000
C           62.36625900000000       -1.21447100000000        0.03525500000000
N           61.09290900000000       -1.44590100000000       -0.03456100000000
H           64.07793300000000        0.12492700000000       -0.21919200000000
H           64.04113500000000        2.72702700000000       -0.57445300000000
H           62.22593499999999        4.52612000000000       -0.63314500000000
H           59.87548399999999        4.95632400000000       -2.55252500000000
H           59.83017199999999        7.41745900000000       -2.71056600000000
H           59.57393400000000        9.59025100000000       -1.56082700000000
H           59.08254500000000        7.68395800000000        1.51943600000000
H           59.13374600000000        5.22136800000000        1.68691100000000
H           56.77482800000000        4.47623300000000       -0.00969400000000
H           54.95952700000000        2.67697300000000        0.16570700000000
H           55.26622800000000       -2.64266400000000       -0.58355400000000
H           57.22660500000000       -4.51502000000000       -0.43634300000000
H           58.69897699999999       -4.79130500000000        2.38072000000000
H           58.67159600000000       -7.21882300000000        2.82025800000000
H           60.12820399999999       -9.76214300000000        0.63986200000000
H           60.77444199999999       -7.91282600000000       -0.86975900000000
H           60.80997300000000       -5.48865100000000       -1.31458400000000
H           62.52301800000000       -4.43328000000000        0.73023800000000
H           64.20305700000000       -2.49685100000000        0.47004400000000
C           36.84577900000000        0.01158900000000       -0.01646400000000
C           35.59350800000000       -0.00759200000000       -0.02081300000000
C           38.15944700000000        0.01082300000000       -0.01453200000000
C           39.66258100000000       -0.00759200000000       -0.02081300000000
C           50.83788300000000        0.01158900000000       -0.01646400000000
C           49.58561200000000       -0.00759200000000       -0.02081300000000
C           52.15155100000000        0.01082300000000       -0.01453200000000
C           53.65468500000000       -0.00759200000000       -0.02081300000000
Co          44.55696600000000        0.02243400000000       -0.03233800000000
C           41.13537200000000        0.00339100000000        0.04156600000000
C           41.79231300000000        0.98376900000000        0.68918800000000
C           41.15289500000000        2.03799200000000        1.47967200000000
C           42.09263399999999        2.84438700000000        1.93286200000000
C           43.38947000000000        2.35473400000000        1.45821000000000
N           43.20940000000000        1.17352800000000        0.67331100000000
C           44.57409400000000        2.95023300000000        1.70586000000000
C           44.60486600000000        4.20856700000000        2.48047500000000
C           44.90716700000000        4.18440600000000        3.85359200000000
C           44.94967800000000        5.37758700000000        4.58269800000000
C           44.69826699999999        6.60057700000000        3.94419700000000
O           44.74729400000000        7.78220200000000        4.68118400000000
C           44.39957100000000        6.62602600000000        2.57089000000000
C           44.35282900000000        5.43415500000000        1.84136700000000
C           45.87282500000000        2.41003700000000        1.23441300000000
C           47.14284499999999        3.14059600000000        1.32875300000000
C           48.09635700000000        2.35155700000000        0.87634500000000
N           46.04050900000000        1.22033600000000        0.74520200000000
C           47.44095599999999        1.10800600000000        0.49087400000000
C           48.05706200000000        0.00339100000000        0.04156600000000
C           47.30767300000000       -1.21149000000000       -0.34639700000000
C           47.84680699999999       -2.41791100000000       -0.47159900000000
C           46.81327700000000       -3.29808900000000       -0.98219000000000
C           45.71405500000000       -2.56775900000000       -1.13745000000000
N           45.93585100000000       -1.21535400000000       -0.74087900000000
C           44.45582200000000       -3.06337900000000       -1.74771300000000
C           44.51866500000000       -4.26018400000000       -2.62200400000000
C           43.84154199999999       -5.44086600000000       -2.26789500000000
C           43.90767400000000       -6.56555600000000       -3.09711600000000
C           44.65123700000000       -6.52151100000000       -4.28525200000000
O           44.72015700000000       -7.63334800000000       -5.12157700000000
C           45.33229599999999       -5.35032900000000       -4.63581900000000
C           45.27127400000000       -4.22522600000000       -3.80659600000000
C           43.28057999999999       -2.43266200000000       -1.55400400000000
C           42.00373200000000       -2.78735700000000       -2.16873700000000
C           41.11546600000000       -1.94590800000000       -1.68042900000000
C           41.81319599999999       -1.04553800000000       -0.75448700000000
N           43.07925000000000       -1.32217300000000       -0.67838900000000
H           40.09670000000000        2.16357500000000        1.67496400000000
H           41.91057700000000        3.71477700000000        2.55104600000000
H           45.10635900000000        3.24385200000000        4.35692300000000
H           45.17999300000000        5.35259000000000        5.64311800000000
H           44.55974899999999        8.68364200000000        4.24500000000000
H           44.20617000000000        7.56756400000000        2.06843800000000
H           44.12552200000000        5.46440800000000        0.78065300000000
H           47.29169099999999        4.14612100000000        1.70205300000000
H           49.14715200000000        2.60393800000000        0.81921600000000
H           48.87363900000000       -2.69269900000000       -0.26763400000000
H           46.93126500000000       -4.34532600000000       -1.22949800000000
H           43.26535799999999       -5.48771600000000       -1.35105500000000
H           43.38015300000000       -7.46915500000000       -2.81609600000000
H           44.25298700000000       -8.50175800000000       -4.88582600000000
H           45.90957399999999       -5.31180400000000       -5.55112300000000
H           45.80184999999999       -3.32459000000000       -4.09172500000000
H           41.79990800000000       -3.56896700000000       -2.89011800000000
H           40.06488000000000       -1.93502100000000       -1.94061000000000
181
 energy: -326.319587676962 gnorm: 0.387202149856 xtb: 6.5.1 (b24c23e)
Co          29.51421310517526        0.01716202031875       -0.03164100154382
C           26.16771025018332       -0.10316408753186       -0.17195563263291
C           26.84175063724556       -1.27613163603279       -0.13865498156553
C           26.18712364179308       -2.57487350903984       -0.12911430583269
C           27.13857976178127       -3.50382067118598       -0.02460211650076
C           28.43217880677577       -2.81791140776842        0.02727202838571
N           28.23822293577952       -1.42137200705813       -0.04541587735202
C           29.63560879065796       -3.44401609629971        0.17765001961400
C           29.65896790185245       -4.92750400608768        0.28849689304392
C           29.45977259987430       -5.72989175455922       -0.84124128650134
C           29.48518032271994       -7.11879040991909       -0.73525681782041
C           29.70694988243276       -7.72867046407971        0.50265154374180
O           29.73461578487096       -9.10374885756139        0.63482709413003
C           29.90422146286258       -6.92960104905418        1.63564335162458
C           29.87804002961257       -5.53994542127817        1.52745304801304
C           30.90510918712539       -2.73351326858541        0.24012192757986
C           32.19166103452049       -3.38678700132363        0.46365177664872
C           33.13964008834684       -2.44215870730793        0.42224165793714
N           31.05836344795967       -1.43288131359179        0.05848758012400
C           32.46563379846375       -1.18341086968169        0.15909272225285
C           33.04387490935405        0.01745294731311       -0.02402776117689
C           32.29409159389211        1.22866851661027       -0.28599916015597
C           32.85622660114139        2.39356002709191       -0.72541742861179
C           31.83177707939914        3.37398211799107       -0.78345072059366
C           30.67013556712267        2.77828126533463       -0.38037370173830
N           30.89381241805600        1.41406421664185       -0.07287679922194
C           29.39971183401686        3.49457346672338       -0.25692945446845
C           29.40323049768311        4.98502744983589       -0.21259698199567
C           30.00634436917464        5.65611985775415        0.85930364890846
C           30.02055144534916        7.04935805195237        0.91103983718801
C           29.43388400570240        7.79869009827571       -0.11547945946689
O           29.45885338946817        9.17772830639225       -0.04062745689159
C           28.83674863425607        7.13446800105138       -1.19124477827012
C           28.81727057755177        5.74177769813172       -1.23707742286691
C           28.21746594596200        2.83614354160031       -0.16998042063085
C           26.90218347299521        3.44033999773170       -0.01189117789059
C           26.02333063289337        2.43026815247844       -0.00114794029415
C           26.77950598550006        1.19535347663410       -0.13906519516538
N           28.07654878796470        1.42626435459979       -0.23004517188743
H           25.08473706308979       -0.14612882804365       -0.19852086519433
H           25.12326082350018       -2.76872855286923       -0.17832502198540
H           26.95236409368480       -4.56877327095460        0.02314067152835
H           29.28786641389512       -5.27153176050018       -1.81052041349830
H           29.33212291026268       -7.72902913335588       -1.61790443946395
H           29.59050391538857       -9.68062906712812       -0.15649666799267
H           30.07857875526005       -7.38827702045007        2.60269028935277
H           30.02762089671849       -4.92916356066867        2.41373773068292
H           32.37455744740200       -4.43640585091704        0.63195498704006
H           34.20054017497392       -2.61109426343865        0.54596035974016
H           33.89769854015443        2.53978254610663       -0.95892144832040
H           31.94331865439207        4.40536572547965       -1.08094230867657
H           30.46137656472277        5.08701242411655        1.66453632589855
H           30.48844991619113        7.55048244434466        1.75183660178153
H           29.04134535901751        9.72017906997061       -0.75570470908759
H           28.38785718524349        7.70607300686317       -1.99550687443065
H           28.35460005103183        5.24437046959468       -2.08445483420594
H           26.65369616319688        4.48955700593276        0.08488438573565
H           24.95462406885449        2.52821024428038        0.10590502086278
Co          59.64794848041236       -0.02108693213985       -0.02876871634397
C           62.99441481389808        0.07790194028309       -0.18499776873640
C           62.32040561752976        1.24349805525117       -0.32030543747815
C           62.97500282245424        2.53017335411767       -0.49723307515364
C           62.02350594804170        3.46446910595538       -0.52707447754514
C           60.72989271839863        2.79299034245168       -0.37736197739848
N           60.92392193719414        1.40060233624156       -0.24897675864546
C           59.52622217464817        3.43406402829629       -0.31840541971545
C           59.50307758094815        4.91826986556367       -0.42148268244596
C           59.70234914678186        5.55033106504325       -1.65464781549567
C           59.67694736818805        6.94007648800263       -1.74903755651841
C           59.45516297468239        7.72127894469859       -0.61145261132557
O           59.42753779094161        9.10107115187049       -0.67792105013855
C           59.25790732229686        7.09301632035513        0.62446266608232
C           59.28408050678627        5.70220111811264        0.71677591818358
C           58.25670719556329        2.73965874900229       -0.15460088027634
C           56.97035822630108        3.41866554505897       -0.02702606995520
C           56.02204376455385        2.47825399433450        0.06741555152374
N           58.10234155539804        1.42603718715178       -0.14741643424574
C           56.69445971625576        1.19431431647786       -0.01234410275371
C           56.11222338956282       -0.02009374241987       -0.02137302696231
C           56.86609833716387       -1.25633224101446       -0.10656520432475
C           56.30538881895908       -2.47263396429505       -0.37449514997680
C           57.33022548317555       -3.45089168905609       -0.29133030584732
C           58.49164995328302       -2.80326903677835        0.02216531288768
N           58.26704942773421       -1.40875244368382        0.13042651232177
C           59.76225611928201       -3.49467188049019        0.24707449852063
C           59.75884590677823       -4.96343868630492        0.50478936462555
C           59.15576121358858       -5.47385160879496        1.66189472131755
C           59.14157574992662       -6.84525003023720        1.91298828621226
C           59.72822631165607       -7.73412642305352        1.00459229433126
O           59.70331041594072       -9.08811315985698        1.27653390192135
C           60.32537377041963       -7.23109598170925       -0.15533540402876
C           60.34485679396722       -5.85937749000317       -0.40050325731998
C           60.94459274620227       -2.83068593323393        0.23864700336073
C           62.25990200762063       -3.40598775212241        0.48178966600295
C           63.13877599932695       -2.40484489157350        0.34750386263142
C           62.38260556959258       -1.20248946436971        0.03384848814780
N           61.08557931791011       -1.44401302898179       -0.02306318949497
H           64.07738699983368        0.11658852510340       -0.21747776598224
H           64.03886092710242        2.71496258320223       -0.57376217019926
H           62.20972891617409        4.52525980369578       -0.63262970975725
H           59.87425017743512        4.95767450111346       -2.54815119301197
H           59.82999679081352        7.41736898776875       -2.71010819474323
H           59.57159447860697        9.55846546097434       -1.54383615156660
H           59.08354394349334        7.68569885279690        1.51569641664943
H           59.13449793254811        5.22492304481260        1.68153030067038
H           56.78763293594029        4.48159816497856       -0.01112791755083
H           54.96126028831395        2.66300231645028        0.16565867813141
H           55.26409583913219       -2.65084778914830       -0.58464458969622
H           57.21885817140409       -4.51433462813680       -0.43774122175378
H           58.70073847755000       -4.79511396684847        2.37714774385180
H           58.67367122029135       -7.22056060911474        2.81697652130926
H           60.12075268590215       -9.72758806455322        0.64667712435912
H           60.77426165448669       -7.91218202647028       -0.86927013811660
H           60.80751938592191       -5.48871778414085       -1.31049208224704
H           62.50840491202017       -4.43046603853758        0.72810365688320
H           64.20748542969950       -2.48640879043578        0.46751409007861
C           36.87018976347115        0.01118848065931       -0.01807928054469
C           35.60708985827480       -0.00552123908806       -0.02108743642334
C           38.23827869351111        0.00903207284823       -0.01067396994866
C           39.59149548537693       -0.00776462475818       -0.01750533027087
C           50.85694002885668        0.00796408264351       -0.01608727742648
C           49.59106352107325       -0.01495402783383       -0.01995464585547
C           52.22343782461702        0.00930158078450       -0.01536641342871
C           53.56190584945384       -0.00663597602579       -0.02123993628023
Co          44.55299643449159        0.01843250119685       -0.02957563399341
C           41.07350395535180       -0.00532513484001        0.02076053951485
C           41.78392930282786        0.98182808075516        0.68650823615994
C           41.15240253129317        2.02870110069749        1.47336995275277
C           42.10619440337977        2.84355167152454        1.93122688295084
C           43.38952349305183        2.34422713179147        1.45144620426736
N           43.18932281546313        1.16881815601607        0.68320606136301
C           44.58928113130378        2.94587479841312        1.70064969467736
C           44.61077510101185        4.21183619029519        2.48095942712942
C           44.90692543752616        4.19560511651885        3.85032800018103
C           44.94775772725708        5.38499513833120        4.57788698742869
C           44.69643705704117        6.60883407585924        3.94091183474203
O           44.74744678261461        7.77561669550971        4.67991647495512
C           44.39984278024090        6.62448272569824        2.57307905100167
C           44.35425906455112        5.43492155472840        1.84932266083788
C           45.86532752554757        2.42164422480974        1.24179954423322
C           47.12545968545259        3.14899919866281        1.33756436995579
C           48.09179189435857        2.34442786917087        0.87446072511921
N           46.04967804576687        1.21717022896501        0.72782532631634
C           47.44718822521925        1.10723342393131        0.48852458241205
C           48.08832412480942       -0.01128764823405        0.03499616396020
C           47.30654449117461       -1.19517761581037       -0.35235009995878
C           47.84959298077672       -2.43722965317750       -0.48061245682417
C           46.83272742371971       -3.29895796029002       -0.98311645312145
C           45.70478969697448       -2.54725671425356       -1.14048482864451
N           45.93486172412246       -1.21410690424122       -0.71795273701309
C           44.46966154526105       -3.05210733912372       -1.74256700382818
C           44.52656793901576       -4.26008746293927       -2.61611786462688
C           43.84408165898594       -5.43831511865064       -2.27427247555739
C           43.90820048767278       -6.56216107887614       -3.09706955969893
C           44.64758577381982       -6.52897895060184       -4.28339314647067
O           44.72211523524393       -7.62619032099832       -5.11942659107668
C           45.32802287097856       -5.35552989385142       -4.63281783244360
C           45.26991058404770       -4.23493968135694       -3.80397056534282
C           43.28094258002775       -2.42555515599830       -1.55054559057567
C           42.01291602701292       -2.78503488503502       -2.16380019040342
C           41.10275099329895       -1.93579594695874       -1.67148470747223
C           41.78382039724164       -1.03903662819972       -0.74994000924724
N           43.07592227231660       -1.31157700929057       -0.68864502835002
H           40.09616217955511        2.15207050295111        1.66701435831671
H           41.92621714988156        3.71413104667229        2.54881471567942
H           45.10505931337583        3.25116201195168        4.35299627715208
H           45.17857384323997        5.35659736213594        5.63882029798021
H           44.56274916904312        8.64640667603669        4.24129065419950
H           44.20651442275576        7.56635865590229        2.07024576900806
H           44.12686689330452        5.46291433169565        0.78664977625095
H           47.27828748776866        4.15074208721514        1.70628530859329
H           49.14345280502514        2.59206278968434        0.81501937941364
H           48.87350262330548       -2.70153208884004       -0.26911556289037
H           46.93717709112343       -4.34544646012229       -1.22693855756531
H           43.26856955131581       -5.48596135051429       -1.35448276039708
H           43.38100593239425       -7.46750768504526       -2.81594616674097
H           44.26015946004667       -8.46741112376347       -4.87621212795305
H           45.90687404036380       -5.31462409463151       -5.54930327557119
H           45.79936392817793       -3.33025738145454       -4.09027132599328
H           41.81418405774755       -3.56760601325031       -2.88527995830272
H           40.05779745215810       -1.92618212253982       -1.93354339744597
181
 energy: -326.393372577514 gnorm: 0.384518340872 xtb: 6.5.1 (b24c23e)
Co          29.53922036995687        0.00860730287552       -0.03467867453418
C           26.17239738462757       -0.08173955981797       -0.17027011163465
C           26.85452929929654       -1.27594837452186       -0.13827547894006
C           26.19311367408596       -2.56396106880382       -0.12972696990753
C           27.15528065259929       -3.50012805821713       -0.02454728424474
C           28.43371256579664       -2.80389444561056        0.02625732288200
N           28.22270757745793       -1.43277688005935       -0.04430319426154
C           29.65757121005834       -3.43375458327590        0.18001133215726
C           29.66449715269822       -4.92704669429794        0.28837206138223
C           29.46052660485485       -5.73178484742342       -0.83555034723039
C           29.48460931472907       -7.11778905310468       -0.73400785162499
C           29.70576490220898       -7.73524721119257        0.49694307303225
O           29.73571828675536       -9.09614354216484        0.64050655707681
C           29.90300925482597       -6.93318203552791        1.62991152990215
C           29.87991357317621       -5.54770476685609        1.52151594885333
C           30.89516556746515       -2.74655934152851        0.24132383276082
C           32.17480360421466       -3.39008087811309        0.46060403040684
C           33.13151928529681       -2.43281294968757        0.42163289061351
N           31.06304087466580       -1.41716273946506        0.05746572359160