181
 energy: -326.904486492528 gnorm: 0.000495622949 xtb: 6.5.1 (b24c23e)
Co          31.19833813845953       -0.02284014231325       -0.07131831163488
C           27.82934090853133       -0.06142156700616       -0.30494729231563
C           28.50826641979571       -1.25197797029139       -0.44487206411120
C           27.85930822041063       -2.50945473476220       -0.65914111313650
C           28.80842823437966       -3.46386693548080       -0.51914524643647
C           30.04125916775409       -2.78702899958053       -0.24045180902325
N           29.85334227780778       -1.42808484332197       -0.23432541611825
C           31.22042241608403       -3.43249094255164        0.10592457358473
C           31.22679229068111       -4.91159699041654        0.22025059117464
C           31.01118101256615       -5.71299039630640       -0.90036917606641
C           31.01862652333152       -7.09542656536279       -0.79290041837770
C           31.23832436078047       -7.69108055924970        0.44681743123876
O           31.25069818794877       -9.04104482519874        0.59726995679236
C           31.45434251953558       -6.90074215070473        1.57411696052660
C           31.45098925250262       -5.52203847479539        1.45605636448071
C           32.39819114508594       -2.73806275547839        0.33362095111213
C           33.65169265964907       -3.37363194766271        0.61068865235891
C           34.60152485678586       -2.41085109340135        0.54639572680108
N           32.57673633013103       -1.38549959601332        0.14680764869374
C           33.92664242255724       -1.18982544494175        0.23840011367285
C           34.59361473866826        0.00921437732012       -0.01620654359469
C           33.90936762696782        1.20350085265648       -0.24408213575727
C           34.56569365010439        2.44533838975552       -0.50479526621188
C           33.60339485667621        3.39853703940636       -0.51172061474190
C           32.36184662603880        2.73474180725837       -0.25029298344844
N           32.55666693087718        1.37689135195248       -0.14145156333739
C           31.15564790582486        3.39354308967847       -0.06289141544336
C           31.13780976292584        4.87436366489136       -0.06639104639375
C           31.89359546368603        5.59920443144979        0.85845739156446
C           31.88231091453472        6.98274018843847        0.85384962432283
C           31.11505155152712        7.66483108733670       -0.08874852554169
O           31.13102379515072        9.02263720335375       -0.06913046210452
C           30.35898167508088        6.95578704376696       -1.01935013484813
C           30.37092810192030        5.56990316946614       -1.00217746755331
C           29.96226004411891        2.70226399056650        0.09585965286403
C           28.69099894260288        3.33291812787666        0.30084985774500
C           27.75238885729185        2.36229960189690        0.20379985767646
C           28.45261138244947        1.13759942567577       -0.03504400685081
N           29.80883658412563        1.34579975809516       -0.04351997613101
H           26.74862704802587       -0.07315551182834       -0.38397827192916
H           26.80658125574962       -2.62671886391747       -0.86187667209927
H           28.69337691216253       -4.53388086127713       -0.58000204376724
H           30.85320854871443       -5.25046264873253       -1.86829443481371
H           30.85615089027764       -7.71495524247367       -1.66840978328974
H           31.08583147274312       -9.48995382550013       -0.24276558105684
H           31.62164329497361       -7.37773245812838        2.53192312211506
H           31.60883642653972       -4.90617830877147        2.33434222231719
H           33.77956233071283       -4.42683578247000        0.80039508266550
H           35.66703236468835       -2.50339349495599        0.68233301546984
H           35.62770532330639        2.55674705078684       -0.65339841765506
H           33.71272404867281        4.45713443438111       -0.68226553058549
H           32.48177671332583        5.06896929818210        1.59906425634679
H           32.46202064898969        7.54718390580485        1.57369916792686
H           30.56582844726693        9.39100917853335       -0.76142001547661
H           29.76709117901786        7.49071441901603       -1.75434760003141
H           29.79396753877607        5.01943305861358       -1.73697446247279
H           28.54893552702684        4.38440839039837        0.49103687414870
H           26.68037014484501        2.44697021832345        0.28565833548386
Co          57.96300780337923       -0.00793429671175       -0.02343395759436
C           61.33207578386043        0.01974914570146       -0.17766322005385
C           60.65230884760785        1.17415256088220       -0.50171738861578
C           61.29596176905119        2.39233799833820       -0.88870584394796
C           60.33817366000490        3.34883820436563       -0.90361081686875
C           59.10728215760826        2.71086597135141       -0.53812747237024
N           59.30349334329691        1.36868071265327       -0.33760294276479
C           57.92837740434054        3.39316515721484       -0.26338021186464
C           57.91652759123421        4.87333474526569       -0.35451061197967
C           58.11004103283747        5.50835979906530       -1.58098781204749
C           58.09795966047627        6.89186605752818       -1.67053886472032
C           57.89715122355933        7.65685831327705       -0.52396748541708
O           57.88217624517931        9.01404348274830       -0.56574578247479
C           57.70442681542436        7.03364167976180        0.70760301374027
C           57.71135578257014        5.65215204511555        0.78624660588887
C           56.76151565708090        2.73133496754832        0.08572107016478
C           55.51288076353730        3.38851448032605        0.33198005009194
C           54.56816081547678        2.42051071131951        0.40430750223965
N           56.58521896867632        1.36549603284512        0.05571103839714
C           55.24082971056373        1.17652014551400        0.20228640122566
C           54.57243961608444       -0.04034669740872        0.03600925868487
C           55.26143489195540       -1.24629285515773       -0.12190433947742
C           54.61313004827709       -2.50552725047738       -0.30711654229130
C           55.57690059542636       -3.45422287443992       -0.22026921722354
C           56.81026643020147       -2.76927062930732        0.02442954005526
N           56.61036604508276       -1.40738924636326        0.02034460104664
C           58.00857656516614       -3.40211031160560        0.32059747135319
C           58.02861714705692       -4.87465445020481        0.46736969308765
C           57.22374185191254       -5.50614909761253        1.41929394367844
C           57.24213199328877       -6.88191058538298        1.56231805523746
C           58.06550660660575       -7.65162087387276        0.74223749147041
O           58.05611810614876       -8.99905895300201        0.90660800461415
C           58.86917028344318       -7.03673783760917       -0.21520642486446
C           58.85050808933716       -5.65704508025818       -0.34524898995234
C           59.19384031178134       -2.69083121816003        0.46459680097230
C           60.45598684141323       -3.28562009145113        0.79407053549933
C           61.39594459227451       -2.32427029739062        0.63224337651896
C           60.70446235577674       -1.13953678236162        0.22556954531244
N           59.35030122465493       -1.35741026422535        0.18549771425348
H           62.41463906424619        0.02904242422960       -0.22635850326783
H           62.35041595704320        2.48789196732786       -1.09374816396616
H           60.44703527528353        4.39924136477832       -1.11961261214426
H           58.25389925657393        4.91340108417383       -2.47599161103646
H           58.24262036140404        7.38123334586056       -2.62773037853545
H           58.02737140322933        9.34050612948636       -1.46389780421594
H           57.55239789559609        7.64131274324851        1.59103042544092
H           57.57302663046470        5.16701039303856        1.74593046520373
H           55.38271282182394        4.45550451552032        0.41025964311825
H           53.50667970191371        2.52407442680334        0.56197969442056
H           53.55505261956225       -2.63109337052290       -0.47167029457951
H           55.47317022438041       -4.52289542680165       -0.31457775035725
H           56.59267058836492       -4.90691956783239        2.06605210975612
H           56.62557494138710       -7.37339089956904        2.30477853381157
H           58.66132324648373       -9.43383247131255        0.29088738025949
H           59.50404467814615       -7.63992394516266       -0.85534618322292
H           59.46565324594666       -5.18121205795461       -1.10087605443593
H           60.59232611667178       -4.30858425789096        1.10547156950498
H           62.46348643921240       -2.39233407905134        0.76921422274571
C           37.22160326032003        0.01782338943576       -0.02920487715783
C           36.00002367157412        0.01755977999133       -0.02327049405227
C           38.57246976145094        0.02109452047999       -0.03566785728842
C           39.79434766039765        0.02344882948793       -0.04082476789097
C           50.60047525597179       -0.05272958574617        0.01850513815042
C           49.37711158376235       -0.04358342176431        0.00551736726758
C           51.94767822126891       -0.05353323107376        0.02722421979364
C           53.17093774566206       -0.05087830544943        0.03349664878681
Co          44.58781622428319       -0.01194789168246       -0.01234163931760
C           41.19892493104013        0.02369485304123       -0.04724856473941
C           41.88413928294472        0.90612101522600        0.79227302623368
C           41.24429879770737        1.79130116974738        1.71174797169988
C           42.20551009910326        2.62626236994473        2.17932034635946
C           43.42622704867685        2.25363783016286        1.53197387108483
N           43.22712693181440        1.15336176181725        0.73324210959052
C           44.60529493425183        2.98816919351553        1.58850723256757
C           44.61322306284486        4.28065975448108        2.30670291740492
C           45.51009158380764        4.50626045705307        3.35503982740193
C           45.51585081774054        5.70984380820957        4.03622090902686
C           44.62409717345243        6.71669204817004        3.66931219563597
O           44.65996318859734        7.88633351396992        4.35595035891603
C           43.72760688591194        6.50838391848928        2.62313171616769
C           43.72227587481306        5.29550845865475        1.95293911479294
C           45.77637554078151        2.53497366041112        0.99599721483653
C           47.00882925891828        3.26280555403602        0.97365717725758
C           47.96101689090685        2.40514528103974        0.53038656677584
N           45.95940240338876        1.27089423057424        0.48344218341701
C           47.30379372250506        1.16472716787689        0.26877972191080
C           47.97703506197990       -0.02950173329892       -0.01187186736899
C           47.28451519391642       -1.20607568452105       -0.31866571907113
C           47.91767476642859       -2.45851299331944       -0.58057005111716
C           46.95952777495538       -3.28131694411243       -1.07553859005253
C           45.74697071171508       -2.52250351454665       -1.12058127223688
N           45.94734003492496       -1.27046149428000       -0.58904494058860
C           44.57698813215051       -2.93998398951132       -1.74280095441165
C           44.57844144469274       -4.21537055194488       -2.49091523699795
C           43.67266544150557       -5.22946933369155       -2.17506105763678
C           43.67680574082357       -6.42602877361349       -2.87412998007579
C           44.58805145010987       -6.61884417856124       -3.91033078433771
O           44.62349177124380       -7.77243631380865       -4.62387109444462
C           45.49611072375279       -5.61319739389774       -4.23828358458498
C           45.49086458217192       -4.42607425273301       -3.52889786440558
C           43.40729997440204       -2.19290802606260       -1.67511037413261
C           42.18018863815857       -2.54827458380893       -2.32110180427881
C           41.22489400698667       -1.72292739375862       -1.82638799122135
C           41.87544034777607       -0.85529915475232       -0.89736404658685
N           43.22002841652193       -1.09891651583626       -0.86289240899683
H           40.19377122280297        1.76927956417914        1.95311245132290
H           42.10595615166576        3.42317719922736        2.89817949816458
H           46.19314156317163        3.71821558602979        3.65151820430706
H           46.20289694974323        5.88330728253975        4.85515913304310
H           44.00052148036687        8.51113280882378        4.02517643601886
H           43.03931444726026        7.29641045832406        2.33720108981439
H           43.03409128916688        5.14072275281904        1.12955844038284
H           47.12211841016877        4.29433284023623        1.26483240093744
H           49.01635948051768        2.57956892236950        0.39555968555105
H           48.96267443565230       -2.66400179968063       -0.41283609206291
H           47.05571297085606       -4.31009874288422       -1.38236422848584
H           42.97346814029134       -5.08816022263369       -1.35851801440715
H           42.97642474193823       -7.21365470655505       -2.61796784905682
H           43.95365229657793       -8.39850696857263       -4.31742504433732
H           46.19580312347033       -5.77488981542125       -5.04887620467830
H           46.18776925171699       -3.63889652732888       -3.79388427393813
H           42.07198101276071       -3.33085277825101       -3.05427143284416
H           40.17191803313860       -1.69535961572848       -2.05618331782689
