119
 energy: -216.455470540459 gnorm: 0.000738159781 xtb: 6.5.1 (b24c23e)
Fe          13.60140888781507       -0.02271331665314       -0.00988360165762
C           10.18897888572242       -0.02743654446806       -0.05690915224305
C           10.84988689496991       -0.88597582219503       -0.91147516033812
C           10.18524637142817       -1.77951735364270       -1.81471219849507
C           11.15407016902388       -2.45645064161250       -2.47476547588895
C           12.40753834197953       -1.97338184474896       -1.97396229202012
N           12.20902589257873       -1.01406652342810       -1.01915864652901
C           13.63498029514507       -2.42959066991844       -2.41336411270524
C           14.84734454313108       -1.97174865312011       -1.94548405829850
C           16.11188551739195       -2.45278742812804       -2.41518029590254
C           17.06334277256320       -1.77311995343442       -1.73156736121918
N           15.02631732385425       -1.00705697614046       -0.98304105686904
C           16.37567192151924       -0.88110496663480       -0.84777942328997
C           17.03419878099211       -0.00811085153715        0.02759076219777
C           16.34953741008643        0.85970550958387        0.88769400016630
C           17.01019317684286        1.75581354339171        1.78775868613694
C           16.03827611097714        2.42181473525260        2.45593301926455
C           14.78835115597817        1.92929058769070        1.95966278679770
N           14.99647868595643        0.97132591577554        0.99639325415348
C           13.56210799370087        2.37224890108795        2.40531420239021
C           12.34848096661207        1.91150698777528        1.93341810302114
C           11.08027769786429        2.38677122039065        2.40372458350310
C           10.13196061685449        1.71470466875695        1.70978166059842
C           10.82376623764144        0.82961726898232        0.81871242064929
N           12.17903568600153        0.95927729882926        0.96597505510643
H            9.10494708403647       -0.02814880033910       -0.07258087823602
H            9.11436083386346       -1.86189444178353       -1.91348431783015
H           11.05236546722278       -3.21581600997056       -3.23395793030481
H           13.64519674396493       -3.19793381138719       -3.17835425894551
H           16.23460336390437       -3.21215310768503       -3.17103089499310
H           18.13592725853639       -1.85437427285029       -1.80583437144442
H           18.08024859034809        1.84909888895486        1.88201881625725
H           16.13798275250687        3.17939375366385        3.21695679024245
H           13.54895611571253        3.13447966659391        3.17635929371967
H           10.95542682544988        3.13883975877836        3.16671819790358
H            9.05853120719310        1.79431976322222        1.77875329625510
Fe          45.67297366592368       -0.00275157787585        0.00524061074300
C           49.08495521369969        0.04574343313702       -0.05935966327146
C           48.41878178459875        1.25361808395423       -0.09394495432713
C           49.07785753545379        2.52589075352884       -0.14797775967772
C           48.10532500931539        3.46744910172625       -0.15716094017243
C           46.85470484302559        2.76786586876189       -0.11283289867743
N           47.05906454491942        1.41548196888137       -0.07387859042916
C           45.62498930316448        3.39599101627249       -0.11930904068580
C           44.41543957571869        2.73625329463554       -0.09102678765790
C           43.14801737527731        3.40271597788652       -0.11129173120091
C           42.20055740461046        2.43539577742222       -0.07785319370595
N           44.24249084960073        1.37379948326443       -0.04501335929739
C           42.89315836570901        1.18314535100690       -0.03536614195319
C           42.24079269371030       -0.05460773491622        0.00237797836021
C           42.93024362976349       -1.27161630210160        0.05146015437357
C           42.27551823162439       -2.54308503723583        0.11707541083510
C           43.25150245602567       -3.47998054825700        0.18168010091064
C           44.49833308032269       -2.77615169852448        0.15012851915063
N           44.28463445249533       -1.42109339138248        0.06975376270295
C           45.72718961851875       -3.39877457316199        0.18586816180746
C           46.93745770613953       -2.73593251017159        0.13405515359826
C           48.20854610499500       -3.39887394242088        0.14957454684241
C           49.15232157993424       -2.43162063039186        0.07114751624848
C           48.45530384163272       -1.17991074315362        0.01315389213245
N           47.10106188532443       -1.38001137254362        0.05065843100351
H           50.16872633770769        0.06099084866233       -0.08224185192050
H           50.14809062251236        2.65772596692533       -0.17232277413773
H           48.20272388174817        4.54108727604683       -0.19180233278587
H           45.60985964539876        4.47958745410063       -0.15410648378664
H           43.02085016708702        4.47300140740991       -0.14816785890832
H           41.12747879057645        2.54075372187699       -0.08164854411267
H           41.20609700421351       -2.68077035359936        0.11636131030138
H           43.15643057916162       -4.55240935557733        0.24407479871313
H           45.74467219380641       -4.48096297641325        0.25047195643308
H           48.33815669938750       -4.46790623233472        0.21080531768599
H           50.22601485692732       -2.53305780915776        0.05493394705800
C           22.23130463593949       -0.04338433812131        0.08642937707110
C           21.00078669986770       -0.02942539913631        0.07653845117640
C           19.66008951505902       -0.01880669702059        0.06215889290816
C           18.43441553709039       -0.00779308120470        0.04573741004895
C           23.57187945767241       -0.04648079005046        0.08455588546622
C           24.79798219389366       -0.04841927798010        0.07495823373608
C           38.27165551144284       -0.10485241239904        0.01695991085381
C           37.04190502255464       -0.11381756193362        0.02699767450168
C           35.69993334454667       -0.11469848077778        0.02367615810204
C           34.47451021303765       -0.10354452526792        0.02228164800583
C           39.61383673406729       -0.09248883744872        0.00913696278005
C           40.83879132639218       -0.07557883511444        0.00308247582274
Fe          29.63561824744835        0.00205581892891       -0.04005080790711
C           26.19689667344464       -0.03706803718397        0.04600553698081
C           26.87993686999355        0.88943606726881        0.84543418070473
C           26.21767332002089        1.83979863510662        1.68585340369150
C           27.18757768447175        2.59261674100880        2.25911700356060
C           28.43619530639891        2.08990354277273        1.77212964299724
N           28.23146835446793        1.04230467442578        0.90818737366537
C           29.66244770140471        2.59895186159078        2.14523378586059
C           30.87928866596830        2.10385521303833        1.72387489692803
C           32.13972525809731        2.62365977206546        2.15961914664434
C           33.09533705489525        1.86365666447475        1.57201760829883
N           31.06229349072116        1.04366946626805        0.87116820845976
C           32.41241605736555        0.89096521289564        0.77481658874094
C           33.07401421895207       -0.07576388796396        0.00664920339992
C           32.39128860407190       -0.99167713442312       -0.80379626575427
C           33.05331567180863       -1.94482532188948       -1.64124356848303
C           32.08358977708069       -2.60382260730369       -2.32053537004343
C           30.83517860263943       -2.05628948124461       -1.88416952215663
N           31.03933935992409       -1.07035992173022       -0.95105123895944
C           29.60871394186605       -2.49014957448977       -2.34352231877241
C           28.39205900828139       -2.01493940669669       -1.90096785885875
C           27.13154137156267       -2.51705310356290       -2.35692822899152
C           26.17627753190931       -1.84387378605973       -1.67107310793299
C           26.85943260507559       -0.92821550909236       -0.80914664879770
N           28.20881301707843       -1.03762194879668       -0.95373164907313
H           25.14843971687642        1.91097976713977        1.80478685776702
H           27.08650916428325        3.41347173542891        2.95113899169889
H           29.67127386430277        3.43840329421029        2.83176722280945
H           32.25789121507520        3.45827814880382        2.83218357058305
H           34.16729093230061        1.94109456968929        1.65780448008888
H           34.12243528253382       -2.07340708888818       -1.69529089985142
H           32.18471098035037       -3.39144724581831       -3.05014752762513
H           29.60060627835021       -3.27455987444265       -3.09233640721627
H           27.01309500919471       -3.28823867714246       -3.10134544542133
H           25.10440986079819       -1.94265081720741       -1.73274702099033
