      -----------------------------------------------------------      
     |                   =====================                   |     
     |                           x T B                           |     
     |                   =====================                   |     
     |                         S. Grimme                         |     
     |          Mulliken Center for Theoretical Chemistry        |     
     |                    University of Bonn                     |     
      -----------------------------------------------------------      

   * xtb version 6.5.1 (b24c23e) compiled by 'conda@728c89f4b128' on 2022-07-12

   xtb is free software: you can redistribute it and/or modify it under
   the terms of the GNU Lesser General Public License as published by
   the Free Software Foundation, either version 3 of the License, or
   (at your option) any later version.
   
   xtb is distributed in the hope that it will be useful,
   but WITHOUT ANY WARRANTY; without even the implied warranty of
   MERCHANTABILITY or FITNESS FOR A PARTICULAR PURPOSE.  See the
   GNU Lesser General Public License for more details.
   
   Cite this work as:
   * C. Bannwarth, E. Caldeweyher, S. Ehlert, A. Hansen, P. Pracht,
     J. Seibert, S. Spicher, S. Grimme, WIREs Comput. Mol. Sci., 2020, 11,
     e01493. DOI: 10.1002/wcms.1493
   
   for GFN2-xTB:
   * C. Bannwarth, S. Ehlert and S. Grimme., J. Chem. Theory Comput., 2019,
     15, 1652-1671. DOI: 10.1021/acs.jctc.8b01176
   for GFN1-xTB:
   * S. Grimme, C. Bannwarth, P. Shushkov, J. Chem. Theory Comput., 2017,
     13, 1989-2009. DOI: 10.1021/acs.jctc.7b00118
   for GFN0-xTB:
   * P. Pracht, E. Caldeweyher, S. Ehlert, S. Grimme, ChemRxiv, 2019, preprint.
     DOI: 10.26434/chemrxiv.8326202.v1
   for GFN-FF:
   * S. Spicher and S. Grimme, Angew. Chem. Int. Ed., 2020, 59, 15665-15673.
     DOI: 10.1002/anie.202004239
   
   for ALPB and GBSA implicit solvation:
   * S. Ehlert, M. Stahn, S. Spicher, S. Grimme, J. Chem. Theory Comput.,
     2021, 17, 4250-4261. DOI: 10.1021/acs.jctc.1c00471
   
   for DFT-D4:
   * E. Caldeweyher, C. Bannwarth and S. Grimme, J. Chem. Phys., 2017,
     147, 034112. DOI: 10.1063/1.4993215
   * E. Caldeweyher, S. Ehlert, A. Hansen, H. Neugebauer, S. Spicher,
     C. Bannwarth and S. Grimme, J. Chem. Phys., 2019, 150, 154122.
     DOI: 10.1063/1.5090222
   * E. Caldeweyher, J.-M. Mewes, S. Ehlert and S. Grimme, Phys. Chem. Chem. Phys.
     2020, 22, 8499-8512. DOI: 10.1039/D0CP00502A
   
   for sTDA-xTB:
   * S. Grimme and C. Bannwarth, J. Chem. Phys., 2016, 145, 054103.
     DOI: 10.1063/1.4959605
   
   in the mass-spec context:
   * V. Asgeirsson, C. Bauer and S. Grimme, Chem. Sci., 2017, 8, 4879.
     DOI: 10.1039/c7sc00601b
   * J. Koopman and S. Grimme, ACS Omega 2019, 4, 12, 15120-15133.
     DOI: 10.1021/acsomega.9b02011
   
   for metadynamics refer to:
   * S. Grimme, J. Chem. Theory Comput., 2019, 155, 2847-2862
     DOI: 10.1021/acs.jctc.9b00143
   
   for SPH calculations refer to:
   * S. Spicher and S. Grimme, J. Chem. Theory Comput., 2021, 17, 1701-1714
     DOI: 10.1021/acs.jctc.0c01306
   
   with help from (in alphabetical order)
   P. Atkinson, C. Bannwarth, F. Bohle, G. Brandenburg, E. Caldeweyher
   M. Checinski, S. Dohm, S. Ehlert, S. Ehrlich, I. Gerasimov, C. Hölzer
   A. Katbashev, J. Koopman, C. Lavigne, S. Lehtola, F. März, M. Müller,
   F. Musil, H. Neugebauer, J. Pisarek, C. Plett, P. Pracht, F. Pultar,
   J. Seibert, P. Shushkov, S. Spicher, M. Stahn, M. Steiner, T. Strunk,
   J. Stückrath, T. Rose, and J. Unsleber
   
 * started run on 2022/07/27 at 22:02:54.242     

           -------------------------------------------------
          |                Calculation Setup                |
           -------------------------------------------------

          program call               : xtb xtbopt.xyz --gfn 1 --vipea
          hostname                   : cx3-2-25.cx3.hpc.ic.ac.uk
          coordinate file            : xtbopt.xyz
          omp threads                :                     1

   ID    Z sym.   atoms
    1    6 C      1-5, 7-10, 12-30, 33-40, 70-74, 76-79, 81-99, 102-109,
                  139-167, 169-172, 174-192, 195-202, 231-235, 237-240,
                  242-260, 263-270, 299-303, 305-308, 310-328, 331-338
    2    7 N      6, 11, 31, 32, 75, 80, 100, 101, 168, 173, 193, 194, 236,
                  241, 261, 262, 304, 309, 329, 330
    3    1 H      41-69, 110-138, 203-230, 271-298, 339-366

           -------------------------------------------------
          |                 I P E A - x T B                 |
           -------------------------------------------------

        Reference                      10.1039/c7sc00601b
      * Hamiltonian:
        H0-scaling (s, p, d)           2.150000    2.300000    2.000000
        zeta-weighting                 0.000000
      * Dispersion:
        s8                             2.400000
        a1                             0.630000
        a2                             5.000000
        s9                             0.000000
      * Repulsion:
        kExp                           1.500000
        rExp                           1.000000
      * Coulomb:
        alpha                          1.000000
        third order                    atomic
        anisotropic                    false
      * Halogen bond correction:
        rad-scale                      1.300000
        damping                        0.440000


          ...................................................
          :                      SETUP                      :
          :.................................................:
          :  # basis functions                1404          :
          :  # atomic orbitals                1404          :
          :  # shells                          956          :
          :  # electrons                      1058          :
          :  # halogen bonds                     0          :
          :  max. iterations                   250          :
          :  Hamiltonian                  GFN1-xTB          :
          :  restarted?                      false          :
          :  GBSA solvation                  false          :
          :  PC potential                    false          :
          :  electronic temp.          300.0000000     K    :
          :  accuracy                    1.0000000          :
          :  -> integral cutoff          0.2500000E+02      :
          :  -> integral neglect         0.1000000E-07      :
          :  -> SCF convergence          0.1000000E-05 Eh   :
          :  -> wf. convergence          0.2000000E-04 e    :
          :  Broyden damping             0.4000000          :
          ...................................................

 iter      E             dE          RMSdq      gap      omega  full diag
   1   -658.2729553 -0.658273E+03  0.985E+00    0.65       0.0  T
   2   -659.3842456 -0.111129E+01  0.619E+00    1.16       1.0  T
   3   -648.2168830  0.111674E+02  0.455E+00    0.22       1.0  T
   4   -660.6556091 -0.124387E+02  0.112E+00    1.13       1.0  T
   5   -661.6731698 -0.101756E+01  0.290E-01    0.98       1.0  T
   6   -661.7365403 -0.633706E-01  0.993E-02    0.99       1.0  T
   7   -661.7418589 -0.531856E-02  0.453E-02    0.98       1.0  T
   8   -661.7424058 -0.546885E-03  0.350E-02    0.98       1.0  T
   9   -661.7428490 -0.443211E-03  0.223E-02    0.98       1.0  T
  10   -661.7430930 -0.243985E-03  0.599E-03    0.98       1.0  T
  11   -661.7431067 -0.136893E-04  0.292E-03    0.98       1.8  T
  12   -661.7431128 -0.611608E-05  0.107E-03    0.98       4.9  T
  13   -661.7431135 -0.671490E-06  0.521E-04    0.98      10.0  T
  14   -661.7431136 -0.139030E-06  0.201E-04    0.98      26.0  T
  15   -661.7431136 -0.184356E-07  0.101E-04    0.98      51.9  T
  16   -661.7431136 -0.642387E-08  0.445E-05    0.98     117.5  T

   *** convergence criteria satisfied after 16 iterations ***

         #    Occupation            Energy/Eh            Energy/eV
      -------------------------------------------------------------
         1        2.0000           -1.0415713             -28.3426
       ...           ...                  ...                  ...
       523        2.0000           -0.3872933             -10.5388
       524        2.0000           -0.3872465             -10.5375
       525        2.0000           -0.3782874             -10.2937
       526        2.0000           -0.3736854             -10.1685
       527        2.0000           -0.3690272             -10.0417
       528        2.0000           -0.3637216              -9.8974
       529        2.0000           -0.3589431              -9.7673 (HOMO)
       530                         -0.3229832              -8.7888 (LUMO)
       531                         -0.3166404              -8.6162
       532                         -0.3100471              -8.4368
       533                         -0.3050653              -8.3012
       534                         -0.3033456              -8.2545
       ...                                ...                  ...
      1404                        569.6836182           15501.8803
      -------------------------------------------------------------
                  HL-Gap            0.0359599 Eh            0.9785 eV
             Fermi-level           -0.3409606 Eh           -9.2780 eV

 SCC (total)                   0 d,  0 h,  0 min, 27.758 sec
 SCC setup                      ...        0 min,  0.030 sec (  0.106%)
 Dispersion                     ...        0 min,  0.036 sec (  0.130%)
 classical contributions        ...        0 min,  0.009 sec (  0.034%)
 integral evaluation            ...        0 min,  2.144 sec (  7.725%)
 iterations                     ...        0 min, 22.790 sec ( 82.104%)
 molecular gradient             ...        0 min,  2.506 sec (  9.027%)
 printout                       ...        0 min,  0.243 sec (  0.874%)

         :::::::::::::::::::::::::::::::::::::::::::::::::::::
         ::                     SUMMARY                     ::
         :::::::::::::::::::::::::::::::::::::::::::::::::::::
         :: total energy            -647.770648210335 Eh    ::
         :: gradient norm              0.093031397827 Eh/a0 ::
         :: HOMO-LUMO gap              0.978518722825 eV    ::
         ::.................................................::
         :: SCC energy              -661.743113615751 Eh    ::
         :: -> electrostatic           0.309275014580 Eh    ::
         :: repulsion energy          14.271522523563 Eh    ::
         :: dispersion energy         -0.299057118148 Eh    ::
         :: halogen bond corr.         0.000000000000 Eh    ::
         :: add. restraining           0.000000000000 Eh    ::
         :: total charge               0.000000000064 e     ::
         :::::::::::::::::::::::::::::::::::::::::::::::::::::

           ------------------------------------------------- 
          |        vertical delta SCC IP calculation        |
           ------------------------------------------------- 
   1   -661.3584973 -0.661358E+03  0.639E-02    0.98       0.0  T
   2   -661.3548299  0.366744E-02  0.771E-02    0.91       1.0  T
   3   -661.3637904 -0.896053E-02  0.333E-02    0.97       1.0  T
   4   -661.3646396 -0.849155E-03  0.225E-02    0.96       1.0  T
   5   -661.3641137  0.525880E-03  0.192E-02    0.96       1.0  T
   6   -661.3632489  0.864808E-03  0.245E-02    0.96       1.0  T
   7   -661.3648726 -0.162367E-02  0.716E-03    0.96       1.0  T
   8   -661.3649176 -0.450242E-04  0.283E-03    0.96       1.8  T
   9   -661.3649243 -0.674655E-05  0.116E-03    0.96       4.5  T
  10   -661.3649250 -0.703846E-06  0.543E-04    0.96       9.6  T
  11   -661.3649252 -0.191204E-06  0.236E-04    0.96      22.1  T
  12   -661.3649253 -0.459987E-07  0.767E-05    0.96      68.1  T
  13   -661.3649253 -0.472130E-08  0.257E-05    0.96     203.7  T
     SCC iter.                  ...        0 min, 15.672 sec
     gradient                   ...        0 min,  2.415 sec
------------------------------------------------------------------------
empirical IP shift (eV):    4.8455
delta SCC IP (eV):    5.4455
------------------------------------------------------------------------
           ------------------------------------------------- 
          |        vertical delta SCC EA calculation        |
           ------------------------------------------------- 
   1   -662.0255925 -0.662026E+03  0.112E-01    0.20       0.0  T
   2   -662.0333164 -0.772392E-02  0.988E-02    0.05       1.0  T
   3   -662.0428036 -0.948719E-02  0.566E-02    0.13       1.0  T
   4   -662.0447018 -0.189821E-02  0.406E-02    0.09       1.0  T
   5   -662.0442131  0.488706E-03  0.288E-02    0.10       1.0  T
   6   -662.0409065  0.330660E-02  0.397E-02    0.12       1.0  T
   7   -662.0453017 -0.439516E-02  0.147E-02    0.10       1.0  T
   8   -662.0456065 -0.304798E-03  0.423E-03    0.10       1.2  T
   9   -662.0456256 -0.191243E-04  0.242E-03    0.10       2.2  T
  10   -662.0456315 -0.591862E-05  0.756E-04    0.10       6.9  T
  11   -662.0456317 -0.172519E-06  0.466E-04    0.10      11.2  T
  12   -662.0456319 -0.229450E-06  0.165E-04    0.10      31.6  T
  13   -662.0456320 -0.171228E-07  0.720E-05    0.10      72.6  T
     SCC iter.                  ...        0 min, 15.148 sec
     gradient                   ...        0 min,  2.526 sec
------------------------------------------------------------------------
empirical EA shift (eV):    4.8455
delta SCC EA (eV):    3.3864
------------------------------------------------------------------------
           -------------------------------------------------
          |                Property Printout                |
           -------------------------------------------------

    * Orbital Energies and Occupations

         #    Occupation            Energy/Eh            Energy/eV
      -------------------------------------------------------------
         1        2.0000           -1.0077961             -27.4235
       ...           ...                  ...                  ...
       518        2.0000           -0.3613604              -9.8331
       519        2.0000           -0.3612183              -9.8293
       520        2.0000           -0.3554730              -9.6729
       521        2.0000           -0.3553997              -9.6709
       522        2.0000           -0.3488603              -9.4930
       523        2.0000           -0.3487970              -9.4912
       524        2.0000           -0.3474096              -9.4535
       525        2.0000           -0.3405173              -9.2659
       526        2.0000           -0.3386004              -9.2138
       527        2.0000           -0.3325416              -9.0489
       528        2.0000           -0.3257149              -8.8632
       529        2.0000           -0.3186414              -8.6707
       530        0.8691           -0.2828107              -7.6957 (HOMO)
       531        0.1303           -0.2792087              -7.5977 (LUMO)
       532        0.0007           -0.2740548              -7.4574
       533        0.0000           -0.2704754              -7.3600
       534        0.0000           -0.2698608              -7.3433
       535        0.0000           -0.2681048              -7.2955
       536                         -0.2639407              -7.1822
       537                         -0.2630400              -7.1577
       538                         -0.2623336              -7.1385
       539                         -0.2607170              -7.0945
       540                         -0.2355559              -6.4098
       541                         -0.2307386              -6.2787
       ...                                ...                  ...
      1404                        569.7232506           15502.9587
      -------------------------------------------------------------
                  HL-Gap            0.0036020 Eh            0.0980 eV
             Fermi-level           -0.2908745 Eh           -7.9151 eV

  Mulliken/CM5 charges         n(s)   n(p)   n(d)
     1C    -0.02473 -0.06556   1.087  2.938  0.000
     2C     0.06125  0.12166   1.105  2.834  0.000
     3C    -0.03668 -0.08198   1.080  2.956  0.000
     4C    -0.03344 -0.07840   1.076  2.957  0.000
     5C     0.06170  0.12559   1.101  2.837  0.000
     6N    -0.15999 -0.51292   1.312  3.848  0.000
     7C     0.00845  0.01414   1.094  2.898  0.000
     8C     0.05819  0.12616   1.118  2.824  0.000
     9C    -0.03817 -0.08417   1.085  2.953  0.000
    10C    -0.03896 -0.08439   1.090  2.949  0.000
    11N    -0.28607 -0.47263   1.293  3.993  0.000
    12C     0.06404  0.13491   1.130  2.806  0.000
    13C     0.01575  0.02295   1.084  2.901  0.000
    14C     0.06602  0.13096   1.109  2.825  0.000
    15C    -0.03439 -0.07881   1.079  2.955  0.000
    16C    -0.03337 -0.07833   1.075  2.958  0.000
    17C     0.06104  0.12429   1.099  2.840  0.000
    18C     0.00753  0.01327   1.093  2.899  0.000
    19C     0.00454 -0.00399   1.089  2.906  0.000
    20C    -0.02567 -0.07710   1.064  2.962  0.000
    21C    -0.00087 -0.01862   1.096  2.905  0.000
    22C    -0.06112 -0.20587   1.074  2.987  0.000
    23C    -0.03119 -0.08297   1.064  2.967  0.000
    24C    -0.00084 -0.01858   1.096  2.905  0.000
    25C    -0.06118 -0.20592   1.074  2.987  0.000
    26C    -0.02622 -0.07757   1.062  2.964  0.000
    27C     0.05952  0.12886   1.121  2.820  0.000
    28C    -0.03850 -0.08449   1.087  2.951  0.000
    29C    -0.04127 -0.08764   1.091  2.950  0.000
    30C     0.05818  0.12390   1.125  2.817  0.000
    31N    -0.28908 -0.47607   1.292  3.997  0.000
    32N    -0.15743 -0.50960   1.314  3.843  0.000
    33C     0.00463 -0.00391   1.089  2.906  0.000
    34C    -0.02506 -0.07645   1.064  2.961  0.000
    35C    -0.00039 -0.01814   1.097  2.904  0.000
    36C    -0.06089 -0.20563   1.074  2.987  0.000
    37C    -0.03103 -0.08283   1.065  2.966  0.000
    38C    -0.00115 -0.01889   1.096  2.905  0.000
    39C    -0.06136 -0.20610   1.074  2.987  0.000
    40C    -0.02673 -0.07808   1.062  2.965  0.000
    41H     0.02602  0.08503   0.974  0.000  0.000
    42H     0.03667  0.09334   0.963  0.000  0.000
    43H     0.02662  0.08536   0.973  0.000  0.000
    44H     0.16303  0.37133   0.837  0.000  0.000
    45H     0.01792  0.07668   0.982  0.000  0.000
    46H     0.02357  0.08163   0.976  0.000  0.000
    47H     0.03323  0.09134   0.967  0.000  0.000
    48H     0.02719  0.08599   0.973  0.000  0.000
    49H     0.02350  0.08220   0.977  0.000  0.000
    50H     0.02563  0.07755   0.974  0.000  0.000
    51H     0.02126  0.07362   0.979  0.000  0.000
    52H     0.02137  0.07384   0.979  0.000  0.000
    53H     0.03046  0.08793   0.970  0.000  0.000
    54H     0.02308  0.07552   0.977  0.000  0.000
    55H     0.02163  0.07403   0.978  0.000  0.000
    56H     0.02496  0.07687   0.975  0.000  0.000
    57H     0.02484  0.08355   0.975  0.000  0.000
    58H     0.01717  0.07586   0.983  0.000  0.000
    59H     0.02675  0.08317   0.973  0.000  0.000
    60H     0.16168  0.36996   0.838  0.000  0.000
    61H     0.02466  0.08337   0.975  0.000  0.000
    62H     0.02255  0.07489   0.977  0.000  0.000
    63H     0.01986  0.07234   0.980  0.000  0.000
    64H     0.02798  0.07992   0.972  0.000  0.000
    65H     0.03048  0.08794   0.970  0.000  0.000
    66H     0.02106  0.07343   0.979  0.000  0.000
    67H     0.02589  0.07780   0.974  0.000  0.000
    68H     0.02139  0.07385   0.979  0.000  0.000
    69H     0.02400  0.08268   0.976  0.000  0.000
    70C    -0.02475 -0.06557   1.087  2.938  0.000
    71C     0.06124  0.12165   1.105  2.834  0.000
    72C    -0.03669 -0.08199   1.080  2.956  0.000
    73C    -0.03345 -0.07840   1.076  2.957  0.000
    74C     0.06167  0.12558   1.101  2.838  0.000
    75N    -0.15999 -0.51293   1.312  3.848  0.000
    76C     0.00848  0.01417   1.094  2.898  0.000
    77C     0.05818  0.12614   1.118  2.824  0.000
    78C    -0.03820 -0.08420   1.085  2.953  0.000
    79C    -0.03897 -0.08441   1.090  2.949  0.000
    80N    -0.28610 -0.47263   1.293  3.993  0.000
    81C     0.06407  0.13495   1.130  2.806  0.000
    82C     0.01571  0.02290   1.084  2.901  0.000
    83C     0.06599  0.13093   1.109  2.825  0.000
    84C    -0.03440 -0.07882   1.079  2.955  0.000
    85C    -0.03338 -0.07834   1.075  2.958  0.000
    86C     0.06103  0.12428   1.099  2.840  0.000
    87C     0.00751  0.01325   1.093  2.899  0.000
    88C     0.00456 -0.00397   1.089  2.906  0.000
    89C    -0.02564 -0.07707   1.064  2.962  0.000
    90C    -0.00084 -0.01859   1.096  2.904  0.000
    91C    -0.06112 -0.20586   1.074  2.987  0.000
    92C    -0.03119 -0.08298   1.064  2.967  0.000
    93C    -0.00085 -0.01859   1.096  2.905  0.000
    94C    -0.06120 -0.20594   1.074  2.987  0.000
    95C    -0.02625 -0.07760   1.062  2.964  0.000
    96C     0.05951  0.12885   1.121  2.820  0.000
    97C    -0.03852 -0.08450   1.087  2.951  0.000
    98C    -0.04129 -0.08766   1.091  2.950  0.000
    99C     0.05816  0.12386   1.125  2.817  0.000
   100N    -0.28910 -0.47609   1.292  3.997  0.000
   101N    -0.15749 -0.50963   1.314  3.843  0.000
   102C     0.00466 -0.00389   1.089  2.906  0.000
   103C    -0.02508 -0.07649   1.064  2.961  0.000
   104C    -0.00037 -0.01812   1.097  2.904  0.000
   105C    -0.06089 -0.20563   1.074  2.987  0.000
   106C    -0.03104 -0.08284   1.065  2.966  0.000
   107C    -0.00114 -0.01888   1.096  2.905  0.000
   108C    -0.06136 -0.20610   1.074  2.987  0.000
   109C    -0.02674 -0.07807   1.062  2.965  0.000
   110H     0.02600  0.08500   0.974  0.000  0.000
   111H     0.03665  0.09332   0.963  0.000  0.000
   112H     0.02660  0.08532   0.973  0.000  0.000
   113H     0.16304  0.37133   0.837  0.000  0.000
   114H     0.01794  0.07672   0.982  0.000  0.000
   115H     0.02355  0.08164   0.976  0.000  0.000
   116H     0.03320  0.09128   0.967  0.000  0.000
   117H     0.02721  0.08601   0.973  0.000  0.000
   118H     0.02354  0.08224   0.976  0.000  0.000
   119H     0.02560  0.07752   0.974  0.000  0.000
   120H     0.02134  0.07369   0.979  0.000  0.000
   121H     0.02137  0.07385   0.979  0.000  0.000
   122H     0.03048  0.08794   0.970  0.000  0.000
   123H     0.02294  0.07538   0.977  0.000  0.000
   124H     0.02164  0.07403   0.978  0.000  0.000
   125H     0.02490  0.07681   0.975  0.000  0.000
   126H     0.02474  0.08343   0.975  0.000  0.000
   127H     0.01714  0.07583   0.983  0.000  0.000
   128H     0.02672  0.08313   0.973  0.000  0.000
   129H     0.16169  0.36994   0.838  0.000  0.000
   130H     0.02467  0.08335   0.975  0.000  0.000
   131H     0.02247  0.07482   0.978  0.000  0.000
   132H     0.01988  0.07236   0.980  0.000  0.000
   133H     0.02800  0.07993   0.972  0.000  0.000
   134H     0.03050  0.08796   0.970  0.000  0.000
   135H     0.02103  0.07340   0.979  0.000  0.000
   136H     0.02592  0.07783   0.974  0.000  0.000
   137H     0.02139  0.07384   0.979  0.000  0.000
   138H     0.02400  0.08267   0.976  0.000  0.000
   139C    -0.01721 -0.01731   1.077  2.940  0.000
   140C    -0.02042 -0.02053   1.075  2.946  0.000
   141C    -0.02162 -0.02239   1.062  2.960  0.000
   142C    -0.02025 -0.02188   1.091  2.930  0.000
   143C    -0.02446 -0.02520   1.060  2.965  0.000
   144C    -0.01697 -0.01855   1.095  2.922  0.000
   145C    -0.01894 -0.01904   1.076  2.943  0.000
   146C    -0.01955 -0.01965   1.076  2.944  0.000
   147C    -0.02311 -0.02384   1.061  2.962  0.000
   148C    -0.01923 -0.02081   1.092  2.927  0.000
   149C    -0.02362 -0.02436   1.060  2.963  0.000
   150C    -0.01855 -0.02013   1.093  2.926  0.000
   151C    -0.01955 -0.01965   1.076  2.944  0.000
   152C    -0.01895 -0.01905   1.076  2.943  0.000
   153C    -0.02363 -0.02436   1.060  2.963  0.000
   154C    -0.01856 -0.02014   1.093  2.926  0.000
   155C    -0.02312 -0.02386   1.061  2.962  0.000
   156C    -0.01924 -0.02082   1.092  2.927  0.000
   157C    -0.02039 -0.02049   1.075  2.946  0.000
   158C    -0.01731 -0.01741   1.077  2.940  0.000
   159C    -0.02444 -0.02518   1.060  2.965  0.000
   160C    -0.01706 -0.01863   1.095  2.923  0.000
   161C    -0.02170 -0.02247   1.062  2.960  0.000
   162C    -0.02022 -0.02185   1.091  2.930  0.000
   163C     0.01217  0.01941   1.081  2.907  0.000
   164C     0.06533  0.13024   1.109  2.825  0.000
   165C    -0.03690 -0.08132   1.078  2.959  0.000
   166C    -0.03424 -0.07916   1.075  2.959  0.000
   167C     0.05927  0.12262   1.096  2.844  0.000
   168N    -0.15723 -0.50959   1.313  3.844  0.000
   169C     0.01064  0.01624   1.095  2.894  0.000
   170C     0.05697  0.12490   1.116  2.827  0.000
   171C    -0.03868 -0.08468   1.086  2.953  0.000
   172C    -0.04028 -0.08572   1.090  2.951  0.000
   173N    -0.28591 -0.47212   1.292  3.994  0.000
   174C     0.06359  0.13451   1.130  2.807  0.000
   175C     0.01399  0.02123   1.082  2.904  0.000
   176C     0.06553  0.13049   1.109  2.825  0.000
   177C    -0.03603 -0.08046   1.078  2.958  0.000
   178C    -0.03401 -0.07895   1.075  2.959  0.000
   179C     0.05957  0.12290   1.097  2.844  0.000
   180C     0.01049  0.01610   1.095  2.894  0.000
   181C     0.00531 -0.00330   1.090  2.905  0.000
   182C    -0.02487 -0.07633   1.064  2.961  0.000
   183C    -0.00055 -0.01831   1.096  2.904  0.000
   184C    -0.06090 -0.20565   1.074  2.987  0.000
   185C    -0.03109 -0.08288   1.064  2.967  0.000
   186C    -0.00082 -0.01857   1.096  2.905  0.000
   187C    -0.06103 -0.20577   1.074  2.987  0.000
   188C    -0.02587 -0.07723   1.062  2.964  0.000
   189C     0.05709  0.12506   1.116  2.827  0.000
   190C    -0.03860 -0.08460   1.086  2.953  0.000
   191C    -0.04063 -0.08608   1.089  2.951  0.000
   192C     0.06348  0.13430   1.130  2.807  0.000
   193N    -0.28660 -0.47271   1.292  3.995  0.000
   194N    -0.15671 -0.50911   1.313  3.843  0.000
   195C     0.00537 -0.00325   1.090  2.905  0.000
   196C    -0.02601 -0.07734   1.062  2.964  0.000
   197C    -0.00097 -0.01871   1.096  2.905  0.000
   198C    -0.06113 -0.20587   1.074  2.987  0.000
   199C    -0.03110 -0.08290   1.064  2.967  0.000
   200C    -0.00047 -0.01823   1.096  2.904  0.000
   201C    -0.06086 -0.20561   1.074  2.987  0.000
   202C    -0.02477 -0.07622   1.064  2.961  0.000
   203H     0.03059  0.08864   0.969  0.000  0.000
   204H     0.02546  0.08429   0.975  0.000  0.000
   205H     0.16178  0.36973   0.838  0.000  0.000
   206H     0.01644  0.07528   0.984  0.000  0.000
   207H     0.02179  0.07980   0.978  0.000  0.000
   208H     0.03195  0.09002   0.968  0.000  0.000
   209H     0.02603  0.08491   0.974  0.000  0.000
   210H     0.02400  0.08267   0.976  0.000  0.000
   211H     0.02466  0.07658   0.975  0.000  0.000
   212H     0.02125  0.07360   0.979  0.000  0.000
   213H     0.02208  0.07457   0.978  0.000  0.000
   214H     0.02993  0.08739   0.970  0.000  0.000
   215H     0.02199  0.07439   0.978  0.000  0.000
   216H     0.02652  0.07843   0.973  0.000  0.000
   217H     0.02004  0.07248   0.980  0.000  0.000
   218H     0.02478  0.08347   0.975  0.000  0.000
   219H     0.01628  0.07510   0.984  0.000  0.000
   220H     0.02114  0.07918   0.979  0.000  0.000
   221H     0.16169  0.36965   0.838  0.000  0.000
   222H     0.02463  0.08328   0.975  0.000  0.000
   223H     0.01976  0.07223   0.980  0.000  0.000
   224H     0.02233  0.07467   0.978  0.000  0.000
   225H     0.02575  0.07768   0.974  0.000  0.000
   226H     0.02984  0.08730   0.970  0.000  0.000
   227H     0.02267  0.07514   0.977  0.000  0.000
   228H     0.02135  0.07372   0.979  0.000  0.000
   229H     0.02452  0.07643   0.975  0.000  0.000
   230H     0.02423  0.08291   0.976  0.000  0.000
   231C     0.01338  0.02062   1.082  2.905  0.000
   232C     0.06551  0.13047   1.109  2.825  0.000
   233C    -0.03630 -0.08073   1.078  2.959  0.000
   234C    -0.03406 -0.07900   1.075  2.959  0.000
   235C     0.05940  0.12274   1.097  2.844  0.000
   236N    -0.15683 -0.50924   1.313  3.843  0.000
   237C     0.01070  0.01631   1.095  2.894  0.000
   238C     0.05695  0.12485   1.116  2.827  0.000
   239C    -0.03869 -0.08470   1.086  2.953  0.000
   240C    -0.04050 -0.08594   1.089  2.951  0.000
   241N    -0.28611 -0.47229   1.292  3.994  0.000
   242C     0.06351  0.13443   1.130  2.807  0.000
   243C     0.01338  0.02062   1.082  2.905  0.000
   244C     0.06550  0.13046   1.109  2.825  0.000
   245C    -0.03629 -0.08072   1.078  2.959  0.000
   246C    -0.03406 -0.07899   1.075  2.959  0.000
   247C     0.05940  0.12274   1.097  2.844  0.000
   248C     0.01069  0.01630   1.095  2.894  0.000
   249C     0.00536 -0.00326   1.090  2.905  0.000
   250C    -0.02479 -0.07626   1.064  2.961  0.000
   251C    -0.00052 -0.01828   1.096  2.904  0.000
   252C    -0.06087 -0.20562   1.074  2.987  0.000
   253C    -0.03109 -0.08289   1.064  2.967  0.000
   254C    -0.00086 -0.01861   1.096  2.905  0.000
   255C    -0.06104 -0.20578   1.074  2.987  0.000
   256C    -0.02587 -0.07722   1.062  2.964  0.000
   257C     0.05695  0.12486   1.116  2.827  0.000
   258C    -0.03869 -0.08470   1.086  2.953  0.000
   259C    -0.04049 -0.08594   1.090  2.951  0.000
   260C     0.06350  0.13440   1.130  2.807  0.000
   261N    -0.28613 -0.47228   1.292  3.994  0.000
   262N    -0.15684 -0.50924   1.313  3.843  0.000
   263C     0.00536 -0.00325   1.090  2.905  0.000
   264C    -0.02587 -0.07722   1.062  2.964  0.000
   265C    -0.00086 -0.01861   1.096  2.905  0.000
   266C    -0.06103 -0.20578   1.074  2.987  0.000
   267C    -0.03109 -0.08289   1.064  2.967  0.000
   268C    -0.00052 -0.01828   1.096  2.904  0.000
   269C    -0.06087 -0.20561   1.074  2.987  0.000
   270C    -0.02480 -0.07626   1.064  2.961  0.000
   271H     0.03156  0.08964   0.968  0.000  0.000
   272H     0.02578  0.08464   0.974  0.000  0.000
   273H     0.16174  0.36969   0.838  0.000  0.000
   274H     0.01627  0.07509   0.984  0.000  0.000
   275H     0.02135  0.07936   0.979  0.000  0.000
   276H     0.03157  0.08964   0.968  0.000  0.000
   277H     0.02578  0.08464   0.974  0.000  0.000
   278H     0.02407  0.08276   0.976  0.000  0.000
   279H     0.02450  0.07642   0.975  0.000  0.000
   280H     0.02137  0.07372   0.979  0.000  0.000
   281H     0.02221  0.07471   0.978  0.000  0.000
   282H     0.02982  0.08729   0.970  0.000  0.000
   283H     0.02211  0.07449   0.978  0.000  0.000
   284H     0.02624  0.07815   0.974  0.000  0.000
   285H     0.01987  0.07233   0.980  0.000  0.000
   286H     0.02477  0.08346   0.975  0.000  0.000
   287H     0.01627  0.07510   0.984  0.000  0.000
   288H     0.02134  0.07934   0.979  0.000  0.000
   289H     0.16174  0.36969   0.838  0.000  0.000
   290H     0.02477  0.08346   0.975  0.000  0.000
   291H     0.01983  0.07229   0.980  0.000  0.000
   292H     0.02216  0.07453   0.978  0.000  0.000
   293H     0.02624  0.07815   0.974  0.000  0.000
   294H     0.02980  0.08726   0.970  0.000  0.000
   295H     0.02236  0.07485   0.978  0.000  0.000
   296H     0.02118  0.07355   0.979  0.000  0.000
   297H     0.02458  0.07649   0.975  0.000  0.000
   298H     0.02409  0.08277   0.976  0.000  0.000
   299C     0.01396  0.02121   1.082  2.904  0.000
   300C     0.06552  0.13048   1.109  2.825  0.000
   301C    -0.03603 -0.08047   1.078  2.958  0.000
   302C    -0.03402 -0.07895   1.075  2.959  0.000
   303C     0.05957  0.12290   1.097  2.844  0.000
   304N    -0.15672 -0.50914   1.313  3.843  0.000
   305C     0.01045  0.01606   1.095  2.894  0.000
   306C     0.05708  0.12505   1.116  2.827  0.000
   307C    -0.03859 -0.08459   1.086  2.953  0.000
   308C    -0.04065 -0.08609   1.089  2.951  0.000
   309N    -0.28659 -0.47273   1.292  3.995  0.000
   310C     0.06342  0.13423   1.130  2.807  0.000
   311C     0.01220  0.01945   1.081  2.907  0.000
   312C     0.06536  0.13028   1.109  2.825  0.000
   313C    -0.03693 -0.08135   1.078  2.959  0.000
   314C    -0.03425 -0.07917   1.075  2.959  0.000
   315C     0.05923  0.12258   1.096  2.844  0.000
   316C     0.01065  0.01626   1.095  2.894  0.000
   317C     0.00534 -0.00328   1.090  2.905  0.000
   318C    -0.02475 -0.07622   1.064  2.961  0.000
   319C    -0.00049 -0.01825   1.096  2.904  0.000
   320C    -0.06087 -0.20561   1.074  2.987  0.000
   321C    -0.03109 -0.08290   1.064  2.967  0.000
   322C    -0.00097 -0.01871   1.096  2.905  0.000
   323C    -0.06111 -0.20586   1.074  2.987  0.000
   324C    -0.02597 -0.07729   1.062  2.964  0.000
   325C     0.05694  0.12485   1.116  2.827  0.000
   326C    -0.03867 -0.08468   1.086  2.953  0.000
   327C    -0.04029 -0.08573   1.089  2.951  0.000
   328C     0.06361  0.13454   1.130  2.807  0.000
   329N    -0.28591 -0.47213   1.292  3.994  0.000
   330N    -0.15715 -0.50954   1.313  3.844  0.000
   331C     0.00530 -0.00331   1.090  2.905  0.000
   332C    -0.02587 -0.07722   1.062  2.964  0.000
   333C    -0.00082 -0.01857   1.096  2.905  0.000
   334C    -0.06103 -0.20577   1.074  2.987  0.000
   335C    -0.03108 -0.08288   1.064  2.967  0.000
   336C    -0.00056 -0.01832   1.096  2.904  0.000
   337C    -0.06090 -0.20565   1.074  2.987  0.000
   338C    -0.02486 -0.07631   1.064  2.961  0.000
   339H     0.03195  0.09001   0.968  0.000  0.000
   340H     0.02601  0.08489   0.974  0.000  0.000
   341H     0.16168  0.36965   0.838  0.000  0.000
   342H     0.01623  0.07503   0.984  0.000  0.000
   343H     0.02114  0.07914   0.979  0.000  0.000
   344H     0.03059  0.08865   0.969  0.000  0.000
   345H     0.02537  0.08419   0.975  0.000  0.000
   346H     0.02414  0.08283   0.976  0.000  0.000
   347H     0.02435  0.07626   0.976  0.000  0.000
   348H     0.02169  0.07404   0.978  0.000  0.000
   349H     0.02241  0.07491   0.978  0.000  0.000
   350H     0.02985  0.08731   0.970  0.000  0.000
   351H     0.02242  0.07477   0.978  0.000  0.000
   352H     0.02581  0.07773   0.974  0.000  0.000
   353H     0.01973  0.07221   0.980  0.000  0.000
   354H     0.02473  0.08341   0.975  0.000  0.000
   355H     0.01646  0.07530   0.984  0.000  0.000
   356H     0.02178  0.07979   0.978  0.000  0.000
   357H     0.16176  0.36973   0.838  0.000  0.000
   358H     0.02481  0.08350   0.975  0.000  0.000
   359H     0.01999  0.07243   0.980  0.000  0.000
   360H     0.02202  0.07442   0.978  0.000  0.000
   361H     0.02653  0.07844   0.973  0.000  0.000
   362H     0.02989  0.08735   0.970  0.000  0.000
   363H     0.02224  0.07472   0.978  0.000  0.000
   364H     0.02103  0.07341   0.979  0.000  0.000
   365H     0.02474  0.07665   0.975  0.000  0.000
   366H     0.02400  0.08269   0.976  0.000  0.000

Wiberg/Mayer (AO) data.
largest (>0.10) Wiberg bond orders for each atom

 ---------------------------------------------------------------------------
     #   Z sym  total        # sym  WBO       # sym  WBO       # sym  WBO
 ---------------------------------------------------------------------------
     1   6 C    3.808 --    30 C    1.384     2 C    1.372    41 H    0.996
     2   6 C    3.924 --     1 C    1.372     3 C    1.241     6 N    1.230
     3   6 C    3.836 --     4 C    1.597     2 C    1.241    42 H    0.993
     4   6 C    3.823 --     3 C    1.597     5 C    1.253    43 H    0.999
     5   6 C    3.896 --     7 C    1.342     4 C    1.253     6 N    1.227
     6   7 N    3.244 --     2 C    1.230     5 C    1.227    44 H    0.961
     7   6 C    3.843 --     8 C    1.370     5 C    1.342    33 C    1.050
     8   6 C    3.922 --     7 C    1.370    11 N    1.352     9 C    1.163
     9   6 C    3.838 --    10 C    1.692     8 C    1.163    45 H    0.999
    10   6 C    3.850 --     9 C    1.692    12 C    1.166    46 H    1.000
    11   7 N    2.562 --    12 C    1.415     8 C    1.352
    12   6 C    3.942 --    11 N    1.415    13 C    1.285    10 C    1.166
    13   6 C    3.841 --    14 C    1.285    12 C    1.285   142 C    1.222
    14   6 C    3.902 --    13 C    1.285    15 C    1.268    32 N    1.250
    15   6 C    3.831 --    16 C    1.582    14 C    1.268    47 H    0.998
    16   6 C    3.814 --    15 C    1.582    17 C    1.260    48 H    0.999
    17   6 C    3.891 --    18 C    1.344    16 C    1.260    32 N    1.220
    18   6 C    3.828 --    27 C    1.360    17 C    1.344    19 C    1.052
    19   6 C    3.905 --    26 C    1.425    20 C    1.423    18 C    1.052
    20   6 C    3.824 --    21 C    1.437    19 C    1.423    49 H    0.995
    21   6 C    3.923 --    20 C    1.437    23 C    1.430    22 C    1.010
    22   6 C    3.917 --    21 C    1.010    52 H    0.998    51 H    0.997
                            50 H    0.987
    23   6 C    3.835 --    24 C    1.432    21 C    1.430    53 H    0.995
    24   6 C    3.923 --    26 C    1.435    23 C    1.432    25 C    1.010
    25   6 C    3.917 --    24 C    1.010    55 H    0.997    54 H    0.996
                            56 H    0.987
    26   6 C    3.819 --    24 C    1.435    19 C    1.425    57 H    0.995
    27   6 C    3.943 --    31 N    1.378    18 C    1.360    28 C    1.154
    28   6 C    3.843 --    29 C    1.706    27 C    1.154    58 H    1.000
    29   6 C    3.861 --    28 C    1.706    30 C    1.147    59 H    0.994
    30   6 C    3.967 --     1 C    1.384    31 N    1.376    29 C    1.147
    31   7 N    2.546 --    27 C    1.378    30 C    1.376
    32   7 N    3.257 --    14 C    1.250    17 C    1.220    60 H    0.960
    33   6 C    3.905 --    34 C    1.429    40 C    1.422     7 C    1.050
    34   6 C    3.825 --    35 C    1.432    33 C    1.429    61 H    0.995
    35   6 C    3.924 --    37 C    1.434    34 C    1.432    36 C    1.010
    36   6 C    3.917 --    35 C    1.010    63 H    0.999    62 H    0.995
                            64 H    0.986
    37   6 C    3.835 --    35 C    1.434    38 C    1.428    65 H    0.994
    38   6 C    3.923 --    40 C    1.439    37 C    1.428    39 C    1.009
    39   6 C    3.918 --    38 C    1.009    66 H    0.997    68 H    0.997
                            67 H    0.987
    40   6 C    3.820 --    38 C    1.439    33 C    1.422    69 H    0.995
    41   1 H    1.033 --     1 C    0.996
    42   1 H    1.017 --     3 C    0.993
    43   1 H    1.035 --     4 C    0.999
    44   1 H    1.083 --     6 N    0.961
    45   1 H    1.038 --     9 C    0.999
    46   1 H    1.033 --    10 C    1.000
    47   1 H    1.029 --    15 C    0.998
    48   1 H    1.034 --    16 C    0.999
    49   1 H    1.043 --    20 C    0.995
    50   1 H    1.033 --    22 C    0.987
    51   1 H    1.035 --    22 C    0.997
    52   1 H    1.035 --    22 C    0.998
    53   1 H    1.019 --    23 C    0.995
    54   1 H    1.034 --    25 C    0.996
    55   1 H    1.035 --    25 C    0.997
    56   1 H    1.033 --    25 C    0.987
    57   1 H    1.040 --    26 C    0.995
    58   1 H    1.038 --    28 C    1.000
    59   1 H    1.020 --    29 C    0.994
    60   1 H    1.087 --    32 N    0.960
    61   1 H    1.043 --    34 C    0.995
    62   1 H    1.035 --    36 C    0.995
    63   1 H    1.035 --    36 C    0.999
    64   1 H    1.032 --    36 C    0.986
    65   1 H    1.019 --    37 C    0.994
    66   1 H    1.035 --    39 C    0.997
    67   1 H    1.033 --    39 C    0.987
    68   1 H    1.035 --    39 C    0.997
    69   1 H    1.039 --    40 C    0.995
    70   6 C    3.808 --    99 C    1.384    71 C    1.372   110 H    0.996
    71   6 C    3.924 --    70 C    1.372    72 C    1.241    75 N    1.230
    72   6 C    3.836 --    73 C    1.597    71 C    1.241   111 H    0.993
    73   6 C    3.823 --    72 C    1.597    74 C    1.253   112 H    0.999
    74   6 C    3.896 --    76 C    1.343    73 C    1.253    75 N    1.227
    75   7 N    3.244 --    71 C    1.230    74 C    1.227   113 H    0.961
    76   6 C    3.843 --    77 C    1.371    74 C    1.343   102 C    1.049
    77   6 C    3.922 --    76 C    1.371    80 N    1.352    78 C    1.163
    78   6 C    3.838 --    79 C    1.692    77 C    1.163   114 H    0.999
    79   6 C    3.850 --    78 C    1.692    81 C    1.166   115 H    1.000
    80   7 N    2.562 --    81 C    1.415    77 C    1.352
    81   6 C    3.942 --    80 N    1.415    82 C    1.285    79 C    1.166
    82   6 C    3.841 --    83 C    1.285    81 C    1.285   162 C    1.222
    83   6 C    3.902 --    82 C    1.285    84 C    1.268   101 N    1.250
    84   6 C    3.832 --    85 C    1.582    83 C    1.268   116 H    0.998
    85   6 C    3.814 --    84 C    1.582    86 C    1.260   117 H    0.999
    86   6 C    3.891 --    87 C    1.344    85 C    1.260   101 N    1.220
    87   6 C    3.827 --    96 C    1.360    86 C    1.344    88 C    1.051
    88   6 C    3.905 --    95 C    1.425    89 C    1.423    87 C    1.051
    89   6 C    3.824 --    90 C    1.437    88 C    1.423   118 H    0.995
    90   6 C    3.923 --    89 C    1.437    92 C    1.430    91 C    1.010
    91   6 C    3.917 --    90 C    1.010   121 H    0.998   120 H    0.997
                           119 H    0.987
    92   6 C    3.835 --    93 C    1.432    90 C    1.430   122 H    0.995
    93   6 C    3.923 --    95 C    1.435    92 C    1.432    94 C    1.009
    94   6 C    3.917 --    93 C    1.009   124 H    0.997   123 H    0.996
                           125 H    0.987
    95   6 C    3.819 --    93 C    1.435    88 C    1.425   126 H    0.995
    96   6 C    3.943 --   100 N    1.378    87 C    1.360    97 C    1.154
    97   6 C    3.843 --    98 C    1.706    96 C    1.154   127 H    1.000
    98   6 C    3.861 --    97 C    1.706    99 C    1.147   128 H    0.994
    99   6 C    3.967 --    70 C    1.384   100 N    1.376    98 C    1.147
   100   7 N    2.546 --    96 C    1.378    99 C    1.376
   101   7 N    3.257 --    83 C    1.250    86 C    1.220   129 H    0.960
   102   6 C    3.905 --   103 C    1.429   109 C    1.422    76 C    1.049
   103   6 C    3.825 --   104 C    1.433   102 C    1.429   130 H    0.995
   104   6 C    3.924 --   106 C    1.434   103 C    1.433   105 C    1.010
   105   6 C    3.917 --   104 C    1.010   132 H    0.999   131 H    0.995
                           133 H    0.986
   106   6 C    3.835 --   104 C    1.434   107 C    1.428   134 H    0.994
   107   6 C    3.923 --   109 C    1.438   106 C    1.428   108 C    1.009
   108   6 C    3.918 --   107 C    1.009   135 H    0.997   137 H    0.997
                           136 H    0.987
   109   6 C    3.820 --   107 C    1.438   102 C    1.422   138 H    0.995
   110   1 H    1.033 --    70 C    0.996
   111   1 H    1.017 --    72 C    0.993
   112   1 H    1.035 --    73 C    0.999
   113   1 H    1.083 --    75 N    0.961
   114   1 H    1.038 --    78 C    0.999
   115   1 H    1.033 --    79 C    1.000
   116   1 H    1.029 --    84 C    0.998
   117   1 H    1.034 --    85 C    0.999
   118   1 H    1.043 --    89 C    0.995
   119   1 H    1.033 --    91 C    0.987
   120   1 H    1.035 --    91 C    0.997
   121   1 H    1.035 --    91 C    0.998
   122   1 H    1.019 --    92 C    0.995
   123   1 H    1.034 --    94 C    0.996
   124   1 H    1.035 --    94 C    0.997
   125   1 H    1.033 --    94 C    0.987
   126   1 H    1.040 --    95 C    0.995
   127   1 H    1.038 --    97 C    1.000
   128   1 H    1.020 --    98 C    0.994
   129   1 H    1.087 --   101 N    0.960
   130   1 H    1.043 --   103 C    0.995
   131   1 H    1.035 --   105 C    0.995
   132   1 H    1.035 --   105 C    0.999
   133   1 H    1.032 --   105 C    0.986
   134   1 H    1.019 --   106 C    0.994
   135   1 H    1.035 --   108 C    0.997
   136   1 H    1.033 --   108 C    0.987
   137   1 H    1.035 --   108 C    0.997
   138   1 H    1.039 --   109 C    0.995
   139   6 C    3.834 --   140 C    2.373   143 C    1.358   142 C    0.170
   140   6 C    3.832 --   139 C    2.373   141 C    1.356   144 C    0.169
   141   6 C    3.806 --   142 C    2.471   140 C    1.356
   142   6 C    3.765 --   141 C    2.471    13 C    1.222   139 C    0.170
   143   6 C    3.802 --   144 C    2.467   139 C    1.358
   144   6 C    3.768 --   143 C    2.467   163 C    1.226   140 C    0.169
   145   6 C    3.833 --   146 C    2.363   149 C    1.365   148 C    0.169
   146   6 C    3.833 --   145 C    2.363   147 C    1.365   150 C    0.169
   147   6 C    3.801 --   148 C    2.459   146 C    1.365
   148   6 C    3.766 --   147 C    2.459   175 C    1.233   145 C    0.169
   149   6 C    3.801 --   150 C    2.459   145 C    1.365
   150   6 C    3.766 --   149 C    2.459   231 C    1.233   146 C    0.169
   151   6 C    3.833 --   152 C    2.363   155 C    1.365   154 C    0.169
   152   6 C    3.832 --   151 C    2.363   153 C    1.365   156 C    0.169
   153   6 C    3.801 --   154 C    2.459   152 C    1.365
   154   6 C    3.766 --   153 C    2.459   243 C    1.233   151 C    0.169
   155   6 C    3.801 --   156 C    2.459   151 C    1.365
   156   6 C    3.766 --   155 C    2.459   299 C    1.233   152 C    0.169
   157   6 C    3.832 --   158 C    2.373   161 C    1.356   160 C    0.169
   158   6 C    3.834 --   157 C    2.373   159 C    1.358   162 C    0.170
   159   6 C    3.802 --   160 C    2.466   158 C    1.358
   160   6 C    3.768 --   159 C    2.466   311 C    1.227   157 C    0.169
   161   6 C    3.806 --   162 C    2.471   157 C    1.356
   162   6 C    3.765 --   161 C    2.471    82 C    1.222   158 C    0.170
   163   6 C    3.822 --   192 C    1.281   164 C    1.279   144 C    1.226
   164   6 C    3.904 --   163 C    1.279   165 C    1.272   168 N    1.252
   165   6 C    3.826 --   166 C    1.575   164 C    1.272   203 H    0.999
   166   6 C    3.819 --   165 C    1.575   167 C    1.266   204 H    0.999
   167   6 C    3.884 --   169 C    1.338   166 C    1.266   168 N    1.219
   168   7 N    3.247 --   164 C    1.252   167 C    1.219   205 H    0.962
   169   6 C    3.832 --   170 C    1.376   167 C    1.338   195 C    1.049
   170   6 C    3.923 --   169 C    1.376   173 N    1.347   171 C    1.163
   171   6 C    3.837 --   172 C    1.690   170 C    1.163   206 H    1.000
   172   6 C    3.848 --   171 C    1.690   174 C    1.169   207 H    1.000
   173   7 N    2.546 --   174 C    1.419   170 C    1.347
   174   6 C    3.942 --   173 N    1.419   175 C    1.279   172 C    1.169
   175   6 C    3.823 --   174 C    1.279   176 C    1.277   148 C    1.233
   176   6 C    3.903 --   175 C    1.277   177 C    1.274   194 N    1.252
   177   6 C    3.826 --   178 C    1.574   176 C    1.274   208 H    0.999
   178   6 C    3.817 --   177 C    1.574   179 C    1.267   209 H    0.999
   179   6 C    3.883 --   180 C    1.335   178 C    1.267   194 N    1.220
   180   6 C    3.831 --   189 C    1.378   179 C    1.335   181 C    1.049
   181   6 C    3.905 --   188 C    1.427   182 C    1.424   180 C    1.049
   182   6 C    3.824 --   183 C    1.438   181 C    1.424   210 H    0.995
   183   6 C    3.923 --   182 C    1.438   185 C    1.429   184 C    1.010
   184   6 C    3.917 --   183 C    1.010   213 H    0.997   212 H    0.997
                           211 H    0.987
   185   6 C    3.835 --   186 C    1.433   183 C    1.429   214 H    0.995
   186   6 C    3.923 --   185 C    1.433   188 C    1.433   187 C    1.009
   187   6 C    3.917 --   186 C    1.009   217 H    0.998   215 H    0.996
                           216 H    0.986
   188   6 C    3.819 --   186 C    1.433   181 C    1.427   218 H    0.995
   189   6 C    3.924 --   180 C    1.378   193 N    1.347   190 C    1.163
   190   6 C    3.838 --   191 C    1.691   189 C    1.163   219 H    1.000
   191   6 C    3.848 --   190 C    1.691   192 C    1.168   220 H    1.000
   192   6 C    3.943 --   193 N    1.418   163 C    1.281   191 C    1.168
   193   7 N    2.545 --   192 C    1.418   189 C    1.347
   194   7 N    3.249 --   176 C    1.252   179 C    1.220   221 H    0.962
   195   6 C    3.905 --   196 C    1.429   202 C    1.423   169 C    1.049
   196   6 C    3.819 --   197 C    1.432   195 C    1.429   222 H    0.995
   197   6 C    3.923 --   199 C    1.435   196 C    1.432   198 C    1.009
   198   6 C    3.917 --   197 C    1.009   223 H    0.999   224 H    0.995
                           225 H    0.987
   199   6 C    3.835 --   197 C    1.435   200 C    1.428   226 H    0.994
   200   6 C    3.923 --   202 C    1.439   199 C    1.428   201 C    1.010
   201   6 C    3.917 --   200 C    1.010   227 H    0.997   228 H    0.997
                           229 H    0.987
   202   6 C    3.824 --   200 C    1.439   195 C    1.423   230 H    0.995
   203   1 H    1.029 --   165 C    0.999
   204   1 H    1.035 --   166 C    0.999
   205   1 H    1.085 --   168 N    0.962
   206   1 H    1.040 --   171 C    1.000
   207   1 H    1.033 --   172 C    1.000
   208   1 H    1.029 --   177 C    0.999
   209   1 H    1.034 --   178 C    0.999
   210   1 H    1.043 --   182 C    0.995
   211   1 H    1.033 --   184 C    0.987
   212   1 H    1.035 --   184 C    0.997
   213   1 H    1.035 --   184 C    0.997
   214   1 H    1.019 --   185 C    0.995
   215   1 H    1.035 --   187 C    0.996
   216   1 H    1.032 --   187 C    0.986
   217   1 H    1.036 --   187 C    0.998
   218   1 H    1.039 --   188 C    0.995
   219   1 H    1.040 --   190 C    1.000
   220   1 H    1.033 --   191 C    1.000
   221   1 H    1.085 --   194 N    0.962
   222   1 H    1.039 --   196 C    0.995
   223   1 H    1.036 --   198 C    0.999
   224   1 H    1.035 --   198 C    0.995
   225   1 H    1.033 --   198 C    0.987
   226   1 H    1.020 --   199 C    0.994
   227   1 H    1.035 --   201 C    0.997
   228   1 H    1.035 --   201 C    0.997
   229   1 H    1.033 --   201 C    0.987
   230   1 H    1.043 --   202 C    0.995
   231   6 C    3.823 --   260 C    1.279   232 C    1.276   150 C    1.233
   232   6 C    3.903 --   231 C    1.276   233 C    1.274   236 N    1.253
   233   6 C    3.826 --   234 C    1.574   232 C    1.274   271 H    0.999
   234   6 C    3.818 --   233 C    1.574   235 C    1.267   272 H    0.999
   235   6 C    3.884 --   237 C    1.336   234 C    1.267   236 N    1.219
   236   7 N    3.248 --   232 C    1.253   235 C    1.219   273 H    0.962
   237   6 C    3.832 --   238 C    1.377   235 C    1.336   263 C    1.049
   238   6 C    3.923 --   237 C    1.377   241 N    1.347   239 C    1.163
   239   6 C    3.837 --   240 C    1.690   238 C    1.163   274 H    1.000
   240   6 C    3.848 --   239 C    1.690   242 C    1.168   275 H    1.000
   241   7 N    2.546 --   242 C    1.420   238 C    1.347
   242   6 C    3.942 --   241 N    1.420   243 C    1.279   240 C    1.168
   243   6 C    3.823 --   242 C    1.279   244 C    1.276   154 C    1.233
   244   6 C    3.903 --   243 C    1.276   245 C    1.274   262 N    1.253
   245   6 C    3.826 --   246 C    1.574   244 C    1.274   276 H    0.999
   246   6 C    3.818 --   245 C    1.574   247 C    1.267   277 H    0.999
   247   6 C    3.884 --   248 C    1.336   246 C    1.267   262 N    1.220
   248   6 C    3.832 --   257 C    1.377   247 C    1.336   249 C    1.049
   249   6 C    3.905 --   256 C    1.428   250 C    1.423   248 C    1.049
   250   6 C    3.824 --   251 C    1.439   249 C    1.423   278 H    0.995
   251   6 C    3.923 --   250 C    1.439   253 C    1.428   252 C    1.010
   252   6 C    3.917 --   251 C    1.010   281 H    0.997   280 H    0.996
                           279 H    0.987
   253   6 C    3.835 --   254 C    1.434   251 C    1.428   282 H    0.995
   254   6 C    3.923 --   253 C    1.434   256 C    1.433   255 C    1.009
   255   6 C    3.917 --   254 C    1.009   285 H    0.999   283 H    0.996
                           284 H    0.986
   256   6 C    3.819 --   254 C    1.433   249 C    1.428   286 H    0.995
   257   6 C    3.923 --   248 C    1.377   261 N    1.347   258 C    1.163
   258   6 C    3.837 --   259 C    1.690   257 C    1.163   287 H    1.000
   259   6 C    3.848 --   258 C    1.690   260 C    1.169   288 H    1.000
   260   6 C    3.942 --   261 N    1.419   231 C    1.279   259 C    1.169
   261   7 N    2.546 --   260 C    1.419   257 C    1.347
   262   7 N    3.248 --   244 C    1.253   247 C    1.220   289 H    0.962
   263   6 C    3.905 --   264 C    1.428   270 C    1.423   237 C    1.049
   264   6 C    3.819 --   265 C    1.433   263 C    1.428   290 H    0.995
   265   6 C    3.923 --   267 C    1.434   264 C    1.433   266 C    1.009
   266   6 C    3.917 --   265 C    1.009   291 H    0.999   292 H    0.996
                           293 H    0.986
   267   6 C    3.835 --   265 C    1.434   268 C    1.428   294 H    0.995
   268   6 C    3.923 --   270 C    1.438   267 C    1.428   269 C    1.010
   269   6 C    3.917 --   268 C    1.010   295 H    0.997   296 H    0.997
                           297 H    0.987
   270   6 C    3.824 --   268 C    1.438   263 C    1.423   298 H    0.995
   271   1 H    1.029 --   233 C    0.999
   272   1 H    1.035 --   234 C    0.999
   273   1 H    1.085 --   236 N    0.962
   274   1 H    1.040 --   239 C    1.000
   275   1 H    1.033 --   240 C    1.000
   276   1 H    1.029 --   245 C    0.999
   277   1 H    1.034 --   246 C    0.999
   278   1 H    1.043 --   250 C    0.995
   279   1 H    1.033 --   252 C    0.987
   280   1 H    1.035 --   252 C    0.996
   281   1 H    1.035 --   252 C    0.997
   282   1 H    1.019 --   253 C    0.995
   283   1 H    1.035 --   255 C    0.996
   284   1 H    1.032 --   255 C    0.986
   285   1 H    1.036 --   255 C    0.999
   286   1 H    1.039 --   256 C    0.995
   287   1 H    1.040 --   258 C    1.000
   288   1 H    1.033 --   259 C    1.000
   289   1 H    1.085 --   262 N    0.962
   290   1 H    1.039 --   264 C    0.995
   291   1 H    1.036 --   266 C    0.999
   292   1 H    1.035 --   266 C    0.996
   293   1 H    1.032 --   266 C    0.986
   294   1 H    1.020 --   267 C    0.995
   295   1 H    1.035 --   269 C    0.997
   296   1 H    1.035 --   269 C    0.997
   297   1 H    1.033 --   269 C    0.987
   298   1 H    1.043 --   270 C    0.995
   299   6 C    3.823 --   328 C    1.278   300 C    1.277   156 C    1.233
   300   6 C    3.903 --   299 C    1.277   301 C    1.274   304 N    1.252
   301   6 C    3.826 --   302 C    1.574   300 C    1.274   339 H    0.999
   302   6 C    3.817 --   301 C    1.574   303 C    1.267   340 H    0.999
   303   6 C    3.883 --   305 C    1.335   302 C    1.267   304 N    1.220
   304   7 N    3.249 --   300 C    1.252   303 C    1.220   341 H    0.962
   305   6 C    3.831 --   306 C    1.377   303 C    1.335   331 C    1.050
   306   6 C    3.924 --   305 C    1.377   309 N    1.347   307 C    1.163
   307   6 C    3.838 --   308 C    1.691   306 C    1.163   342 H    1.000
   308   6 C    3.848 --   307 C    1.691   310 C    1.168   343 H    1.000
   309   7 N    2.544 --   310 C    1.418   306 C    1.347
   310   6 C    3.943 --   309 N    1.418   311 C    1.281   308 C    1.168
   311   6 C    3.822 --   310 C    1.281   312 C    1.278   160 C    1.227
   312   6 C    3.904 --   311 C    1.278   313 C    1.272   330 N    1.252
   313   6 C    3.825 --   314 C    1.575   312 C    1.272   344 H    0.999
   314   6 C    3.819 --   313 C    1.575   315 C    1.266   345 H    0.999
   315   6 C    3.884 --   316 C    1.337   314 C    1.266   330 N    1.219
   316   6 C    3.832 --   325 C    1.376   315 C    1.337   317 C    1.049
   317   6 C    3.905 --   324 C    1.429   318 C    1.422   316 C    1.049
   318   6 C    3.824 --   319 C    1.440   317 C    1.422   346 H    0.995
   319   6 C    3.923 --   318 C    1.440   321 C    1.427   320 C    1.010
   320   6 C    3.917 --   319 C    1.010   349 H    0.997   348 H    0.996
                           347 H    0.987
   321   6 C    3.835 --   322 C    1.435   319 C    1.427   350 H    0.995
   322   6 C    3.923 --   321 C    1.435   324 C    1.432   323 C    1.009
   323   6 C    3.917 --   322 C    1.009   353 H    0.999   351 H    0.995
                           352 H    0.987
   324   6 C    3.819 --   322 C    1.432   317 C    1.429   354 H    0.995
   325   6 C    3.923 --   316 C    1.376   329 N    1.347   326 C    1.163
   326   6 C    3.837 --   327 C    1.689   325 C    1.163   355 H    1.000
   327   6 C    3.848 --   326 C    1.689   328 C    1.169   356 H    1.000
   328   6 C    3.942 --   329 N    1.419   299 C    1.278   327 C    1.169
   329   7 N    2.546 --   328 C    1.419   325 C    1.347
   330   7 N    3.247 --   312 C    1.252   315 C    1.219   357 H    0.962
   331   6 C    3.905 --   332 C    1.427   338 C    1.424   305 C    1.050
   332   6 C    3.819 --   333 C    1.434   331 C    1.427   358 H    0.995
   333   6 C    3.923 --   332 C    1.434   335 C    1.433   334 C    1.009
   334   6 C    3.917 --   333 C    1.009   359 H    0.998   360 H    0.996
                           361 H    0.986
   335   6 C    3.835 --   333 C    1.433   336 C    1.429   362 H    0.995
   336   6 C    3.923 --   338 C    1.438   335 C    1.429   337 C    1.010
   337   6 C    3.917 --   336 C    1.010   363 H    0.997   364 H    0.997
                           365 H    0.987
   338   6 C    3.824 --   336 C    1.438   331 C    1.424   366 H    0.995
   339   1 H    1.029 --   301 C    0.999
   340   1 H    1.034 --   302 C    0.999
   341   1 H    1.085 --   304 N    0.962
   342   1 H    1.040 --   307 C    1.000
   343   1 H    1.033 --   308 C    1.000
   344   1 H    1.029 --   313 C    0.999
   345   1 H    1.035 --   314 C    0.999
   346   1 H    1.043 --   318 C    0.995
   347   1 H    1.033 --   320 C    0.987
   348   1 H    1.035 --   320 C    0.996
   349   1 H    1.035 --   320 C    0.997
   350   1 H    1.020 --   321 C    0.995
   351   1 H    1.035 --   323 C    0.995
   352   1 H    1.033 --   323 C    0.987
   353   1 H    1.035 --   323 C    0.999
   354   1 H    1.039 --   324 C    0.995
   355   1 H    1.040 --   326 C    1.000
   356   1 H    1.033 --   327 C    1.000
   357   1 H    1.085 --   330 N    0.962
   358   1 H    1.039 --   332 C    0.995
   359   1 H    1.036 --   334 C    0.998
   360   1 H    1.035 --   334 C    0.996
   361   1 H    1.032 --   334 C    0.986
   362   1 H    1.019 --   335 C    0.995
   363   1 H    1.035 --   337 C    0.997
   364   1 H    1.035 --   337 C    0.997
   365   1 H    1.033 --   337 C    0.987
   366   1 H    1.043 --   338 C    0.995
 ---------------------------------------------------------------------------

Topologies differ in total number of bonds
Writing topology from bond orders to xtbtopo.mol

 dipole moment from electron density (au)
     X       Y       Z   
-164.9985   0.0270  -0.2820  total (Debye):  419.385


           -------------------------------------------------
          | TOTAL ENERGY             -648.073166556188 Eh   |
          | GRADIENT NORM               0.096884447273 Eh/α |
          | HOMO-LUMO GAP               0.098014448500 eV   |
           -------------------------------------------------
########################################################################
[WARNING] Runtime exception occurred
-1- restart_readRestart: Dimension missmatch in restart file.
########################################################################

------------------------------------------------------------------------
 * finished run on 2022/07/27 at 22:04:01.933     
------------------------------------------------------------------------
 total:
 * wall-time:     0 d,  0 h,  1 min,  7.691 sec
 *  cpu-time:     0 d,  0 h,  1 min,  7.282 sec
 * ratio c/w:     0.994 speedup
 SCF:
 * wall-time:     0 d,  0 h,  1 min,  6.611 sec
 *  cpu-time:     0 d,  0 h,  1 min,  6.217 sec
 * ratio c/w:     0.994 speedup

