250
 energy: -427.353473232703 gnorm: 6.722471696552 xtb: 6.5.1 (b24c23e)
Co          47.57614000000000       -0.03678400000000        0.04016300000000
C           44.23454600000000        0.10650400000000        0.03066100000000
C           44.89681500000000        1.14557800000000       -0.48612900000000
C           44.24626599999999        2.29343400000000       -1.10631400000000
C           45.18648099999999        3.14191900000000       -1.47875800000000
C           46.49140400000000        2.58105500000000       -1.10189200000000
N           46.31425099999999        1.30755000000000       -0.48012900000000
C           47.68352600000000        3.18316900000000       -1.29452900000000
C           47.73325000000000        4.52870200000000       -1.91125000000000
C           48.29019000000000        4.69668100000000       -3.18793300000000
C           48.35344799999999        5.96768600000000       -3.76658900000000
C           47.86443999999999        7.08422400000000       -3.07365900000000
N           47.92935000000000        8.38404100000000       -3.66616800000000
C           47.31339100000000        6.91831900000000       -1.79510500000000
C           47.25047600000000        5.64796700000000       -1.21509100000000
C           48.97471400000000        2.55804100000000       -0.90446100000000
C           50.25817000000000        3.27068200000000       -0.89829100000000
C           51.19268300000000        2.41531200000000       -0.53640400000000
N           49.11737699999999        1.31615100000000       -0.55554300000000
C           50.51256899999999        1.14692000000000       -0.30487500000000
C           51.10676699999999       -0.01121500000000        0.02553100000000
C           50.34318399999999       -1.25722600000000        0.25833600000000
C           50.87370500000000       -2.47341200000000        0.23848400000000
C           49.83080900000000       -3.40501100000000        0.62222900000000
C           48.73317599999999       -2.69493200000000        0.85599800000000
N           48.96702200000000       -1.30309000000000        0.63557200000000
C           47.45456200000000       -3.26595600000000        1.35150800000000
C           47.47738199999999       -4.60394200000000        1.99141800000000
C           48.21633400000000       -4.80790800000000        3.16694700000000
C           48.25731000000000       -6.07156200000000        3.76340800000000
C           47.56512700000000       -7.14663200000000        3.18846800000000
N           47.60752500000000       -8.43898800000000        3.79907600000000
C           46.83366800000000       -6.94707200000000        2.00926200000000
C           46.79261500000000       -5.68412000000000        1.41145000000000
C           46.29250500000000       -2.59484600000000        1.23541900000000
C           44.98517300000000       -3.03748000000000        1.71736400000000
C           44.12351099999999       -2.11089600000000        1.34465600000000
C           44.87196900000000       -1.07206600000000        0.63901200000000
N           46.13682900000000       -1.34352600000000        0.56922600000000
H           43.15118300000000        0.12446700000000        0.00720200000000
H           43.18295499999999        2.43697600000000       -1.24956300000000
H           44.99868100000000        4.08378800000000       -1.97735200000000
H           48.67325100000000        3.84306200000000       -3.73372600000000
H           48.78379600000000        6.08260900000000       -4.75345000000000
H           48.33867900000000        8.51798700000000       -4.61768000000000
H           47.56835900000000        9.22194400000000       -3.15776100000000
H           46.93519700000000        7.77275300000000       -1.24810800000000
H           46.82779899999999        5.53500500000000       -0.22422200000000
H           50.42908800000000        4.31108100000000       -1.14174100000000
H           52.24645800000000        2.64056000000000       -0.44026400000000
H           51.89938700000000       -2.72865900000000        0.00807700000000
H           49.93955600000000       -4.47698700000000        0.72439600000000
H           48.75731600000000       -3.98714600000000        3.62193800000000
H           48.82868999999999       -6.21311300000000        4.67215000000000
H           48.15051500000000       -8.59789700000000        4.67701300000000
H           47.09602500000000       -9.24632100000000        3.37782700000000
H           46.29860300000000       -7.77006300000000        1.55242100000000
H           46.23117800000000       -5.54755100000000        0.49528500000000
H           44.74333600000000       -3.93553100000000        2.27032800000000
H           43.05895800000000       -2.12714000000000        1.53804800000000
Co          87.79465700000000        0.01510700000000        0.01230400000000
C           91.13625000000000       -0.07198300000000        0.12648400000000
C           90.47398200000001       -1.07684000000000        0.70700700000000
C           91.12452999999998       -2.22798200000000        1.32107200000000
C           90.18431500000000       -3.00722300000000        1.82249600000000
C           88.87939200000000       -2.38321400000000        1.56324600000000
N           89.05654599999998       -1.16133300000000        0.84532600000000
C           87.68727000000000       -2.87646000000000        1.95866900000000
C           87.63754700000000       -4.13393600000000        2.73941000000000
C           87.08060600000000       -5.29085800000000        2.17401900000000
C           87.01734800000000       -6.47543000000000        2.91367400000000
C           87.50635600000000       -6.51479200000000        4.22716500000000
N           87.44144599999998       -7.72682800000000        4.98318100000000
C           88.05740500000000       -5.35745600000000        4.79531800000000
C           88.12032000000001       -4.17211400000000        4.05695900000000
C           86.39608200000001       -2.20594100000000        1.65315000000000
C           85.11262599999999       -2.59455100000000        2.25054200000000
C           84.17811299999998       -1.82030600000000        1.73754700000000
N           86.25342000000001       -1.22894300000000        0.81082600000000
C           84.85822700000000       -0.92650700000000        0.80827400000000
C           84.26402899999999       -0.01121500000000        0.02553100000000
C           85.02761200000000        0.87128000000000       -0.88438300000000
C           84.49709100000000        1.52670800000000       -1.90903600000000
C           85.53998700000000        2.36129100000000       -2.47349200000000
C           86.63762100000000        2.16379800000000       -1.75248100000000
N           86.40377400000000        1.21104600000000       -0.71417700000000
C           87.91623399999999        2.89230900000000       -1.95464400000000
C           87.89341400000001        4.16494400000000       -2.71628300000000
C           87.15446199999998        5.25743900000000       -2.23677700000000
C           87.11348599999998        6.45278900000000       -2.96046700000000
C           87.80566899999999        6.56758300000000       -4.17420200000000
N           87.76327100000000        7.79058200000000       -4.91399900000000
C           88.53712899999998        5.47445700000000       -4.65941200000000
C           88.57818100000000        4.27837000000000       -3.93705400000000
C           89.07829099999999        2.42474400000000       -1.45941900000000
C           90.38562300000000        3.07101000000000       -1.56206600000000
C           91.24728500000001        2.24839800000000       -0.99569200000000
C           90.49882800000000        1.08626600000000       -0.51972000000000
N           89.23396699999999        1.17808900000000       -0.78453800000000
H           92.21961299999998       -0.10146100000000        0.12849400000000
H           92.18784100000001       -2.42669000000000        1.36156500000000
H           90.37211499999999       -3.94320500000000        2.33205300000000
H           86.69754500000001       -5.27412800000000        1.16096700000000
H           86.58700000000000       -7.36147100000000        2.46419500000000
H           87.03211700000000       -8.59391800000000        4.56908900000000
H           87.80243699999998       -7.76603600000000        5.96247700000000
H           88.43559900000000       -5.37363300000000        5.80971600000000
H           88.54299699999999       -3.28381500000000        4.51028600000000
H           84.94170800000001       -3.37231200000000        2.98319800000000
H           83.12433799999999       -1.86462800000000        1.97841000000000
H           83.47141000000001        1.47569500000000       -2.24909000000000
H           85.43123999999999        3.03874100000000       -3.31052900000000
H           86.61348000000000        5.18317900000000       -1.30128200000000
H           86.54210599999999        7.28843100000000       -2.57634500000000
H           87.22028200000000        8.61014000000000       -4.56136600000000
H           88.27477100000000        7.88554500000000       -5.81965800000000
H           89.07219300000000        5.54840700000000       -5.59778800000000
H           89.13961799999998        3.43929200000000       -4.32943000000000
H           90.62746000000000        4.02810000000000       -2.00506000000000
H           92.31183799999999        2.41856400000000       -0.90237800000000
C           54.20242099999999        0.00122100000000        0.02797300000000
C           52.95015099999999       -0.01796000000000        0.02362500000000
C           55.51608899999999        0.00045500000000        0.02990500000000
C           57.01922299999999       -0.01796000000000        0.02362500000000
C           66.94813499999999        0.00122100000000        0.02797300000000
C           65.69586500000000       -0.01796000000000        0.02362500000000
C           68.26180400000000        0.00045500000000        0.02990500000000
C           69.76493699999999       -0.01796000000000        0.02362500000000
C           79.69385000000000        0.00122100000000        0.02797300000000
C           78.44157900000000       -0.01796000000000        0.02362500000000
C           81.00751800000000        0.00045500000000        0.02990500000000
C           82.51065199999999       -0.01796000000000        0.02362500000000
Co          61.34711600000000       -0.04307200000000        0.05347800000000
C           57.86293100000000        0.01323200000000       -0.02836700000000
C           58.51979100000000        1.12312700000000       -0.41231400000000
C           57.87506600000000        2.35521300000000       -0.87243200000000
C           58.81308900000000        3.25081100000000       -1.10694100000000
C           60.11593800000000        2.64302100000000       -0.81717300000000
N           59.93952000000000        1.29300100000000       -0.37966400000000
C           61.29997300000000        3.28538100000000       -0.90418500000000
C           61.32135200000000        4.70547600000000       -1.31830000000000
C           61.18768000000000        5.04877000000000       -2.67212200000000
C           61.20470599999999        6.39151100000000       -3.06124400000000
C           61.35829499999999        7.40289900000000       -2.10157100000000
N           61.37622100000000        8.77622500000000       -2.50035900000000
C           61.49394800000000        7.05880900000000       -0.74850500000000
C           61.47484300000000        5.71655400000000       -0.35813200000000
C           62.60346300000000        2.64157100000000       -0.60002700000000
C           63.88237700000000        3.36267600000000       -0.56557300000000
C           64.83386400000001        2.48592900000000       -0.31969300000000
N           62.76690500000000        1.37160700000000       -0.39156600000000
C           64.17115300000000        1.19344500000000       -0.20363400000000
C           64.78624400000000        0.01323200000000       -0.02836700000000
C           64.04088500000000       -1.26119600000000        0.06676500000000
C           64.58938700000000       -2.46082800000000       -0.07858000000000
C           63.55686399999999       -3.44133500000000        0.19160100000000
C           62.44696300000000       -2.77469800000000        0.48678900000000
N           62.66148700000000       -1.36501100000000        0.41882200000000
C           61.18174700000000       -3.41096500000000        0.92892900000000
C           61.23493100000000       -4.79897900000000        1.44869100000000
C           60.58996900000000       -5.84190100000000        0.76248800000000
C           60.65611700000000       -7.15102200000000        1.24877500000000
C           61.37176200000000       -7.43296600000000        2.42203000000000
N           61.43592600000000       -8.77161000000000        2.92164800000000
C           62.02500100000000       -6.39393000000000        3.10228200000000
C           61.96070900000000       -5.08480800000000        2.61567000000000
C           60.00579999999999       -2.75538300000000        0.88623500000000
C           58.72320500000000       -3.26923100000000        1.35585800000000
C           57.83493799999999       -2.33340800000000        1.09239800000000
C           58.53837400000000       -1.21303200000000        0.45767000000000
N           59.80812400000000       -1.45181500000000        0.33712600000000
H           56.81570300000000        2.53702400000000       -0.99631200000000
H           58.62369200000000        4.26146000000000       -1.44633000000000
H           61.06854300000000        4.27646900000000       -3.42264500000000
H           61.09875600000000        6.64367100000000       -4.10905800000000
H           61.27711499999999        9.04225100000000       -3.50545200000000
H           61.49371799999999        9.53643600000000       -1.79339700000000
H           61.61442099999999        7.83028200000000        0.00202600000000
H           61.58033700000000        5.46355800000000        0.69006300000000
H           64.04135300000000        4.42179500000000       -0.71897900000000
H           65.88892700000000        2.71073800000000       -0.23917600000000
H           65.62069900000000       -2.67694000000000       -0.32231600000000
H           63.68258200000000       -4.51649900000000        0.18998700000000
H           60.03879899999999       -5.63966300000000       -0.14832900000000
H           60.15151199999999       -7.94530400000000        0.71113900000000
H           61.96583799999999       -8.99173200000000        3.79482600000000
H           60.95057000000000       -9.55207200000000        2.42478100000000
H           62.58352700000000       -6.59848700000000        4.00835000000000
H           62.47133300000000       -4.29241500000000        3.15083100000000
H           58.51558499999999       -4.21680700000000        1.83575400000000
H           56.78049800000000       -2.40045400000000        1.32369900000000
Co          74.09283100000000       -0.04307200000000        0.05347800000000
C           70.60864500000000        0.01323200000000       -0.02836700000000
C           71.26550500000000        1.12312700000000       -0.41231400000000
C           70.62078000000000        2.35521300000000       -0.87243200000000
C           71.55880399999999        3.25081100000000       -1.10694100000000
C           72.86165200000001        2.64302100000000       -0.81717300000000
N           72.68523399999999        1.29300100000000       -0.37966400000000
C           74.04568800000000        3.28538100000000       -0.90418500000000
C           74.06706600000000        4.70547600000000       -1.31830000000000
C           73.93339400000001        5.04877000000000       -2.67212200000000
C           73.95041999999999        6.39151100000000       -3.06124400000000
C           74.10400899999999        7.40289900000000       -2.10157100000000
N           74.12193599999999        8.77622500000000       -2.50035900000000
C           74.23966200000000        7.05880900000000       -0.74850500000000
C           74.22055800000000        5.71655400000000       -0.35813200000000
C           75.34917700000000        2.64157100000000       -0.60002700000000
C           76.62809100000000        3.36267600000000       -0.56557300000000
C           77.57957900000000        2.48592900000000       -0.31969300000000
N           75.51262000000000        1.37160700000000       -0.39156600000000
C           76.91686700000000        1.19344500000000       -0.20363400000000
C           77.53195799999999        0.01323200000000       -0.02836700000000
C           76.78660000000001       -1.26119600000000        0.06676500000000
C           77.33510099999999       -2.46082800000000       -0.07858000000000
C           76.30257799999998       -3.44133500000000        0.19160100000000
C           75.19267800000000       -2.77469800000000        0.48678900000000
N           75.40720200000000       -1.36501100000000        0.41882200000000
C           73.92746200000001       -3.41096500000000        0.92892900000000
C           73.98064499999998       -4.79897900000000        1.44869100000000
C           73.33568300000000       -5.84190100000000        0.76248800000000
C           73.40183200000000       -7.15102200000000        1.24877500000000
C           74.11747600000000       -7.43296600000000        2.42203000000000
N           74.18164100000000       -8.77161000000000        2.92164800000000
C           74.77071500000000       -6.39393000000000        3.10228200000000
C           74.70642400000000       -5.08480800000000        2.61567000000000
C           72.75151400000000       -2.75538300000000        0.88623500000000
C           71.46891900000000       -3.26923100000000        1.35585800000000
C           70.58065199999999       -2.33340800000000        1.09239800000000
C           71.28408800000000       -1.21303200000000        0.45767000000000
N           72.55383800000000       -1.45181500000000        0.33712600000000
H           69.56141800000000        2.53702400000000       -0.99631200000000
H           71.36940700000000        4.26146000000000       -1.44633000000000
H           73.81425800000000        4.27646900000000       -3.42264500000000
H           73.84447000000000        6.64367100000000       -4.10905800000000
H           74.02282899999999        9.04225100000000       -3.50545200000000
H           74.23943299999999        9.53643600000000       -1.79339700000000
H           74.36013499999999        7.83028200000000        0.00202600000000
H           74.32605100000001        5.46355800000000        0.69006300000000
H           76.78706699999999        4.42179500000000       -0.71897900000000
H           78.63464200000000        2.71073800000000       -0.23917600000000
H           78.36641299999999       -2.67694000000000       -0.32231600000000
H           76.42829700000000       -4.51649900000000        0.18998700000000
H           72.78451300000000       -5.63966300000000       -0.14832900000000
H           72.89722599999999       -7.94530400000000        0.71113900000000
H           74.71155200000000       -8.99173200000000        3.79482600000000
H           73.69628400000001       -9.55207200000000        2.42478100000000
H           75.32924100000000       -6.59848700000000        4.00835000000000
H           75.21704699999999       -4.29241500000000        3.15083100000000
H           71.26130000000001       -4.21680700000000        1.83575400000000
H           69.52621200000000       -2.40045400000000        1.32369900000000
250
 energy: -429.763927375119 gnorm: 1.327171445228 xtb: 6.5.1 (b24c23e)
Co          47.57769223795560       -0.03616611431549        0.04013508324291
C           44.23483651727123        0.10242260272900        0.03283443917080
C           44.89948996381815        1.14672353193674       -0.48663084474663
C           44.24550790950114        2.29187190121242       -1.10560274087629
C           45.18869604455533        3.14274200169862       -1.47901330527993
C           46.49013238604879        2.57841887483395       -1.10080977468987
N           46.31135864813659        1.30945687220645       -0.48154757501184
C           47.68780011270994        3.18253114988230       -1.29383633183383
C           47.73366976791228        4.52913593619272       -1.91122963642242
C           48.29001623495374        4.69795648054837       -3.18759311197176
C           48.35321175240501        5.96743177113651       -3.76603184361592
C           47.86456345893500        7.08673461323550       -3.07480749024955
N           47.92932187533231        8.38344653157759       -3.66589516072474
C           47.31354947309050        6.91771150476063       -1.79528961668543
C           47.25072111874881        5.64848408949478       -1.21629314326873
C           48.97210012482570        2.56226559835541       -0.90627812766963
C           50.25514247340915        3.27274884804938       -0.89947748805283
C           51.19339050064574        2.41318009245355       -0.53572294298207
N           49.11872202020695        1.31319617790896       -0.55347865631096
C           50.51292225762197        1.14789452273391       -0.30510429031425
C           51.11344272831705       -0.01461910126517        0.02580240497108
C           50.34209724436695       -1.25127303161457        0.25890891846760
C           50.87386074910566       -2.47966268333575        0.23938172438728
C           49.83674289428916       -3.40591376148069        0.62106685372990
C           48.72821237155145       -2.69114571897520        0.85744441352731
N           48.96712613441123       -1.30417473053099        0.63399273171268
C           47.45779118116845       -3.26493958056501        1.35063832279137
C           47.47794000152523       -4.60403103470815        1.99110000471845
C           48.21605037191330       -4.80914380787879        3.16667597665568
C           48.25700081164288       -6.07121670237711        3.76288182982486
C           47.56520767059819       -7.14918555891988        3.18967757581311
N           47.60750397771031       -8.43835568214517        3.79877462435322
C           46.83390180427793       -6.94643100839488        2.00936857029309
C           46.79295751849269       -5.68458458982987        1.41260122756210
C           46.29155407964199       -2.59400554636905        1.23515653345364
C           44.98755438813492       -3.03840746759866        1.71747042242237
C           44.12159131170241       -2.10835895963670        1.34342362325180
C           44.86725475475845       -1.06929213877975        0.63785054672152
N           46.13955320438352       -1.34463795513592        0.57029210801781
H           43.15120966733334        0.12420761210155        0.00742730186939
H           43.18298934834578        2.43634686040552       -1.24924273061937
H           44.99952077289743        4.08383050172252       -1.97730374864292
H           48.67318481808805        3.84309563322891       -3.73361589039401
H           48.78378479615812        6.08267785364702       -4.75348597759722
H           48.33740912995194        8.51737248628392       -4.61466027485126
H           47.56945990585945        9.21916410160428       -3.15923338906490
H           46.93521768578479        7.77282544876894       -1.24813345728921
H           46.82786829976219        5.53493852192315       -0.22431410618156
H           50.42839343824215        4.31120427768806       -1.14188757496388
H           52.24637888348706        2.63972768866677       -0.44004216989211
H           51.89928849753911       -2.72885443907158        0.00808806035619
H           49.93979006129820       -4.47688935012121        0.72424473957824
H           48.75723523089857       -3.98717614358394        3.62183395526553
H           48.82867321596301       -6.21317036158069        4.67218519418474
H           48.14883941579400       -8.59720553217964        4.67421717516575
H           47.09759198413588       -9.24363738774441        3.37902640313347
H           46.29862632781892       -7.77012708532528        1.55243789326908
H           46.23126664038996       -5.54748802924169        0.49535714593663
H           44.74412895763333       -3.93553628828746        2.27020376995177
H           43.05887298100665       -2.12658502645904        1.53776142822320
Co          87.79311949796589        0.01473080387324        0.01278734542670
C           91.13595545505451       -0.06792458156786        0.12428896578115
C           90.47131184841568       -1.07789260931261        0.70768918983386
C           91.12529351309288       -2.22652822435241        1.32016361663002
C           90.18210084710438       -3.00788842572394        1.82304321738810
C           88.88069403440029       -2.38083027300963        1.56161606991545
N           89.05943380104215       -1.16359059129678        0.84614263826775
C           87.68293717785400       -2.87552219147076        1.95852582321510
C           87.63712765291355       -4.13416032355498        2.73977981172134
C           87.08078010985868       -5.29127863480740        2.17526913509601
C           87.01758480814985       -6.47482497626633        2.91377105844187
C           87.50623232010632       -6.51713580619741        4.22862233524285
N           87.44147413558773       -7.72627295591630        4.98283663182014
C           88.05724603350075       -5.35727430140861        4.79470898539261
C           88.12007577647589       -4.17340025455532        4.05672476264879
C           86.39872006448114       -2.20984930559792        1.65575013475220
C           85.11571220969708       -2.59671242134433        2.25162071427038
C           84.17742714371307       -1.81850470046705        1.73610426455295
N           86.25195791253221       -1.22549701157964        0.80947983507105
C           84.85822398088956       -0.92763097012452        0.80913369684869
C           84.25628965157453       -0.00900678869391        0.02277594769680
C           85.02885757956933        0.86870672053912       -0.87917289384652
C           84.49694377736624        1.53086586194352       -1.91373508542685
C           85.53406562132128        2.36082742174677       -2.47488207222610
C           86.64258308733395        2.16291406549418       -1.74853128321879
N           86.40362751297552        1.21030963708197       -0.71596657485032
C           87.91299862751387        2.89101844154311       -1.95428599817605
C           87.89285527295161        4.16472962490812       -2.71652671697033
C           87.15474329403955        5.25789839684398       -2.23795696408857
C           87.11379502304099        6.45215857388871       -2.96046805694541
C           87.80558721833106        6.57000853940286       -4.17566663859819
N           87.76329494350438        7.78997659971564       -4.91363338080494
C           88.53689540346171        5.47418983470404       -4.65881805273862
C           88.57784115635363        4.27958579825894       -3.93680513634025
C           89.07925173279399        2.42405633471690       -1.45886309073257
C           90.38323812868340        3.07161145446164       -1.56278055094561
C           91.24920646371915        2.24596621511725       -0.99425781445716
C           90.50353556491579        1.08377775966174       -0.51805884099961
N           89.23124280875980        1.17959633800424       -0.78485879202616
H           92.21958615386409       -0.10113103982312        0.12840124969183
H           92.18780686104117       -2.42607542091118        1.36121772360815
H           90.37127494100673       -3.94318796293926        2.33211514746152
H           86.69761111499625       -5.27405433612063        1.16105601970363
H           86.58701100261169       -7.36153887682984        2.46423242146849
H           87.03338714031251       -8.59106127096176        4.57024535708295
H           87.80133613932115       -7.76572710468883        5.95934649307655
H           88.43557808154961       -5.37369391354619        5.80976189713241
H           88.54292768694704       -3.28385505380480        4.51017980754272
H           84.94240111098421       -3.37250426968519        2.98321668112474
H           83.12440486860784       -1.86396646457716        1.97782377898829
H           83.47150094865378        1.47579930003824       -2.24924002590681
H           85.43100326146855        3.03856196587258       -3.31052686359386
H           86.61356074556210        5.18310896635119       -1.30136454099086
H           86.54212293149143        7.28849121238940       -2.57637324506254
H           87.22195624221291        8.60742697402890       -4.56233508990031
H           88.27320287914678        7.88506138444586       -5.81675919840284
H           89.07216918899141        5.54845565229501       -5.59783160967772
H           89.13952929485667        3.43931705750338       -4.32933780673872
H           90.62666678442949        4.02799864404295       -2.00513320585434
H           92.31192291925647        2.41801817884646       -0.90207376042416
C           54.20080746108813        0.00097231752150        0.02812930378171
C           52.94182503912644       -0.01830379683149        0.02377786449316
C           55.51456483263991        0.00029255871150        0.02999164107755
C           56.84746076696512       -0.02590266999137        0.03324265132616
C           66.97440092215449        0.00075066925779        0.02865061998655
C           65.80233099340629       -0.02426859518310        0.03028103659708
C           68.25759883794734        0.00031660221915        0.03012124316488
C           69.59488355319218       -0.02592604663993        0.03318286288796
C           79.71813837227380        0.00075004650965        0.02855835356455
C           78.55005709603638       -0.02422974161026        0.03021879334227
C           81.02523159229386        0.00046765900691        0.02986547678239
C           82.50276781142378       -0.01738015909774        0.02338172010094