148
 energy: -270.684666908456 gnorm: 2.237105271156 xtb: 6.5.1 (b24c23e)
Ni          27.76202200000000        0.02397800000000        0.02556400000000
C           24.38836500000000       -0.08565400000000       -0.08448900000000
C           25.06127100000000       -0.90043800000000       -0.90294000000000
C           24.43256999999999       -1.83086100000000       -1.83746800000000
C           25.39339300000000       -2.47216600000000       -2.48165100000000
C           26.67651500000000       -1.97845700000000       -1.98579600000000
N           26.48232900000000       -0.98289600000000       -0.98581800000000
C           27.86475300000000       -2.40932900000000       -2.41855700000000
C           29.16443800000000       -1.91791100000000       -1.92491000000000
C           30.44412000000000       -2.41610400000000       -2.42503400000000
C           31.39987000000000       -1.77486500000000       -1.78092300000000
N           29.31805600000000       -1.00897300000000       -1.01209000000000
C           30.72934400000000       -0.85912500000000       -0.86140100000000
C           31.33807400000000       -0.01271300000000       -0.01130000000000
C           30.59026000000000        0.89321800000000        0.89843800000000
C           31.16166500000000        1.74020200000000        1.74903700000000
C           30.09957400000000        2.43756100000000        2.44943500000000
C           28.95321600000000        1.97143900000000        1.98134400000000
N           29.16569000000000        0.97482100000000        0.98042000000000
C           27.63792200000000        2.44184600000000        2.45392500000000
C           26.47104800000000        1.98442500000000        1.99459400000000
C           25.16323200000000        2.43372800000000        2.44607800000000
C           24.28220400000000        1.73909300000000        1.74846300000000
C           25.02911300000000        0.85030300000000        0.85559300000000
N           26.31046200000000        0.98708300000000        0.99281200000000
H           23.30525400000000       -0.10817800000000       -0.10704100000000
H           23.37115200000000       -1.98057300000000       -1.98779500000000
H           25.23972800000000       -3.22814000000000       -3.24095300000000
H           27.88445100000000       -3.17381400000000       -3.18639800000000
H           30.59500000000000       -3.17223500000000       -3.18432900000000
H           32.46154300000000       -1.92165000000000       -1.92812200000000
H           32.22129600000000        1.89245400000000        1.90193200000000
H           30.21938200000000        3.19667000000000        3.21185000000000
H           27.62129100000000        3.20673500000000        3.22221500000000
H           24.93949300000000        3.18080800000000        3.19654600000000
H           23.20654700000000        1.82204900000000        1.83196000000000
Ni          61.16059000000000       -0.06466000000000       -0.00871400000000
C           64.53424800000001        0.09049200000000       -0.01637100000000
C           63.86134200000000        1.24394300000000       -0.07368600000000
C           64.49004200000000        2.56104400000000       -0.13907200000000
C           63.52922000000000        3.46890400000000       -0.18417600000000
C           62.24609800000000        2.77003400000000       -0.14950500000000
N           62.44028300000000        1.36070800000000       -0.07952200000000
C           61.05785900000000        3.37996600000000       -0.17977500000000
C           59.75817500000000        2.68427600000000       -0.14519600000000
C           58.47849299999999        3.38933600000000       -0.18000900000000
C           57.52274300000000        2.48157300000000       -0.13491300000000
N           59.60455699999999        1.39767700000000       -0.08141400000000
C           58.19326900000000        1.18543100000000       -0.07074900000000
C           57.58453800000000       -0.01271300000000       -0.01130000000000
C           58.33235299999999       -1.29501500000000        0.05222500000000
C           57.76094800000000       -2.49391800000000        0.11165800000000
C           58.82303900000000       -3.48107000000000        0.16063900000000
C           59.96939600000000       -2.82129000000000        0.12794600000000
N           59.75692300000000       -1.41054500000000        0.05797400000000
C           61.28469100000000       -3.48726100000000        0.16107800000000
C           62.45156500000000       -2.83981100000000        0.12901100000000
C           63.75938099999999       -3.47597500000000        0.16073300000000
C           64.64040799999999       -2.49271200000000        0.11198000000000
C           63.89349900000000       -1.23443900000000        0.04940100000000
N           62.61215000000000       -1.42795300000000        0.05889200000000
H           65.61735899999999        0.12232900000000       -0.01790100000000
H           65.55146000000001        2.77294500000000       -0.14956000000000
H           63.68288500000000        4.53905100000000       -0.23730000000000
H           61.03816100000000        4.46215400000000       -0.23348900000000
H           58.32761300000000        4.45959400000000       -0.23302100000000
H           56.46106999999999        2.68920400000000       -0.14505700000000
H           56.70131600000000       -2.70942600000000        0.12233700000000
H           58.70323000000000       -4.55563000000000        0.21395400000000
H           61.30132100000000       -4.57005000000000        0.21485000000000
H           63.98312000000000       -4.53359800000000        0.21330400000000
H           65.71606600000000       -2.61026100000000        0.11794000000000
C           33.51198800000000       -0.01271300000000       -0.01130000000000
C           34.73390500000000       -0.01271300000000       -0.01130000000000
C           43.85034699999999       -0.01271300000000       -0.01130000000000
C           45.07226500000000       -0.01271300000000       -0.01130000000000
C           54.18870700000000       -0.01271300000000       -0.01130000000000
C           55.41062500000000       -0.01271300000000       -0.01130000000000
Ni          39.25788099999999       -0.04005600000000       -0.03562200000000
C           35.82442899999999        0.01416600000000        0.01259200000000
C           36.49096300000000        0.88760000000000        0.78982200000000
C           35.86665000000000        1.87959000000000        1.67251100000000
C           36.82502100000000        2.55815700000000        2.27638900000000
C           38.10623100000000        2.03792900000000        1.81352200000000
N           37.91414000000000        0.98235000000000        0.87420700000000
C           39.28861500000000        2.50298000000000        2.22739700000000
C           40.59829000000000        1.99979300000000        1.77966400000000
C           41.86493400000000        2.54472000000000        2.26467300000000
C           42.83711399999999        1.87928800000000        1.67250600000000
N           40.77426700000000        1.04035100000000        0.92581000000000
C           42.18948300000000        0.90163100000000        0.80240800000000
C           42.81853200000000        0.01416600000000        0.01259200000000
C           42.08860800000000       -0.95137000000000       -0.84671400000000
C           42.67535200000000       -1.84216900000000       -1.63958700000000
C           41.62528000000000       -2.58949400000000       -2.30459400000000
C           40.47110000000000       -2.10610300000000       -1.87426000000000
N           40.66541200000000       -1.04997300000000       -0.93432800000000
C           39.16602300000000       -2.61608800000000       -2.32793400000000
C           37.98683900000000       -2.14841700000000       -1.91168300000000
C           36.69972800000000       -2.65036400000000       -2.35821300000000
C           35.79315900000000       -1.93472900000000       -1.72141800000000
C           36.50084799999999       -0.97232200000000       -0.86516000000000
N           37.78835399999999       -1.09440500000000       -0.97386500000000
H           34.80928000000000        2.05031400000000        1.82437700000000
H           36.66975800000000        3.35849000000000        2.98856200000000
H           39.29502500000000        3.31264500000000        2.94789200000000
H           41.99607900000000        3.34714000000000        2.97879300000000
H           43.89491800000000        2.04867900000000        1.82329400000000
H           43.73765600000000       -1.99327000000000       -1.77416400000000
H           41.75787100000000       -3.39207400000000       -3.01886800000000
H           39.16755199999999       -3.42620300000000       -3.04879500000000
H           36.50522699999999       -3.44583300000000       -3.06598200000000
H           34.72379700000000       -2.05570300000000       -1.82899100000000
Ni          49.59624100000000       -0.04005600000000       -0.03562200000000
C           46.16278900000000        0.01416600000000        0.01259200000000
C           46.82932300000000        0.88760000000000        0.78982200000000
C           46.20501000000000        1.87959000000000        1.67251100000000
C           47.16338100000000        2.55815700000000        2.27638900000000
C           48.44459100000000        2.03792900000000        1.81352200000000
N           48.25250000000000        0.98235000000000        0.87420700000000
C           49.62697500000000        2.50298000000000        2.22739700000000
C           50.93665000000000        1.99979300000000        1.77966400000000
C           52.20329400000000        2.54472000000000        2.26467300000000
C           53.17547399999999        1.87928800000000        1.67250600000000
N           51.11262700000000        1.04035100000000        0.92581000000000
C           52.52784300000000        0.90163100000000        0.80240800000000
C           53.15689200000000        0.01416600000000        0.01259200000000
C           52.42696800000000       -0.95137000000000       -0.84671400000000
C           53.01371200000000       -1.84216900000000       -1.63958700000000
C           51.96364000000000       -2.58949400000000       -2.30459400000000
C           50.80946000000000       -2.10610300000000       -1.87426000000000
N           51.00377199999999       -1.04997300000000       -0.93432800000000
C           49.50438300000000       -2.61608800000000       -2.32793400000000
C           48.32519899999999       -2.14841700000000       -1.91168300000000
C           47.03808800000000       -2.65036400000000       -2.35821300000000
C           46.13151900000000       -1.93472900000000       -1.72141800000000
C           46.83920800000000       -0.97232200000000       -0.86516000000000
N           48.12671400000000       -1.09440500000000       -0.97386500000000
H           45.14764000000000        2.05031400000000        1.82437700000000
H           47.00811800000000        3.35849000000000        2.98856200000000
H           49.63338500000000        3.31264500000000        2.94789200000000
H           52.33443900000000        3.34714000000000        2.97879300000000
H           54.23327799999999        2.04867900000000        1.82329400000000
H           54.07601600000000       -1.99327000000000       -1.77416400000000
H           52.09623100000000       -3.39207400000000       -3.01886800000000
H           49.50591200000000       -3.42620300000000       -3.04879500000000
H           46.84358700000000       -3.44583300000000       -3.06598200000000
H           45.06215700000000       -2.05570300000000       -1.82899100000000
148
 energy: -271.373160639666 gnorm: 0.628050292650 xtb: 6.5.1 (b24c23e)
Ni          27.76699183817558        0.02135072628790        0.02292492214376
C           24.38892762347307       -0.07758820270410       -0.07638571491943
C           25.06727626686477       -0.90152291543907       -0.90402868883494
C           24.43151260514416       -1.82784663262716       -1.83443868694410
C           25.39780149597116       -2.47272641631694       -2.48221281445415
C           26.67478040614588       -1.97398408337777       -1.98130170453457
N           26.47393926950442       -0.98782053663656       -0.99075986557095
C           27.87616727004020       -2.40820774836851       -2.41742923146566
C           29.15799534412274       -1.92523467846431       -1.93226634825443
C           30.43677807241749       -2.41963769303034       -2.42857960106477
C           31.40045425600074       -1.77111644759598       -1.77716161203167
N           29.32195710152849       -1.00423152852850       -1.00732597683104
C           30.73475698641787       -0.85769691158690       -0.85995667802102
C           31.34959351327094       -0.00570113116757       -0.00427717204517
C           30.58798329364182        0.88359491689716        0.88876811515226
C           31.16216208600151        1.75078237982176        1.75966394640080
C           30.11568493457159        2.43830872912306        2.45018457262210
C           28.94173722683811        1.96501804408573        1.97489952441786
N           29.16724464064675        0.97614279479489        0.98174933614755
C           27.64806721428532        2.43822382110014        2.45028768557233
C           26.47022378974355        1.98295483488507        1.99311894900935
C           25.16767472880165        2.43365569774777        2.44600617234692
C           24.27720795293686        1.73376631474853        1.74311435245231
C           25.01734808301044        0.84507562882824        0.85034495855510
N           26.31559834599942        0.98961068768149        0.99535152856703
H           23.30553869290861       -0.10684714697150       -0.10570252015403
H           23.37113297895819       -1.97842072369533       -1.98563167603473
H           25.24284254053166       -3.22803649015750       -3.24084801003933
H           27.88645054572166       -3.17345706976201       -3.18603805222429
H           30.59234724496526       -3.17294521004173       -3.18504143233559
H           32.46127535190333       -1.91902946925856       -1.92550368685016
H           32.22146496273107        1.89343039780945        1.90291443188686
H           30.22159660921879        3.19647979665211        3.21165926607743
H           27.62423780889624        3.20552864251211        3.22100425217008
H           24.94256310071372        3.18037950257105        3.19611648926798
H           23.20554728057407        1.82013545406065        1.83003937111358
Ni          61.15566265944910       -0.06094658937463       -0.00890098403333
C           64.53366762465488        0.07911174417416       -0.01580425246757
C           63.85537882612716        1.24546345556472       -0.07376197185541
C           64.49110071066930        2.55679283818397       -0.13885941250913
C           63.52483154207959        3.46968853634052       -0.18421412167037
C           62.24785862008585        2.76362509795960       -0.14918481003500
N           62.44863318649842        1.36769957419283       -0.07986165650909
C           61.04635342389051        3.37834785422253       -0.17969215600628
C           59.76467568194455        2.69466073138313       -0.14572422522938
C           58.48576965878666        3.39432665309433       -0.18024681380255
C           57.52198736381417        2.47641137973175       -0.13465012675894
N           59.60067308572413        1.39089101716388       -0.08106178357407
C           58.18781671140025        1.18356129156328       -0.07061507083737
C           57.57437276070073       -0.02242235554600       -0.01075103758215
C           58.33458403100946       -1.28150717032227        0.05151045694610
C           57.76035360298020       -2.50897820578544        0.11240277897513
C           58.80690361856702       -3.48209696279726        0.16068753224495
C           59.98084449836093       -2.81217858714097        0.12750012684474
N           59.75543801772805       -1.41236315908333        0.05807310076921
C           61.27456049421753       -3.48211752498499        0.16082346463212
C           62.45236974268632       -2.83773290088438        0.12890805225298
C           63.75496229571679       -3.47586966741958        0.16072900381307
C           64.64539465001938       -2.48520091358784        0.11160877213780
C           63.90523432356233       -1.22705607942375        0.04903561701681
N           62.60702035150570       -1.43150580098698        0.05907024436676
H           65.61706120862331        0.12044735213596       -0.01780612858595
H           65.55146869007466        2.76989728710961       -0.14940748043959
H           63.67976603037624        4.53889200737177       -0.23729148945930
H           61.03614478831326        4.46162625199964       -0.23346234330529
H           58.33025318297865        4.46057971790159       -0.23306879998525
H           56.46122311833965        2.68549075899436       -0.14487372561289
H           56.70114581303277       -2.71079718418379        0.12239866334591
H           58.70101036053419       -4.55533065163923        0.21393871203324
H           61.29836766073126       -4.56832760009966        0.21476423483923
H           63.98004931742057       -4.53298253684822        0.21327419147752
H           65.71705205889558       -2.60755121721750        0.11780652352043
C           33.44703525944487       -0.01239594624980       -0.01100907437567
C           34.63929958439775       -0.01731855510493       -0.01538917736389
C           43.92111009284756       -0.02118852978156       -0.01884010129640
C           45.03713732122756       -0.01905359450141       -0.01693972312776
C           54.30825063858681       -0.02048929553411       -0.01812661032158
C           55.48868346687263       -0.01351197442300       -0.01195653352823
Ni          39.26049648685672       -0.03920370910945       -0.03486220184755
C           35.89634448345578        0.00736892823402        0.00653578756749
C           36.51720495667092        0.89698659220278        0.79817901971903
C           35.86605630922001        1.87443521087223        1.66792405889987
C           36.83052178198763        2.55925106048073        2.27736412282554
C           38.10447534531313        2.03483989531734        1.81077213309557
N           37.91065984253389        0.98997588059909        0.88099259519282
C           39.30014698158174        2.50280951589005        2.22724588229426
C           40.58981478956128        2.01195024664404        1.79048394525914
C           41.85408053453117        2.54985613079686        2.26924307920478
C           42.83239506488633        1.87266780873208        1.66661447698211
N           40.77138650401304        1.03934306853053        0.92491292070662
C           42.15305209420994        0.91618984586450        0.81536457059643
C           42.69858273911681        0.00896704736014        0.00796306187032
C           42.05587502321865       -0.95169295377308       -0.84699953705152
C           42.67149432091334       -1.85193459764275       -1.64827915436285
C           41.63966998748742       -2.59110165508948       -2.30602565879125
C           40.45818518473423       -2.10130849240973       -1.86998999278880
N           40.66071559450212       -1.05453314497792       -0.93838902516647
C           39.17592486686561       -2.61276760738911       -2.32497979179567
C           37.98663986059044       -2.14791055493731       -1.91122866428615
C           36.70453045049278       -2.65050534597218       -2.35834146649112
C           35.78850152333121       -1.92805623394716       -1.71547754718771
C           36.50477200942100       -0.97306538543092       -0.86582750297905
N           37.79825814564359       -1.09940954819044       -0.97831753917792
H           34.80901574544043        2.04694582878427        1.82138204672802
H           36.67275317150235        3.35840063585922        2.98848372250153
H           39.29677423847611        3.31256563515383        2.94782198739711
H           41.99349036360737        3.34815616598375        2.97969758087669
H           43.88733860042562        2.04523747537343        1.82023344885195
H           43.73189601266747       -1.99353803767686       -1.77440527461163
H           41.76016057616445       -3.39207567748798       -3.01886986102516
H           39.17027128442731       -3.42508955692014       -3.04780395880063
H           36.50813722426646       -3.44532360581302       -3.06552846598294
H           34.72265645171660       -2.05294866513156       -1.82652840871202
Ni          49.59890710250760       -0.03926754215265       -0.03491496258887
C           46.25399796156514        0.00694383160637        0.00616477580468
C           46.86340422672048        0.90088634747326        0.80164669555779
C           46.20792532951526        1.87372315723715        1.66728911140906
C           47.17037756548359        2.55983626701393        2.27788326255907
C           48.44325783925053        2.03563014896356        1.81147697064195
N           48.24935588771540        0.99048422933682        0.88143676039819
C           49.63856943164377        2.50282881441013        2.22726038803131
C           50.92882366194899        2.01077201881878        1.78945425010989
C           52.19438630423112        2.54927264891916        2.26871407571136
C           53.17424856536007        1.87370840590612        1.66751543907020
N           51.11004091895041        1.03907493608600        0.92466605107554
C           52.49852802065355        0.91251996707808        0.81205092442923
C           53.05412178933695        0.00967664440764        0.00850960297265
C           52.39912198381257       -0.94983451550607       -0.84531267639381
C           53.01269921073516       -1.85245173686618       -1.64872936810399
C           51.97892612736800       -2.59072260187104       -2.30568767980703
C           50.79704982009677       -2.10083929295804       -1.86957482220477
N           51.00004952159883       -1.05403416160418       -0.93794221983943
C           49.51436311109234       -2.61274877925873       -2.32496530942794
C           48.32567185976997       -2.14854600662546       -1.91179701269289
C           47.04361448472700       -2.65083799346865       -2.35863531561313
C           46.12959766595387       -1.92799372267461       -1.71542487271915
C           46.84915942216937       -0.97533149170178       -0.86783720708580
N           48.13767236879324       -1.10002802611637       -0.97886978171844
H           45.15422092894891        2.04698454841613        1.82141298429978
H           47.01113606962734        3.35850458467601        2.98857561643392
H           49.63521620956748        3.31255664409410        2.94781336520359
H           52.33188777079389        3.34800826053823        2.97956531636459
H           54.23267662309636        2.04516501753673        1.82016721355611
H           54.07579077173910       -1.99363247038799       -1.77447379166231
H           52.09852846273684       -3.39195159862229       -3.01875898259276
H           49.50868552757279       -3.42507317633771       -3.04778993941684
H           46.84647837882219       -3.44536201545543       -3.06556287246542
H           45.06618598870846       -2.05316242173456       -1.82672764504396
148
 energy: -271.601473301912 gnorm: 0.400047929953 xtb: 6.5.1 (b24c23e)
Ni          27.77877750798370        0.01455752812383        0.01610328188982
C           24.39079673703989       -0.06650169334436       -0.06525212627599
C           25.07366556614643       -0.90046147563061       -0.90296471141741
C           24.43312222220230       -1.82191516394597       -1.82848309685555
C           25.40661042971137       -2.47111163692036       -2.48059393537170
C           26.67614546701222       -1.96816569792485       -1.97545874591423
N           26.46162811775238       -0.99486662438475       -0.99783003966942
C           27.89316834219360       -2.40388779184467       -2.41309223900663
C           29.15259919623222       -1.93134521375713       -1.93840944968160
C           30.42599500794402       -2.42252996910828       -2.43148067060333
C           31.39748620081884       -1.76617817529717       -1.77221699256516
N           29.33512873989057       -0.99657194999356       -0.99963081799654
C           30.74886896978071       -0.85261800743459       -0.85482710795073
C           31.38175017407601        0.00551614933900        0.00706311678230
C           30.59349420043869        0.87310756288650        0.87822964757317
C           31.16320470865402        1.76400766798414        1.77294229341681
C           30.13769479989310        2.43583936886032        2.44769709138554
C           28.93615994162447        1.95376433392704        1.96360217857467
N           29.17578262597200        0.97446191062874        0.98006037360274
C           27.66765185355210        2.42801114915861        2.44002860117486
C           26.47234031966293        1.97739364626717        1.98753140140014
C           25.17449554319978        2.42843266087392        2.44075634824337
C           24.27148649627741        1.72476979723602        1.73407490415561
C           25.00299693714970        0.83823549783304        0.84347265546156
N           26.32065401144875        0.99108136201859        0.99682233455442
H           23.30709410788690       -0.10239486275697       -0.10123267246734
H           23.37231577342015       -1.97112689583214       -1.97830776856224
H           25.25360227416255       -3.22672371417849       -3.23953319245792
H           27.89366324182667       -3.17058137861003       -3.18315141327507
H           30.58359564757847       -3.17498379149288       -3.18709096257893
H           32.45890956494007       -1.91179477737414       -1.91829115643675
H           32.22316834323737        1.89773944231218        1.90724366331449
H           30.22865345573292        3.19495767090739        3.21012658546735
H           27.63696633155638        3.19811380066565        3.21355255249208
H           24.95285629225836        3.17670616430104        3.19242248298043
H           23.20175084903845        1.81397598621065        1.82385011926641
Ni          61.14390810333197       -0.05133718122599       -0.00938545014520
C           64.53178517247296        0.06343212265111       -0.01502636006974
C           63.84900498373148        1.24397007451565       -0.07369045655764
C           64.48949439872956        2.54841081943091       -0.13844341186307
C           63.51601592898450        3.46739637933737       -0.18410057413126
C           62.24648060072687        2.75533760786818       -0.14877450512244
N           62.46091978728050        1.37768645765278       -0.08034104528742
C           61.02928852720598        3.37218363809178       -0.17938862064636
C           59.77005966601290        2.70326950934455       -0.14616490953085
C           58.49644019131931        3.39835339091100       -0.18041264589798
C           57.52463338255205        2.46949583354302       -0.13426471427897
N           59.58739499285924        1.37999749683142       -0.08046366710163
C           58.17356427913987        1.17630461720406       -0.07021740606560
C           57.54209744086712       -0.03901504446915       -0.01019882967847
C           58.32915083740833       -1.26691577369247        0.05067404791261
C           57.75923100716049       -2.52786217370458        0.11330487571235
C           58.78487838489639       -3.47858468788840        0.16050465023287
C           59.98646182641061       -2.79624212983898        0.12672220147196
N           59.74698186089842       -1.40999944489995        0.05797436563477
C           61.25496074352773       -3.46764709762545        0.16010503656803
C           62.45025465388076       -2.82984594788131        0.12851403895309
C           63.74814523026510       -3.46847436044509        0.16036136765542
C           64.65111469344623       -2.47247165808161        0.11097585730354
C           63.91957279288900       -1.21738068284769        0.04855294801801
N           62.60196198897339       -1.43357289155206        0.05917229105472
H           65.61549014182178        0.11414646560415       -0.01749496863173
H           65.55028396657448        2.75957851473750       -0.14889680244491
H           63.66899287772583        4.53702384090496       -0.23720222382417
H           61.02891176413101        4.45751358176698       -0.23326328551067
H           58.33898415967077        4.46342759022019       -0.23321249544419
H           56.46323503358951        2.67526431667735       -0.14438529787791
H           56.69941456278422       -2.71692055933659        0.12267707929902
H           58.69394887557696       -4.55313989260834        0.21382705028874
H           61.28562908577294       -4.55781007840683        0.21423682317241
H           63.96975114143421       -4.52777508205780        0.21301311831080
H           65.72083935325310       -2.59882538670180        0.11737176799997
C           33.33344621808092       -0.00587494482173       -0.00468175387588
C           34.56060392119437       -0.02000043783008       -0.01771590142942
C           43.86936427789098       -0.03414919076233       -0.03037931746769
C           45.07097340336467       -0.02832467130999       -0.02518337082403
C           54.37211981987593       -0.03158960004359       -0.02754207578368
C           55.60253691232485       -0.02046789930262       -0.01173500176628
Ni          39.26073109981114       -0.03628269119306       -0.03226060642165
C           35.89250915009005       -0.00590341937634       -0.00529951958744
C           36.52771882427540        0.89932325295076        0.80025980274646
C           35.86836788016633        1.86749672224315        1.66175058220900
C           36.83869734803214        2.55845080171701        2.27665467260468
C           38.10584807623663        2.03312709638353        1.80924439336296
N           37.90311845332045        1.00190640500786        0.89160617237760