189
 energy: -325.580876631495 gnorm: 1.504778711489 xtb: 6.5.1 (b24c23e)
Ni          23.93370300000000        0.28003600000000        0.20203200000000
C           20.59916000000000        0.15387000000000        0.16037300000000
C           21.26005100000000       -1.00752900000000        0.16114100000000
C           20.60816700000000       -2.31021100000000        0.21153800000000
C           21.54686100000000       -3.23710000000000        0.15668300000000
C           22.85174600000000       -2.56909200000000        0.05743000000000
N           22.67614700000000       -1.15170600000000        0.07180700000000
C           24.04218400000000       -3.19529800000000       -0.05743300000000
C           24.09342600000000       -4.67594700000000       -0.10671300000000
C           23.62272400000000       -5.33660100000000       -1.17552700000000
C           23.61186400000000       -6.84224100000000       -1.24971800000000
N           24.41552600000000       -7.45970300000000       -0.19159200000000
C           24.86227900000000       -6.73142100000000        0.95673600000000
C           24.71309600000000       -5.41007000000000        1.01336700000000
C           25.33257499999999       -2.46075400000000       -0.13462100000000
C           26.61285500000000       -3.09028700000000       -0.48209600000000
C           27.54735900000000       -2.16281900000000       -0.42181800000000
N           25.47834400000000       -1.19764800000000        0.12462800000000
C           26.87136100000000       -0.93061700000000       -0.03600700000000
C           27.46737200000000        0.24906100000000        0.20358600000000
C           26.70334900000000        1.45834200000000        0.57892400000000
C           27.22748100000000        2.51994800000000        1.17885500000000
C           26.18537299999999        3.52579900000000        1.26218200000000
C           25.09544200000000        3.01206100000000        0.70242800000000
N           25.33358800000000        1.68021700000000        0.24486600000000
C           23.82431600000000        3.75282000000000        0.50181400000000
C           23.86353700000000        5.23671400000000        0.50714500000000
C           23.18687000000000        5.93515200000000        1.43416000000000
C           23.16244100000000        7.44220900000000        1.44543800000000
N           24.16923000000000        8.02533400000000        0.55484800000000
C           24.84551300000000        7.25694300000000       -0.44621000000000
C           24.70695300000000        5.93361400000000       -0.48410100000000
C           22.66297300000000        3.10442400000000        0.28826300000000
C           21.36153400000000        3.71741600000000        0.02679800000000
C           20.49822700000000        2.72316400000000       -0.05759300000000
C           21.24012700000000        1.47823100000000        0.13450500000000
N           22.50213900000000        1.68830700000000        0.33677700000000
H           19.51593400000000        0.12887900000000        0.17518700000000
H           19.54527000000000       -2.50124000000000        0.28466300000000
H           21.35753000000000       -4.30184300000000        0.17948500000000
H           23.17569700000000       -4.78652600000000       -1.99576600000000
H           24.00916700000000       -7.15832900000000       -2.23797500000000
H           22.56334700000000       -7.19627700000000       -1.16111900000000
H           24.56634100000000       -8.49259700000000       -0.21834800000000
H           25.34402200000000       -7.25623000000000        1.77226200000000
H           25.07229200000000       -4.86804900000000        1.88041100000000
H           26.78025700000000       -4.12690700000000       -0.74424000000000
H           28.59850700000000       -2.31787900000000       -0.62315000000000
H           28.24891200000000        2.63347000000000        1.51715900000000
H           26.28936100000000        4.52102700000000        1.67532500000000
H           22.58726000000000        5.41306500000000        2.17080600000000
H           23.34739100000000        7.79559500000000        2.48153000000000
H           22.15478100000000        7.78575800000000        1.12992900000000
H           24.31190800000000        9.05913700000000        0.57100800000000
H           25.48633000000000        7.75408000000000       -1.16373200000000
H           25.23538200000000        5.36296800000000       -1.23837800000000
H           21.12338400000000        4.76727700000000       -0.08087000000000
H           19.43580300000000        2.82556600000000       -0.23911800000000
Ni          58.65063700000000        0.21914300000000        0.19542000000000
C           61.98518000000000        0.35130900000000        0.18181200000000
C           61.32428800000000        1.48547500000000        0.43184500000000
C           61.97617300000000        2.74697800000000        0.76067500000000
C           61.03747900000000        3.66403900000000        0.90604600000000
C           59.73259400000000        3.03290400000000        0.66572500000000
N           59.90819300000000        1.64546600000000        0.37553900000000
C           58.54215600000000        3.66916900000000        0.68794800000000
C           58.49091399999999        5.12588600000000        0.95762300000000
C           58.96161600000000        6.00055300000000        0.05552300000000
C           58.97247600000000        7.48702600000000        0.30623100000000
N           58.16881400000000        7.86298100000000        1.47222800000000
C           57.72206100000000        6.90519500000000        2.43747300000000
C           57.87124399999999        5.60248600000000        2.20917000000000
C           57.25176499999999        2.96831200000000        0.45489600000000
C           55.97148499999999        3.65775500000000        0.25064300000000
C           55.03698000000000        2.73896500000000        0.11044500000000
N           57.10599500000000        1.67900000000000        0.43699000000000
C           55.71297900000000        1.45267100000000        0.22278400000000
C           55.11696800000000        0.24906100000000        0.20358600000000
C           55.88099099999999       -1.01259800000000        0.31061600000000
C           55.35685899999999       -2.17823000000000        0.66870100000000
C           56.39896699999999       -3.17852300000000        0.53419000000000
C           57.48889799999999       -2.55661300000000        0.09775200000000
N           57.25075200000000       -1.15759900000000       -0.06328000000000
C           58.76002399999999       -3.23704700000000       -0.25718300000000
C           58.72080300000000       -4.68750100000000       -0.57048000000000
C           59.39747000000000       -5.56863500000000        0.18501700000000
C           59.42189900000000       -7.04298800000000       -0.12744300000000
N           58.41511000000000       -7.42136600000000       -1.12243900000000
C           57.73882699999999       -6.45601600000000       -1.93523700000000
C           57.87738700000000       -5.15539700000000       -1.68820600000000
C           59.92136700000000       -2.55792700000000       -0.32658600000000
C           61.22280600000000       -3.10051100000000       -0.71352900000000
C           62.08611300000000       -2.11131900000000       -0.58254800000000
C           61.34421300000000       -0.93663200000000       -0.12771400000000
N           60.08220100000000       -1.18522800000000        0.02475300000000
H           63.06840600000000        0.37253800000000        0.20164500000000
H           63.03906900000000        2.91786000000000        0.87309800000000
H           61.22681000000000        4.69907200000000        1.15685300000000
H           59.40864300000000        5.63935500000000       -0.86366800000000
H           58.57517299999999        8.00786700000000       -0.59114700000000
H           60.02099300000000        7.81379400000000        0.46875600000000
H           58.01799900000000        8.87754400000000        1.66779600000000
H           57.24031799999999        7.24272800000000        3.34663800000000
H           57.51204700000000        4.88699500000000        2.93966700000000
H           55.80408300000000        4.72648100000000        0.21710900000000
H           53.98583199999999        2.93362500000000       -0.05291300000000
H           54.33542800000000       -2.36171900000000        0.97475400000000
H           56.29497899999999       -4.23923200000000        0.72408900000000
H           59.99707999999999       -5.21683000000000        1.01655500000000
H           59.23694900000000       -7.61052500000000        0.80865100000000
H           60.42955899999999       -7.31081000000000       -0.50933800000000
H           58.27243200000000       -8.43454300000000       -1.32855100000000
H           57.09801000000000       -6.78755800000000       -2.74274200000000
H           57.34895700000000       -4.43615300000000       -2.30242000000000
H           61.46095600000000       -4.10279300000000       -1.04403000000000
H           63.14853700000000       -2.17237100000000       -0.78182200000000
C           28.79735900000000        0.26375200000000        0.21386200000000
C           30.25558600000000        0.24191500000000        0.19598800000000
C           31.38951399999999        0.22116200000000        0.19449700000000
C           32.75089500000000        0.20857200000000        0.19230600000000
C           34.02511400000000        0.21887800000000        0.18754100000000
C           35.21357700000000        0.23767600000000        0.18138500000000
C           36.56593700000000        0.26246100000000        0.19725300000000
C           37.66620500000000        0.26375200000000        0.21386200000000
C           44.79409800000000        0.26375200000000        0.21386200000000
C           46.25232500000000        0.24191500000000        0.19598800000000
C           47.38625300000000        0.22116200000000        0.19449700000000
C           48.74763400000000        0.20857200000000        0.19230600000000
C           50.02185300000000        0.21887800000000        0.18754100000000
C           51.21031600000000        0.23767600000000        0.18138500000000
C           52.56267600000000        0.26246100000000        0.19725300000000
C           53.66294400000000        0.26375200000000        0.21386200000000
Ni          41.00056500000000       -0.02107700000000       -0.30893500000000
C           38.16691400000000       -0.58089800000000       -0.47434600000000
C           38.48614299999999        0.46442400000000       -1.23934400000000
C           38.28198200000000        1.86492700000000       -0.86474300000000
C           39.09113400000000        2.61666900000000       -1.59249300000000
C           39.95610900000000        1.72623300000000       -2.37015800000000
N           39.54133400000000        0.37483100000000       -2.18943800000000
C           41.18864400000000        2.06404600000000       -2.78806700000000
C           41.53331000000000        3.48004800000000       -3.08620200000000
C           40.73975800000000        4.21272600000000       -3.88585500000000
C           41.04830500000000        5.64287200000000       -4.24750600000000
N           42.17665900000000        6.18345400000000       -3.48354300000000
C           43.03482499999999        5.36263300000000       -2.68939400000000
C           42.74481299999999        4.08148700000000       -2.49264700000000
C           42.28930700000000        1.09723300000000       -2.59514700000000
C           43.41926200000000        0.89776500000000       -3.50436200000000
C           44.31628700000000        0.15974700000000       -2.86712200000000
N           42.49999700000000        0.54286700000000       -1.44409500000000
C           43.77688000000000       -0.07551200000000       -1.52963500000000
C           44.44036900000000       -0.58089800000000       -0.47434600000000
C           43.83810200000000       -0.62948100000000        0.88111600000000
C           44.51634200000000       -0.63506100000000        2.02537700000000
C           43.54212800000000       -0.69205000000000        3.10740200000000
C           42.33413199999999       -0.72782700000000        2.55015100000000
N           42.43689100000000       -0.68649200000000        1.12527500000000
C           41.04567900000000       -0.87165600000000        3.28988400000000
C           41.05995600000000       -1.30401000000000        4.71039500000000
C           41.63888700000000       -2.46507400000000        5.05482400000000
C           41.70898300000000       -2.92714800000000        6.48709900000000
N           40.76670299999999       -2.20895800000000        7.34378400000000
C           40.23983900000000       -0.92873000000000        6.97870300000000
C           40.38072300000000       -0.48249500000000        5.73026200000000
C           39.87088900000000       -0.70491500000000        2.65018700000000
C           38.54031499999999       -1.10128000000000        3.11752800000000
C           37.73989499999999       -1.02835800000000        2.06235300000000
C           38.53639900000000       -0.53490400000000        0.94036400000000
N           39.76920500000000       -0.35923300000000        1.28020800000000
H           37.60265700000000        2.23365400000000       -0.10831900000000
H           39.19223500000000        3.68733300000000       -1.48480200000000
H           39.86394800000000        3.76105500000000       -4.33437900000000
H           41.28225700000000        5.69536100000000       -5.33387600000000
H           40.14767900000000        6.26420800000000       -4.04981400000000
H           42.41812600000000        7.18870800000000       -3.59960000000000
H           43.91469400000000        5.79052500000000       -2.23258300000000
H           43.39751800000000        3.48504800000000       -1.86869800000000
H           43.52470700000000        1.29687900000000       -4.50543800000000
H           45.27445800000000       -0.14609300000000       -3.26555700000000
H           45.59062500000000       -0.59011500000000        2.13791400000000
H           43.76419900000000       -0.72299100000000        4.16731600000000
H           42.12533400000000       -3.06956800000000        4.30400100000000
H           42.73848099999999       -2.76805200000000        6.86627600000000
H           41.47878100000000       -4.01281100000000        6.52534800000000
H           40.60580800000000       -2.55907100000000        8.31505000000000
H           39.69744399999999       -0.34456000000000        7.70383900000000
H           39.96248000000000        0.48290000000000        5.46374300000000
H           38.26148600000000       -1.46907600000000        4.09502100000000
H           36.69956499999999       -1.31342500000000        2.04025300000000
189
 energy: -326.063882397667 gnorm: 0.580346160834 xtb: 6.5.1 (b24c23e)
Ni          23.94059309990480        0.27625651015839        0.20216909934514
C           20.59972364689646        0.16786739577745        0.15980395358702
C           21.26678157560977       -1.00912808687702        0.16153742711072
C           20.60767754137451       -2.30452094496832        0.21161118420124
C           21.55496242957123       -3.23849363067561        0.15617923034261
C           22.85053319837297       -2.56238441230297        0.05871578517492
N           22.66500116819641       -1.15984161504398        0.07175578149984
C           24.05493901643752       -3.19249408908523       -0.05709090065067
C           24.09714962212719       -4.67539398236596       -0.10577419433574
C           23.62286557389196       -5.33702042826881       -1.17125362743102
C           23.61338051193729       -6.84392332449048       -1.24752903146427
N           24.42149368253665       -7.45952727330050       -0.18363091922462
C           24.85787168460435       -6.73610110122527        0.94683112412056
C           24.71187701463793       -5.40621543721648        1.00997700797377
C           25.32546356312909       -2.47596817549291       -0.13557812032817
C           26.59934811132537       -3.09952267635212       -0.48073667526218
C           27.54463245522676       -2.15562832777313       -0.42015356200818
N           25.48261594092676       -1.18895729672464        0.11878594843792
C           26.86272472854953       -0.94099107620539       -0.03870703133161
C           27.47341104860033        0.25994051746590        0.20945816074830
C           26.69261960834199        1.45420232103405        0.57120573993276
C           27.22729125798580        2.53676253818009        1.18409264276754
C           26.20110504338562        3.52732584708739        1.26489837639118
C           25.08577836972157        3.00425923610844        0.69366191877255
N           25.33232526082610        1.67888414335090        0.25279180923307
C           23.83558052523563        3.74720457395773        0.50058951963522
C           23.86864099183802        5.23387768677033        0.50727512288652
C           23.18805658962113        5.93445027576329        1.42935580801344
C           23.16467525493020        7.44340366921435        1.44356922350730
N           24.17665404586990        8.02471968393941        0.54822834462779
C           24.83878172577626        7.26165046961826       -0.43761473757667
C           24.70483039209377        5.92952914551228       -0.48089373778621
C           22.66277372118349        3.10245139005931        0.28751559501488
C           21.36854929348166        3.71687113500386        0.02804377782451
C           20.49177821286169        2.71343085926697       -0.05694819947799
C           21.22561390957889        1.46989906580037        0.13454787838920
N           22.50829709532775        1.69157700143445        0.33272460259857
H           19.51626621006947        0.13203935086262        0.17446300145364
H           19.54551520305857       -2.49637991020476        0.28465377599247
H           21.36348943307989       -4.30218377719538        0.17916611125013
H           23.17647688606401       -4.78926264358112       -1.99592478883723
H           24.00763350897351       -7.15911910380073       -2.23450021644194
H           22.56506843691319       -7.19707505212136       -1.16299736042477
H           24.56414621320868       -8.48035377648428       -0.21677208589173
H           25.34195068945109       -7.26110091198227        1.76631632998116
H           25.07120976605620       -4.86686841861092        1.87878917299570
H           26.77517589057534       -4.12963939135947       -0.74383210613310
H           28.59707622082791       -2.31166713115400       -0.62159390270771
H           28.24864722342916        2.63581868841091        1.51838924714158
H           26.29218199161340        4.52071768484187        1.67631735477365
H           22.58793064535011        5.41578241623115        2.17098036282140
H           23.34659355238922        7.79638278895685        2.47797212932323
H           22.15630464313625        7.78643538610822        1.13200580663406
H           24.31006535256519        9.04687729070551        0.56960305350204
H           25.48304060953279        7.75898931425746       -1.15838738152939
H           25.23411888251693        5.36176407023517       -1.23695389524062
H           21.12905391595333        4.76650521100545       -0.08003657618803
H           19.43414818843624        2.82129690049977       -0.23921421986547
Ni          58.64375301070904        0.22266173265894        0.19623826588403
C           61.98453234561512        0.33789346842031        0.17828467236265
C           61.31759052446841        1.48676773114235        0.43257530224654
C           61.97664447214220        2.74154087810471        0.75957365703479
C           61.02959234755029        3.66548326888943        0.90586634909329
C           59.73366474810138        3.02573887635925        0.66544219009228
N           59.91923915222699        1.65361933289466        0.37714376544134
C           58.52950373055412        3.66627409874645        0.68762699020619
C           58.48711931058089        5.12523211715997        0.95832979168769
C           58.96144975366459        6.00009826614417        0.05976606202736
C           58.97098538351030        7.48821965556926        0.30873456071676
N           58.16283004823595        7.86109105379680        1.47996503586884
C           57.72646625340448        6.91191050238827        2.42881114714792
C           57.87245423799222        5.59945184758334        2.20501013953776
C           57.25956860087788        2.98188581859140        0.45778929744593
C           55.98297060084392        3.66570246925520        0.25369920289049
C           55.03897634594861        2.73274442320200        0.11091424240041
N           57.10429957614927        1.67308445724623        0.43024893070078
C           55.72186609413401        1.45822889923716        0.22173146204906
C           55.13377337593106        0.23946310665155        0.20633726501206
C           55.89137841057716       -1.00351362817561        0.30386415258046
C           55.35655733279732       -2.19638042939656        0.66947762594369
C           56.38216193878431       -3.18023153205691        0.53675166211423
C           57.49884099676326       -2.54664862594377        0.09062529616159
N           57.25270731284934       -1.15832562395861       -0.05509324334448
C           58.74841064528354       -3.23120391895243       -0.25716941268368
C           58.71565656939364       -4.68480809536939       -0.56964729666946
C           59.39629012473647       -5.56694291004226        0.18049259581624
C           59.41966725085453       -7.04376418655114       -0.12952842636765
N           58.40768617497512       -7.41932627424339       -1.12878837508362
C           57.74556908219997       -6.46247434164196       -1.92784001840311
C           57.87952730467724       -5.15207630426231       -1.68418694594176
C           59.92157054324727       -2.55565366653440       -0.32695230504148
C           61.21575599372622       -3.10022444096504       -0.71216921795562
C           62.09256261837155       -2.10191119877814       -0.57981347079758
C           61.35873431098273       -0.92849417681966       -0.12585762618578
N           60.07598533860522       -1.18761957986653        0.02005747913329
H           63.06804793604833        0.36963078924374        0.20025649021612
H           63.03882462087826        2.91315303782390        0.87204776099037
H           61.22087877436848        4.69947501528320        1.15662599788621
H           59.40786233200285        5.64206700359187       -0.86323314549754
H           58.57670958115958        8.00789446213745       -0.58758315235046
H           60.01927615502974        7.81498691125932        0.46709666322324
H           58.02020069859875        8.86524596870413        1.66671479347864
H           57.24238956911171        7.24876707681364        3.34188033105254
H           57.51314298795113        4.88619489957605        2.93783640693952
H           55.80894096412517        4.72889956326594        0.21796216049328
H           53.98714703461434        2.92784348331358       -0.05286856603645
H           54.33571342967328       -2.36461311439052        0.97550585821124
H           56.29208223753239       -4.23904895532471        0.72526268531485
H           59.99640729305145       -5.21952540122332        1.01615220977500
H           59.23774749748202       -7.61052779045665        0.80500549395189
H           60.42803782600578       -7.31191794911550       -0.50745479738487
H           58.27426835855371       -8.42226172886534       -1.32729124278673
H           57.10130102745664       -6.79349419906676       -2.73856412753057
H           57.35022673768577       -4.43528031340902       -2.30076769364610
H           61.45527044843186       -4.10220397341567       -1.04304454065688
H           63.15018873008295       -2.16817611502126       -0.78099805173967
C           28.82648686180682        0.27082703920129        0.21373526856886
C           30.18015047936876        0.24352709717808        0.19613519019100
C           31.42728724985767        0.22058557928822        0.19465773612023
C           32.72684410046836        0.20765320106548        0.19262517239854
C           33.98819030267440        0.21830881714195        0.18544961769802
C           35.21400903171690        0.24375034166984        0.18134618111122
C           36.45775556736634        0.28256461291899        0.21239730919523
C           37.67735736249563        0.29130608149816        0.25430556321842
C           44.84017978447788        0.30767614757952        0.25125391681524
C           46.21921225847483        0.26535262065318        0.21628990693599
C           47.43328963040666        0.22571134463202        0.19192803441842
C           48.73525491657223        0.20662329286430        0.18977945284681
C           49.99813361479109        0.21789817122977        0.18856616745451
C           51.22114510887113        0.23908837972310        0.18138961043323
C           52.52303161450163        0.26033331034007        0.19617767091981
C           53.73058164575433        0.25601139011295        0.21408214478644
Ni          41.01260800107681       -0.02476096094971       -0.30041517813352
C           38.20529493326529       -0.63612081350984       -0.51278810125453
C           38.51646205398945        0.47337207030592       -1.26857643779072
C           38.28090120428747        1.86913465848449       -0.87550674012244
C           39.09801471486856        2.62390997831527       -1.60384499037630
C           39.95162635189917        1.72655966578358       -2.36542568443131
N           39.55625929700299        0.39021740459979       -2.17882816071964
C           41.20128485412149        2.06794625445176       -2.79067833622352
C           41.53708383450797        3.47678411986387       -3.08664909947363
C           40.74199575681678        4.21339776166346       -3.88386701913159
C           41.05069661718356        5.64400665182050       -4.24576883953249
N           42.18334145298192        6.18291204525525       -3.47741369616270
C           43.02661242998406        5.36784457312939       -2.69671175394547
C           42.74155260756884        4.07660407023680       -2.49516988329673
C           42.29020622410248        1.11209817569079       -2.61709249408028
C           43.40679306819125        0.91075034623490       -3.50966155001244
C           44.31605873144198        0.15668040255495       -2.86103229236950
N           42.50135491270026        0.52930712532001       -1.44849974218052
C           43.74941758713121       -0.08909507661465       -1.57539780731914
C           44.40365781375726       -0.62767567103341       -0.50817865246852
C           43.82008470727930       -0.63476343401864        0.88711596306952
C           44.51890602205533       -0.65181365261181        2.06020548495027
C           43.55683584867525       -0.69198114529369        3.11041989853076
C           42.32204464078852       -0.72990931422672        2.54061086466111
N           42.43380875431035       -0.67554113991075        1.13162490155062
C           41.05696027768776       -0.87155327577828        3.28649349818008
C           41.06207636676835       -1.29979712933425        4.70844267330290
C           41.63903534591050       -2.46085384268944        5.05662513470981
C           41.70687142754762       -2.92603847533601        6.48915422741424
N           40.75953868186198       -2.20215454744983        7.34584127233915
C           40.24514382499934       -0.93982206792140        6.97917165212370
C           40.38201196229298       -0.48445448095887        5.72522485784366
C           39.87235136378067       -0.70884122380288        2.64671255350303
C           38.54804428931583       -1.10185087647061        3.12157493138225
C           37.73994912179842       -1.04664607930822        2.06626641781316
C           38.54478426001864       -0.55872055886966        0.95604096346935
N           39.79108151327983       -0.35453177318052        1.29421978655015
H           37.60557067149148        2.23913031084047       -0.11416410496186
H           39.19624036199431        3.68968740081930       -1.48942421682057
H           39.86419503123967        3.76340817519083       -4.33521395599796
H           41.28056806011696        5.69676913178016       -5.33151102102046
H           40.15123877174981        6.26364079033574       -4.05139492028581
H           42.41654811359957        7.17744893528723       -3.59864974756831
H           43.91080945095409        5.79629482925584       -2.23620192421958
H           43.39600525231154        3.48311996612800       -1.86956283489746
H           43.52034256196627        1.29920271276636       -4.50712134189525
H           45.27371710362799       -0.14952077394431       -3.25950348410867
H           45.58995368271674       -0.59483226603993        2.14755021416789
H           43.76710546672972       -0.72176665725944        4.16729985138554
H           42.12546047426184       -3.07113400455083        4.30582117923254
H           42.73762002295937       -2.77044969448474        6.86637109977062
H           41.47965416502650       -4.00935808847523        6.52733736219399
H           40.60828595372631       -2.55332696555735        8.30406324706452
H           39.69956502669319       -0.35072320547768        7.70739764901290
H           39.96383263069427        0.48145754830735        5.46198928570650
H           38.26617961570410       -1.46578650122792        4.09728672269369
H           36.69809672115461       -1.31380914919487        2.03910990017364
189
 energy: -326.242225289933 gnorm: 0.256132968116 xtb: 6.5.1 (b24c23e)
Ni          23.95275552384081        0.26908302561456        0.19974802204450
C           20.60205212916025        0.18505067586010        0.15897444732731
C           21.27408407389386       -1.00890993470054        0.16277263260131