140
 energy: -208.475259466980 gnorm: 32.939974329566 xtb: 6.5.1 (b24c23e)
Zn          15.93285300000000        1.95830900000000        1.63034600000000
C           12.18176200000000        0.06482500000000       -0.02929400000000
C           12.83139400000000        0.91802600000000        0.76781400000000
C           12.16668700000000        1.83666500000000        1.68415500000000
C           13.09689300000000        2.54982400000000        2.29142000000000
C           14.40912400000000        2.12883400000000        1.78130500000000
N           14.24732600000000        1.08465800000000        0.82041300000000
C           15.59453700000000        2.65912300000000        2.14788400000000
C           15.62839900000000        3.77260700000000        3.12377600000000
C           15.14059800000000        5.03971200000000        2.77310500000000
C           15.18879700000000        6.09156600000000        3.69181400000000
C           15.72985400000000        5.89711500000000        4.97259500000000
N           15.76630900000000        7.00043600000000        5.89658900000000
C           16.30772100000000        6.90289100000000        7.24811100000000
C           16.22527400000000        4.62483500000000        5.31808300000000
C           16.17567300000000        3.57306700000000        4.39869900000000
C           16.89367600000000        2.18060400000000        1.60627200000000
C           18.17047800000000        2.87468700000000        1.81408800000000
C           19.11493200000000        2.16495100000000        1.23081700000000
N           17.04983400000000        1.09096600000000        0.91876500000000
C           18.44794100000000        1.01043200000000        0.64156900000000
C           19.05472300000000       -0.00094000000000       -0.00065800000000
C           18.30410300000000       -1.13441600000000       -0.58515000000000
C           18.84583600000000       -2.30184200000000       -0.90853900000000
C           17.81377000000000       -3.09313500000000       -1.54995800000000
C           16.71081000000000       -2.35406100000000       -1.58025300000000
N           16.93047800000000       -1.08105600000000       -0.97057300000000
C           15.44025600000000       -2.76973800000000       -2.22787500000000
C           15.47880900000000       -3.87076500000000       -3.22108600000000
C           16.22452500000000       -3.72738800000000       -4.39974900000000
C           16.28155700000000       -4.76818900000000       -5.33109800000000
C           15.59567000000000       -5.97495100000000       -5.09387900000000
N           15.63441100000000       -7.06529900000000       -6.03306300000000
C           16.37113500000000       -7.01965300000000       -7.29178100000000
C           14.85810000000000       -6.11605600000000       -3.90790800000000
C           14.80239600000000       -5.07533000000000       -2.97706100000000
C           14.27149200000000       -2.16746700000000       -1.93549700000000
C           12.97111600000000       -2.46423700000000       -2.53404800000000
C           12.09881800000000       -1.68798200000000       -1.92048300000000
C           12.83357100000000       -0.88727900000000       -0.94256700000000
N           14.10045200000000       -1.15829600000000       -0.94245900000000
H           11.09816300000000        0.06780300000000       -0.01082400000000
H           11.10124700000000        1.92611000000000        1.85323800000000
H           12.89752800000000        3.30883000000000        3.03650200000000
H           14.72486900000000        5.21176000000000        1.78778900000000
H           14.80501400000000        7.06212600000000        3.40352500000000
H           15.38672900000000        7.92617900000000        5.59337600000000
H           17.38003500000000        6.61809000000000        7.20633600000000
H           15.73772000000000        6.14872100000000        7.83037000000000
H           16.22174900000000        7.88452700000000        7.76018300000000
H           16.65178700000000        4.43694000000000        6.29384200000000
H           16.56277100000000        2.60129300000000        4.68020600000000
H           18.33033400000000        3.80358900000000        2.34558700000000
H           20.16710600000000        2.41590000000000        1.21151100000000
H           19.87256400000000       -2.60459900000000       -0.75230500000000
H           17.93308900000000       -4.09070100000000       -1.95246900000000
H           16.75958700000000       -2.80666100000000       -4.59834900000000
H           16.86291100000000       -4.62316700000000       -6.23127900000000
H           15.10939400000000       -7.94182400000000       -5.81156500000000
H           15.98276400000000       -6.19654800000000       -7.92768700000000
H           16.24460000000000       -7.97856000000000       -7.83741000000000
H           17.45240300000000       -6.86615600000000       -7.09177800000000
H           14.32683900000000       -7.03690700000000       -3.70247900000000
H           14.23531700000000       -5.20874800000000       -2.06387800000000
H           12.74080100000000       -3.16986400000000       -3.32132400000000
H           11.03559000000000       -1.65624900000000       -2.11917200000000
Zn          32.72044100000000       -2.02015100000000       -1.55681300000000
C           36.47153200000000        0.01265600000000       -0.07108700000000
C           35.82189900000000       -0.95141300000000       -0.72980100000000
C           36.48660600000000       -2.04612000000000       -1.42636000000000
C           35.55640000000000       -2.79436300000000       -1.98982900000000
C           34.24416900000000       -2.20468000000000       -1.69029100000000
N           34.40596800000000       -1.03910400000000       -0.88094100000000
C           33.05875700000000       -2.67813600000000       -2.12781400000000
C           33.02489400000000       -3.87347400000000       -3.00152900000000
C           33.51269500000000       -3.80773500000000       -4.31461900000000
C           33.46449700000000       -4.93382000000000       -5.14066500000000
C           32.92344000000000       -6.14131100000000       -4.67143400000000
N           32.88698500000000       -7.28378500000000       -5.54655500000000
C           32.34557200000000       -8.58145600000000       -5.15645900000000
C           32.42801900000000       -6.20086300000000       -3.35442600000000
C           32.47762000000000       -5.07413700000000       -2.52861000000000
C           31.75961800000000       -2.04516100000000       -1.77900500000000
C           30.48281500000000       -2.39941800000000       -2.41101800000000
C           29.53836200000000       -1.67533800000000       -1.84565300000000
N           31.60345900000000       -1.13646200000000       -0.86563600000000
C           30.20535200000000       -0.84837300000000       -0.84752700000000
C           29.59857000000000       -0.00094000000000       -0.00065800000000
C           30.34919000000000        0.81679200000000        0.97797000000000
C           29.80745700000000        1.38712100000000        2.04670300000000
C           30.83952300000000        2.18574400000000        2.67897200000000
C           31.94248300000000        2.05404300000000        1.95109600000000
N           31.72281600000000        1.18128500000000        0.84179700000000
C           33.21303700000000        2.77676000000000        2.21544600000000
C           33.17448400000000        3.98628300000000        3.07322400000000
C           32.42876800000000        5.10526000000000        2.67611900000000
C           32.37173600000000        6.24127000000000        3.48862100000000
C           33.05762400000000        6.27308100000000        4.71806600000000
N           33.01888300000000        7.42754800000000        5.57721300000000
C           32.28215800000000        8.64597600000000        5.25801400000000
C           33.79519400000000        5.14647600000000        5.11454900000000
C           33.85089800000000        4.01097300000000        4.30201100000000
C           34.38180100000000        2.36001200000000        1.69148400000000
C           35.68217700000000        3.00889600000000        1.85050000000000
C           36.55447500000000        2.24073700000000        1.22682900000000
C           35.81972200000000        1.11167100000000        0.65879900000000
N           34.55284100000000        1.17070200000000        0.92331000000000
H           37.55513100000000       -0.00601900000000       -0.06996300000000
H           37.55204599999999       -2.23064600000000       -1.47675600000000
H           35.75576499999999       -3.68710700000000       -2.56797000000000
H           33.92842400000000       -2.88370100000000       -4.69751600000000
H           33.84827900000000       -4.86425400000000       -6.15074300000000
H           33.26656400000000       -7.18987400000000       -6.51615200000000
H           31.27325800000000       -8.47854400000000       -4.88763600000000
H           32.91557400000000       -8.98512600000000       -4.29341200000000
H           32.43154400000000       -9.29538100000000       -6.00270700000000
H           32.00150700000000       -7.11211200000000       -2.95814700000000
H           32.09052200000000       -5.13682000000000       -1.51882600000000
H           30.32295900000000       -3.12079700000000       -3.20156500000000
H           28.48618799999999       -1.71125400000000       -2.09476800000000
H           28.78072900000000        1.30071200000000        2.37625500000000
H           30.72020400000000        2.79622400000000        3.56467300000000
H           31.89370600000000        5.09817200000000        1.73424300000000
H           31.79038299999999        7.08811700000000        3.15067500000000
H           33.54390000000000        7.40264500000000        6.48094700000000
H           32.67052900000000        9.08695800000000        4.31598900000000
H           32.40869300000000        9.38769100000000        6.07476000000000
H           31.20089000000000        8.41730000000000        5.15185700000000
H           34.32645400000000        5.14692600000000        6.05803700000000
H           34.41797700000000        3.14890500000000        4.63147100000000
H           35.91249200000000        3.93116900000000        2.36734100000000
H           37.61770299999999        2.42771400000000        1.15250600000000
C           19.82275300000000        0.01551500000000        0.01085300000000
C           21.28097900000000       -0.00632100000000       -0.00702000000000
C           22.41490800000000       -0.02707500000000       -0.00851100000000
C           23.77628900000000       -0.03966500000000       -0.01070200000000
C           25.05050800000000       -0.02935800000000       -0.01546700000000
C           26.23897100000000       -0.01056000000000       -0.02162400000000
C           27.59133100000000        0.01422400000000       -0.00575600000000
C           28.69159900000000        0.01551500000000        0.01085300000000
140
 energy: -222.846592264865 gnorm: 6.176823520551 xtb: 6.5.1 (b24c23e)
Zn          15.86175793289683        1.77296629813846        1.52247681614507
C           12.18182168259461        0.06423207056548       -0.02986575489476
C           12.83194263283210        0.91828094285992        0.76802253918682
C           12.16645274090430        1.83636748961568        1.68389561396065
C           13.09696284444973        2.55001584883932        2.29165105757556
C           14.39967569032901        2.12880357027821        1.78165294391403
N           14.24659369306323        1.08512172774408        0.82084330918349
C           15.52189260517342        2.81127051269513        2.26040704381887
C           15.62763330460189        3.77393188227425        3.12472986500474
C           15.14063410358822        5.03992473830711        2.77341439661130
C           15.18881461291535        6.09144158399466        3.69176782631833
C           15.72988774534035        5.89754637344570        4.97301302839240
N           15.76615929094047        7.00030804546146        5.89609798755782
C           16.30772586927445        6.90287505696617        7.24811073991818
C           16.22524485075262        4.62481346529464        5.31795927149139
C           16.17564093771428        3.57338998013308        4.39879512368017
C           17.04293691742414        2.21622879711799        1.60342745313481
C           18.17101547031324        2.87505957640765        1.81425120135225
C           19.11545049337574        2.16391678997340        1.23011199849120
N           17.05385426638730        1.08753927736746        0.91583123172454
C           18.44544177391492        1.01273511309597        0.64301389600189
C           18.99342521708582       -0.00326053515538       -0.00214655280424
C           18.30135506403520       -1.13453017420880       -0.58571158234343
C           18.84607123058123       -2.30298517184350       -0.90896032742038
C           17.81502020516193       -3.09344871233142       -1.54976390462125
C           16.70984936333840       -2.35314861922731       -1.58027713123128
N           16.93109251264292       -1.08146123411658       -0.97057532140842
C           15.44088692294430       -2.76959707636546       -2.22765028940978
C           15.47889386566246       -3.87076700736690       -3.22102477847029
C           16.22446616170956       -3.72763367389141       -4.39977413098186
C           16.28148024374856       -4.76817701096036       -5.33097209865742
C           15.59571385167995       -5.97531101039588       -5.09424531424692
N           15.63420918093748       -7.06521222554257       -6.03263793410274
C           16.37113191873748       -7.01964004214257       -7.29176398606149
C           14.85813684538800       -6.11592901481442       -3.90787420654381
C           14.80246087270827       -5.07537158090578       -2.97729083441389
C           14.27119100874343       -2.16720268900181       -1.93528604278209
C           12.97148482089232       -2.46447025165348       -2.53420523334644
C           12.09835880835219       -1.68765145125237       -1.92024066798381
C           12.83299523719687       -0.88695090672604       -0.94227621070174
N           14.10067789016807       -1.15868789369905       -0.94283058523047
H           11.09815331956505        0.06778379156539       -0.01085148258039
H           11.10126024179446        1.92604663882829        1.85317597201266
H           12.89765035067092        3.30885618004871        3.03651157278216
H           14.72486056064807        5.21174287208566        1.78777931315436
H           14.80501599113133        7.06214419419217        3.40353605654470
H           15.38690491016476        7.92570572645895        5.59348363263346
H           17.37987284210148        6.61811673852323        7.20637512951686
H           15.73783410032405        6.14882667616413        7.83030404706517
H           16.22174579626517        7.88434721082451        7.76003934297438
H           16.65178678079084        4.43695899076581        6.29386015603081
H           16.56276898256551        2.60125671220694        4.68020270728943
H           18.33017986139755        3.80362811935236        2.34563584433177
H           20.16709174041574        2.41579682909591        1.21144446398430
H           19.87255857838664       -2.60462603443123       -0.75229678964169
H           17.93313435996114       -4.09068763126361       -1.95243090442604
H           16.75958065989766       -2.80666147879545       -4.59833760107051
H           16.86291219294655       -4.62318575940223       -6.23130273062403
H           15.10963945551982       -7.94137345104301       -5.81163614516778
H           15.98285541241228       -6.19666427903783       -7.92761229402455
H           16.24459881077932       -7.97838569526597       -7.83726838357021
H           17.45225016085619       -6.86616143414398       -7.09184252434904
H           14.32683913236594       -7.03693147068681       -3.70249063205568
H           14.23532387207938       -5.20873648515913       -2.06387607964029
H           12.74090906109561       -3.16986827563261       -3.32130902582604
H           11.03557685637414       -1.65618806849301       -2.11911517722141
Zn          32.79151266228225       -1.87442304961558       -1.39945743542840
C           36.47147049392934        0.01338385162757       -0.07060680779973
C           35.82132163355830       -0.95169733116687       -0.73002168081927
C           36.48684276540636       -2.04579561121015       -1.42612144479896
C           35.55631448705751       -2.79462878422784       -1.98996631450404
C           34.25363130477214       -2.20502321253838       -1.69018571041224
N           34.40673322469866       -1.03962095865012       -0.88129615558382
C           33.13133869271460       -2.82113144077376       -2.25173813525763
C           33.02566333744735       -3.87469438175074       -3.00261596983609
C           33.51265916411177       -3.80808251078466       -4.31475783151178
C           33.46447874987402       -4.93374694361548       -5.14055366975297
C           32.92340589629922       -6.14181490799437       -4.67176487022273
N           32.88713500327130       -7.28327622911402       -5.54653581627203
C           32.34556682178459       -8.58145259159425       -5.15644332011405
C           32.42804877700777       -6.20073698849487       -3.35443182825333
C           32.47765264328361       -5.07429867960552       -2.52890239854308
C           31.61048561612386       -2.05013995568078       -1.81434523482981
C           30.48211799764867       -2.39962262756214       -2.41133536585335
C           29.53787055993014       -1.67457627119284       -1.84496311303936
N           31.59948922389933       -1.13286626983006       -0.86298894371993
C           30.20706266879355       -0.84964163312203       -0.84877768199977
C           29.62829559496820       -0.00076869870425       -0.00017221878482
C           30.35117889033508        0.81687201232361        0.97737308007354
C           29.80729731173084        1.38786829450245        2.04780980163264
C           30.83822923420383        2.18563217348105        2.67935435808272
C           31.94353596156072        2.05391142307471        1.95020827680566
N           31.72226187906519        1.18138769658789        0.84225417741913
C           33.21234418887347        2.77651436032127        2.21536858167526
C           33.17440336850521        3.98622519647260        3.07324308444974
C           32.42882661057141        5.10533809375889        2.67635260090556
C           32.37181269048201        6.24114416357103        3.48863668357744
C           33.05757993272779        6.27351822375319        4.71833812954752
N           33.01908497445029        7.42711331106615        5.57722030086418
C           32.28216085943698        8.64595681260408        5.25800495178755
C           33.79515729082203        5.14641492436935        5.11443281070713
C           33.85083369333443        4.01120725961897        4.30200205757378
C           34.38212597156010        2.35971320181889        1.69123947833651
C           35.68181463463330        3.00909970235507        1.85069188930728
C           36.55493712151722        2.24043396894162        1.22656485457278
C           35.82032546468729        1.11129062728784        0.65852490551175
N           34.55259081131768        1.17117388082797        0.92362945475767
H           37.55514041679801       -0.00598708331913       -0.06995145304273
H           37.55203246666148       -2.23057108827501       -1.47670737321603
H           35.75564243797250       -3.68712131593674       -2.56799304446652
H           33.92843218824093       -2.88368803443181       -4.69750141893893
H           33.84827687214163       -4.86426853151716       -6.15075819146270
H           33.26638804790883       -7.18987569987541       -6.51566676085776
H           31.27342033252962       -8.47858793597443       -4.88765362932761
H           32.91545990207025       -8.98508459044398       -4.29352959813235
H           32.43154722635515       -9.29520150038276       -6.00256288603662
H           32.00150720429497       -7.11213342254213       -2.95816154268578
H           32.09052434152697       -5.13680845193297       -1.51879193827419
H           30.32311573451179       -3.12086041847491       -3.20159746025190
H           28.48620551568475       -1.71117683268571       -2.09469152699279
H           28.78073983703954        1.30071384625455        2.37629113100417
H           30.72016604235334        2.79619027780013        3.56467275704872
H           31.89371259242396        5.09816088820028        1.73424602744570
H           31.79038187702276        7.08814399141469        3.15068813682323
H           33.54365454938257        7.40261608629588        6.48049184599109
H           32.67043760543428        9.08691039827380        4.31611883852457
H           32.40869421456553        9.38751468121527        6.07462077126118
H           31.20104295363313        8.41736410690779        5.15184825028448
H           34.32645378859673        5.14694261989657        6.05805833386876
H           34.41797014117257        3.14890062825677        4.63146036607804
H           35.91238372435705        3.93115501577650        2.36734818290604
H           37.61771578441006        2.42764555398832        1.15245857612045
C           19.88757450015845        0.01637301397433        0.01137165171362
C           21.27734545903741       -0.00625752172979       -0.00702910435436
C           22.41944416767442       -0.02713550940347       -0.00851104367493
C           23.77578887679483       -0.03966552793861       -0.01070534569027
C           25.04781565136096       -0.02939400671710       -0.01546462069767
C           26.24221978270611       -0.01050372797181       -0.02160895088334
C           27.58172852187035        0.01424185026232       -0.00585158513856
C           28.66839132362158        0.01637066416837        0.01151515087498
140
 energy: -224.522897616706 gnorm: 3.753969287227 xtb: 6.5.1 (b24c23e)
Zn          15.79530577090648        1.73302756657400        1.50999092928760
C           12.18268167015986        0.05976260975881       -0.03419605423981
C           12.83490214765581        0.91972921542603        0.76928425941066
C           12.16385131954293        1.83422514967892        1.68207004619706
C           13.09224248018017        2.55278658692059        2.29451177168770
C           14.34963611265801        2.13452490936287        1.78608331367008
N           14.23739948428231        1.09086500031876        0.82591315579250
C           15.53651910608811        2.79250473651685        2.24398730213121
C           15.62812968142893        3.78813457848018        3.13699923724143
C           15.14020223059047        5.04484626847230        2.77717504996229
C           15.18893947027295        6.09153865315760        3.69204189018073
C           15.73012515884212        5.90085446933141        4.97607061462871
N           15.76513180547765        6.99927000783894        5.89260829149825
C           16.30757573870642        6.90270305589335        7.24749696649416
C           16.22529802240990        4.62540304179814        5.31764230183761
C           16.17668324129855        3.57743489218832        4.40232505580112
C           17.09596315502984        2.25376140546999        1.62054101744509
C           18.17776415477619        2.88743315153662        1.82082688084529
C           19.12140759432843        2.15597886035544        1.22421305232390
N           17.09009484036706        1.07680696158953        0.90426600548127
C           18.42924416467037        1.02998828073290        0.65259630359452
C           18.88315465032675       -0.01329467403327       -0.00849060590281
C           18.27906389983547       -1.13642197259787       -0.59003901687047
C           18.84671472765535       -2.31215813513265       -0.91266267890556
C           17.82436687532415       -3.09588082665184       -1.54863361775578
C           16.70324591520707       -2.34642191834231       -1.58069060626874
N           16.93266436388459       -1.08566099146987       -0.97139189366501
C           15.44582638297503       -2.76797877432044       -2.22568530798226
C           15.47992345116715       -3.87072713252206       -3.22026202492367
C           16.22398365752156       -3.72970307497488       -4.39983126121771
C           16.28072361792047       -4.76851918301351       -5.33016111411223
C           15.59596145919583       -5.97812862022763       -5.09698890493554
N           15.63276859108158       -7.06426442179864       -6.02939316041774
C           16.37080918109256       -7.01942668634559       -7.29106954394618
C           14.85855455872919       -6.11507014136848       -3.90802080138870
C           14.80296859597730       -5.07551421651791       -2.97919946040578
C           14.26929041530260       -2.16527895563690       -1.93367642460257
C           12.97381105952476       -2.46573726868125       -2.53494433393242
C           12.09479926892962       -1.68518256219416       -1.91843329089198
C           12.82862800965934       -0.88474727244250       -0.94015674825949
N           14.10173624224108       -1.16172237970403       -0.94595611674170
H           11.09822561919209        0.06749622222844       -0.01126074774296
H           11.10101277729748        1.92514424971820        1.85232330111846
H           12.89877141527517        3.30951719898137        3.03700908381561
H           14.72501522915804        5.21148888851588        1.78809046408233
H           14.80507814137999        7.06244346343266        3.40371209432856
H           15.38852338360518        7.92123310607414        5.59431071633698
H           17.37831185410690        6.61837557781483        7.20679787488543
H           15.73901214144780        6.14987433227523        7.82969194578195
H           16.22172329644141        7.88260644930888        7.75857785939772
H           16.65177024379525        4.43720203888664        6.29407247944408
H           16.56259549733585        2.60132696664809        4.68000984894032
H           18.33017388230834        3.80556216026575        2.34686740419819
H           20.16790277043683        2.41390488134269        1.21006004995431
H           19.87274730037499       -2.60504985404653       -0.75215119253680
H           17.93390514205571       -4.09090624877460       -1.95210938667415
H           16.75938930796418       -2.80688446031426       -4.59819351927990
H           16.86281667057688       -4.62334828728994       -6.23139026933331
H           15.11181522683859       -7.93708687454674       -5.81208721770521
H           15.98374852000904       -6.19778807966296       -7.92685847890026
H           16.24451127032478       -7.97664286008165       -7.83578313479530
H           17.45070531497160       -6.86618262591654       -7.09248160566758
H           14.32687201562741       -7.03702127121553       -3.70257376274514
H           14.23549804378809       -5.20859378528985       -2.06404824411622
H           12.74216789507602       -3.17000634600730       -3.32123072768235
H           11.03502648222883       -1.65543366749894       -2.11850318232320
Zn          32.85811102086507       -1.85341487419407       -1.36303801843262
C           36.47058813837733        0.01869751763654       -0.06711641966638
C           35.81829027312701       -0.95330964277313       -0.73119909011178
C           36.48945248846437       -2.04352863926463       -1.42441681077096
C           35.56098950732050       -2.79801934348718       -1.99205114242084
C           34.30371835252691       -2.21059409267367       -1.69479719249652
N           34.41605756554414       -1.04585379073688       -0.88581940760968
C           33.11651405530381       -2.80095303428639       -2.23693981896595
C           33.02516640260912       -3.88977574293056       -3.01380637808605
C           33.51310089139666       -3.81282148476169       -4.31872418645141
C           33.46434238212032       -4.93403063884156       -5.14058913413820
C           32.92316667698982       -6.14552981327770       -4.67433112421677
N           32.88816405891426       -7.27963696217869       -5.54627784019310
C           32.34571531088920       -8.58081791797228       -5.15640795079926
C           32.42800155408925       -6.20055546851133       -3.35508291777722
C           32.47661842155384       -5.07860309631041       -2.53207225864573
C           31.55757216788433       -2.07473358231092       -1.84685023020950
C           30.47445517629439       -2.40860352468564       -2.42203733071891
C           29.53167037207842       -1.66760741794210       -1.83909751955555
N           31.56373584251103       -1.11927721866330       -0.85533788680491
C           30.22381453685953       -0.85991216839719       -0.86030337576556
C           29.74439831395815        0.00270151196695        0.00499303746063
C           30.37215562732023        0.81905253268777        0.97545084479460
C           29.80673320701366        1.39389451480976        2.05616500665515
C           30.82807713254158        2.18484443678161        2.68204437918867
C           31.95064679950641        2.05256260941773        1.94295419632292
N           31.72124714987704        1.18338966082682        0.84678594347200
C           33.20723258059537        2.77428596455421        2.21420904998679
C           33.17338304095515        3.98548931179745        3.07338934551489
C           32.42930765365193        5.10584847022693        2.67835824554147
C           32.37256762953815        6.24042680235749        3.48914769213496
C           33.05733150086602        6.27682142357650        4.72049657867555
N           33.02052636285308        7.42373189098462        5.57699692225050
C           32.28248209531178        8.64523399671973        5.25794693890493
C           33.79474049517162        5.14636952558292        5.11356497515174