140
 energy: -227.332761148153 gnorm: 0.000576191674 xtb: 6.5.1 (b24c23e)
Zn          15.02692667459372        0.03130170479932        0.00248821939265
C           11.61928288767050        0.08117052269137       -0.05183752590923
C           12.23815509710143        1.01626329801782        0.76966327272704
C           11.55330453648371        1.95637234520740        1.61122901923181
C           12.50433954033159        2.68558287460018        2.24801914740541
C           13.78276375473426        2.20848872930452        1.79268655843119
N           13.58584237459322        1.18982868882107        0.90651522130830
C           15.02865694855189        2.69884056937448        2.20667839436699
C           15.03559580880210        3.84027403663893        3.15288837036710
C           14.44579599044550        5.05982887904797        2.80941467069581
C           14.47042701159202        6.12905233780203        3.68511929319532
C           15.07823090252402        6.00715183657688        4.94061224881403
N           15.12839275214738        7.12467093761430        5.76170581418604
C           15.30020191851972        6.95641209021928        7.19841533207869
C           15.66960311791227        4.78978874816280        5.28970236049163
C           15.64581420028063        3.72629165201448        4.40343112755311
C           16.27192355968301        2.20260270132950        1.79750705192503
C           17.54685050638066        2.75091220304939        2.16933770917280
C           18.50000437543540        1.99504149096999        1.56646139711793
N           16.47539051014220        1.13593938414818        0.96223621546822
C           17.81828233071689        0.98513362882996        0.81261142553956
C           18.45849408556865       -0.00831728405132        0.04412532089964
C           17.81434244842601       -0.99069454576994       -0.73541339390224
C           18.49060539669923       -2.02089200591186       -1.46636857596622
C           17.53501907042261       -2.75981488656727       -2.08617870432757
C           16.26453988501634       -2.17925754944271       -1.74979267156863
N           16.47235238598316       -1.11201905736169       -0.91623076922824
C           15.02048733487940       -2.64611552856102       -2.18985986196684
C           15.02267389394460       -3.79658324319800       -3.12505137344553
C           15.67148690217719       -3.71318127862094       -4.35840457187054
C           15.69129538696159       -4.78668193704341       -5.23265359794877
C           15.05662909491907       -5.98347309627897       -4.88853037306879
N           15.09985662705980       -7.11136484645039       -5.69571120184662
C           15.32199760516964       -6.96543815699466       -7.12787335994367
C           14.40909387981260       -6.07450600599892       -3.65037423887798
C           14.38889063073366       -4.99540222429091       -2.78680104242287
C           13.77707004358016       -2.11766186015186       -1.81728837824832
C           12.50046739952549       -2.55919879613040       -2.31186073774094
C           11.55152842236352       -1.79735323533182       -1.71116055081735
C           12.23639102731846       -0.87398297041444       -0.85126821955939
N           13.58202786555182       -1.08850368839575       -0.94298682278052
H           10.53374937580462        0.09773731592402       -0.06998381108835
H           10.48107152783955        2.03348188524975        1.70356530326856
H           12.35681130280606        3.46991167859104        2.97327426435665
H           13.98374626258284        5.17436023600875        1.83483609752962
H           14.02046393030566        7.07432316561191        3.40006442873697
H           14.41515396049277        7.80765933610169        5.53629193792897
H           16.30464857539544        6.58995181595660        7.41428003394456
H           14.56452583684200        6.25820286850200        7.61401730835952
H           15.17683029642393        7.93199054877741        7.66874605070661
H           16.15270783206064        4.66602678299462        6.25118561825810
H           16.09442013096653        2.78198377610387        4.69272934976707
H           17.69386781903019        3.61431419116292        2.79795299927661
H           19.57105998963539        2.11090755808986        1.61631859557337
H           19.55959310009674       -2.16152897855638       -1.48968970581970
H           17.67732512503537       -3.63130180232823       -2.70462830047877
H           16.15408990181202       -2.78475941238855       -4.64433971104233
H           16.20505295451665       -4.68660693946916       -6.18089785576547
H           14.36035951449459       -7.77094815723873       -5.48576561079630
H           14.61585371128479       -6.25689579209121       -7.57599466007188
H           15.19264579418716       -7.94415514874099       -7.59004699898577
H           16.34076396899596       -6.62367722971389       -7.31491016470052
H           13.92470054346924       -7.00374039108416       -3.36903851574387
H           13.89551207586179       -5.08624121932369       -1.82515780306676
H           12.35340462524667       -3.34321515142297       -3.03755827052661
H           10.48111106118233       -1.84236831237202       -1.83893804422174
Zn          33.63024904637023       -0.01241626237264       -0.03112152035306
C           37.03792243272022        0.03096560630600       -0.08731211602912
C           36.42034400587653       -0.97441570999385       -0.82219668965916
C           37.10648766160921       -1.99969769547084       -1.55641856228845
C           36.15646100707945       -2.77979588465867       -2.13139987689165
C           34.87738194262540       -2.23226578869444       -1.76605689097496
N           35.07289312911821       -1.14601628220241       -0.96381833446057
C           33.63216596179154       -2.74396787819379       -2.15546572894309
C           33.62661339883301       -3.91612515193450       -3.06335868317009
C           34.21616427100378       -3.84647272403392       -4.32853651032632
C           34.19245181911972       -4.93447755404476       -5.18086623032851
C           33.58591038571093       -6.13371798110818       -4.78781756721523
N           33.53652311966523       -7.17899831286841       -5.69915677902768
C           33.36556852416277       -8.54440791621323       -5.22125892253127
C           32.99487857995928       -6.20932509928426       -3.52349312760440
C           33.01772866823285       -5.11230165762246       -2.67909337295666
C           32.38821364880013       -2.23830638907792       -1.76012211249950
C           31.11391525120574       -2.72253159769737       -2.21405585943852
C           30.15972361767590       -1.97148763660069       -1.60679634215752
N           32.18331779921931       -1.19154266454114       -0.90039506692177
C           30.84016436289627       -1.01495004136813       -0.78523275728283
C           30.19872876010564       -0.04938470454228        0.01699638556064
C           30.84160978356484        0.92686001487548        0.80525989273405
C           30.16404409294141        1.86442442990412        1.65073522855151
C           31.11850511621204        2.63275023432142        2.23552927440303
C           32.38959528626122        2.17944424160508        1.74243142193323
N           32.18327542266743        1.13209347477532        0.88364965690775
C           33.63290915617279        2.71259276272245        2.10187212338775
C           33.62921132638581        3.87661917360205        3.02010922559049
C           32.97888347008922        5.06125958687278        2.66972642080323
C           32.95783637363414        6.14861669836304        3.52669581150886
C           33.59276364118121        6.07465026617449        4.76964920617014
N           33.54843106276519        7.10829617590510        5.69436263973363
C           33.32428273111459        8.47390205210634        5.23982555421396
C           34.24181775645206        4.88698151577130        5.12851679317294
C           34.26319418753225        3.80885111596837        4.26380418318006
C           34.87703360608844        2.23430445364734        1.66874770513393
C           36.15301671202288        2.81403656435106        1.99286812603547
C           37.10304290761812        2.06112433417419        1.38269654508177
C           36.41947609579712        1.01964619247537        0.66918342886754
N           35.07352914479307        1.15588105259738        0.85633268907651
H           38.12348509620718        0.04516560638492       -0.10563908483721
H           38.17882734712349       -2.10625650535849       -1.61017623788047
H           36.30503446007572       -3.65777608958483       -2.73968503982930
H           34.67732205295619       -2.91996587194214       -4.65308750125931
H           34.64216229103041       -4.86214968720254       -6.16564765898557
H           34.24980370073370       -7.10771320232564       -6.41480123117400
H           32.36163742134815       -8.67529003744366       -4.81532306978071
H           34.10222569038653       -8.79748109120774       -4.45005953081281
H           33.48803444403913       -9.21627544133810       -6.07083812559652
H           32.51277034344051       -7.12108241946337       -3.19271769846133
H           32.56939334643504       -5.18894026476658       -1.69432296453236
H           30.96796986278862       -3.52388699162837       -2.92028891582831
H           29.08874655853963       -2.04725271873765       -1.70849890042192
H           29.09502476071313        1.91604000882960        1.78335754344421
H           30.97507056607129        3.42690410074809        2.95034560699201
H           32.49611049167662        5.13725711635177        1.70132625359962
H           32.44292777374854        7.05158675738379        3.22229459955406
H           34.28804961849165        7.04810902732142        6.38379322815749
H           34.02883109152148        8.75727958856911        4.44939948785595
H           33.45455470670291        9.13857051952188        6.09390805795265
H           32.30475760445453        8.58099746293802        4.86723311821157
H           34.72639314042821        4.81570863394845        6.09669269898546
H           34.75756698208215        2.89071404638641        4.56222286282023
H           36.29901389766837        3.69407053690409        2.59881222152077
H           38.17340972349272        2.19585105881459        1.40030303445196
C           19.86244862749988       -0.02068131092065        0.05563170026391
C           21.08732864147845       -0.02937058544175        0.06113505163041
C           22.42917241639159       -0.04120076628943        0.06149135176936
C           23.65995618278011       -0.05227340646586        0.06466326630667
C           24.99717494638108       -0.05630549481612        0.06121281310747
C           26.22803902366735       -0.06142540371989        0.05243051989539
C           27.56989019353009       -0.06173846096293        0.04210639514791
C           28.79479532762484       -0.05964681481436        0.03199115234882
