      -----------------------------------------------------------      
     |                   =====================                   |     
     |                           x T B                           |     
     |                   =====================                   |     
     |                         S. Grimme                         |     
     |          Mulliken Center for Theoretical Chemistry        |     
     |                    University of Bonn                     |     
      -----------------------------------------------------------      

   * xtb version 6.5.1 (b24c23e) compiled by 'conda@728c89f4b128' on 2022-07-12

   xtb is free software: you can redistribute it and/or modify it under
   the terms of the GNU Lesser General Public License as published by
   the Free Software Foundation, either version 3 of the License, or
   (at your option) any later version.
   
   xtb is distributed in the hope that it will be useful,
   but WITHOUT ANY WARRANTY; without even the implied warranty of
   MERCHANTABILITY or FITNESS FOR A PARTICULAR PURPOSE.  See the
   GNU Lesser General Public License for more details.
   
   Cite this work as:
   * C. Bannwarth, E. Caldeweyher, S. Ehlert, A. Hansen, P. Pracht,
     J. Seibert, S. Spicher, S. Grimme, WIREs Comput. Mol. Sci., 2020, 11,
     e01493. DOI: 10.1002/wcms.1493
   
   for GFN2-xTB:
   * C. Bannwarth, S. Ehlert and S. Grimme., J. Chem. Theory Comput., 2019,
     15, 1652-1671. DOI: 10.1021/acs.jctc.8b01176
   for GFN1-xTB:
   * S. Grimme, C. Bannwarth, P. Shushkov, J. Chem. Theory Comput., 2017,
     13, 1989-2009. DOI: 10.1021/acs.jctc.7b00118
   for GFN0-xTB:
   * P. Pracht, E. Caldeweyher, S. Ehlert, S. Grimme, ChemRxiv, 2019, preprint.
     DOI: 10.26434/chemrxiv.8326202.v1
   for GFN-FF:
   * S. Spicher and S. Grimme, Angew. Chem. Int. Ed., 2020, 59, 15665-15673.
     DOI: 10.1002/anie.202004239
   
   for ALPB and GBSA implicit solvation:
   * S. Ehlert, M. Stahn, S. Spicher, S. Grimme, J. Chem. Theory Comput.,
     2021, 17, 4250-4261. DOI: 10.1021/acs.jctc.1c00471
   
   for DFT-D4:
   * E. Caldeweyher, C. Bannwarth and S. Grimme, J. Chem. Phys., 2017,
     147, 034112. DOI: 10.1063/1.4993215
   * E. Caldeweyher, S. Ehlert, A. Hansen, H. Neugebauer, S. Spicher,
     C. Bannwarth and S. Grimme, J. Chem. Phys., 2019, 150, 154122.
     DOI: 10.1063/1.5090222
   * E. Caldeweyher, J.-M. Mewes, S. Ehlert and S. Grimme, Phys. Chem. Chem. Phys.
     2020, 22, 8499-8512. DOI: 10.1039/D0CP00502A
   
   for sTDA-xTB:
   * S. Grimme and C. Bannwarth, J. Chem. Phys., 2016, 145, 054103.
     DOI: 10.1063/1.4959605
   
   in the mass-spec context:
   * V. Asgeirsson, C. Bauer and S. Grimme, Chem. Sci., 2017, 8, 4879.
     DOI: 10.1039/c7sc00601b
   * J. Koopman and S. Grimme, ACS Omega 2019, 4, 12, 15120-15133.
     DOI: 10.1021/acsomega.9b02011
   
   for metadynamics refer to:
   * S. Grimme, J. Chem. Theory Comput., 2019, 155, 2847-2862
     DOI: 10.1021/acs.jctc.9b00143
   
   for SPH calculations refer to:
   * S. Spicher and S. Grimme, J. Chem. Theory Comput., 2021, 17, 1701-1714
     DOI: 10.1021/acs.jctc.0c01306
   
   with help from (in alphabetical order)
   P. Atkinson, C. Bannwarth, F. Bohle, G. Brandenburg, E. Caldeweyher
   M. Checinski, S. Dohm, S. Ehlert, S. Ehrlich, I. Gerasimov, C. Hölzer
   A. Katbashev, J. Koopman, C. Lavigne, S. Lehtola, F. März, M. Müller,
   F. Musil, H. Neugebauer, J. Pisarek, C. Plett, P. Pracht, F. Pultar,
   J. Seibert, P. Shushkov, S. Spicher, M. Stahn, M. Steiner, T. Strunk,
   J. Stückrath, T. Rose, and J. Unsleber
   
 * started run on 2022/07/31 at 01:30:27.216     

           -------------------------------------------------
          |                Calculation Setup                |
           -------------------------------------------------

          program call               : xtb xtbopt.xyz --gfn 1 --vipea
          hostname                   : cx3-15-11.cx3.hpc.ic.ac.uk
          coordinate file            : xtbopt.xyz
          omp threads                :                     1

   ID    Z sym.   atoms
    1    6 C      1-5, 7-10, 12-20, 22-26, 28-32, 35, 36, 38-42, 44, 74-78,
                  80-83, 85-93, 95-99, 101-105, 108, 109, 111-115, 117,
                  147-175, 177-180, 182-190, 192-196, 198-202, 205, 206,
                  208-212, 214, 243-247, 249-252, 254-262, 264-268, 270-274,
                  277, 278, 280-284, 286
    2    7 N      6, 11, 33, 34, 79, 84, 106, 107, 176, 181, 203, 204, 248,
                  253, 275, 276
    3    8 O      21, 27, 37, 43, 94, 100, 110, 116, 191, 197, 207, 213, 263,
                  269, 279, 285
    4    1 H      45-73, 118-146, 215-242, 287-314

           -------------------------------------------------
          |                 I P E A - x T B                 |
           -------------------------------------------------

        Reference                      10.1039/c7sc00601b
      * Hamiltonian:
        H0-scaling (s, p, d)           2.150000    2.300000    2.000000
        zeta-weighting                 0.000000
      * Dispersion:
        s8                             2.400000
        a1                             0.630000
        a2                             5.000000
        s9                             0.000000
      * Repulsion:
        kExp                           1.500000
        rExp                           1.000000
      * Coulomb:
        alpha                          1.000000
        third order                    atomic
        anisotropic                    false
      * Halogen bond correction:
        rad-scale                      1.300000
        damping                        0.440000


          ...................................................
          :                      SETUP                      :
          :.................................................:
          :  # basis functions                1228          :
          :  # atomic orbitals                1228          :
          :  # shells                          828          :
          :  # electrons                       962          :
          :  # halogen bonds                     0          :
          :  max. iterations                   250          :
          :  Hamiltonian                  GFN1-xTB          :
          :  restarted?                      false          :
          :  GBSA solvation                  false          :
          :  PC potential                    false          :
          :  electronic temp.          300.0000000     K    :
          :  accuracy                    1.0000000          :
          :  -> integral cutoff          0.2500000E+02      :
          :  -> integral neglect         0.1000000E-07      :
          :  -> SCF convergence          0.1000000E-05 Eh   :
          :  -> wf. convergence          0.2000000E-04 e    :
          :  Broyden damping             0.4000000          :
          ...................................................

 iter      E             dE          RMSdq      gap      omega  full diag
   1   -614.1406138 -0.614141E+03  0.971E+00    0.82       0.0  T
   2   -615.3157830 -0.117517E+01  0.603E+00    1.27       1.0  T
   3   -606.3049707  0.901081E+01  0.443E+00    0.46       1.0  T
   4   -616.3593525 -0.100544E+02  0.109E+00    1.29       1.0  T
   5   -617.2118087 -0.852456E+00  0.313E-01    1.11       1.0  T
   6   -617.2788713 -0.670626E-01  0.110E-01    1.13       1.0  T
   7   -617.2845739 -0.570260E-02  0.527E-02    1.12       1.0  T
   8   -617.2857863 -0.121243E-02  0.304E-02    1.12       1.0  T
   9   -617.2860149 -0.228563E-03  0.213E-02    1.12       1.0  T
  10   -617.2861933 -0.178433E-03  0.865E-03    1.12       1.0  T
  11   -617.2862281 -0.347678E-04  0.322E-03    1.12       1.8  T
  12   -617.2862335 -0.548060E-05  0.103E-03    1.12       5.5  T
  13   -617.2862342 -0.678041E-06  0.412E-04    1.12      13.7  T
  14   -617.2862343 -0.101910E-06  0.167E-04    1.12      33.8  T
  15   -617.2862343 -0.120733E-07  0.910E-05    1.12      62.0  T

   *** convergence criteria satisfied after 15 iterations ***

         #    Occupation            Energy/Eh            Energy/eV
      -------------------------------------------------------------
         1        2.0000           -1.0545610             -28.6961
       ...           ...                  ...                  ...
       475        2.0000           -0.3906521             -10.6302
       476        2.0000           -0.3906079             -10.6290
       477        2.0000           -0.3903832             -10.6229
       478        2.0000           -0.3747724             -10.1981
       479        2.0000           -0.3726116             -10.1393
       480        2.0000           -0.3712097             -10.1011
       481        2.0000           -0.3639638              -9.9040 (HOMO)
       482                         -0.3227342              -8.7820 (LUMO)
       483                         -0.3145453              -8.5592
       484                         -0.3128013              -8.5118
       485                         -0.3108889              -8.4597
       486                         -0.3052442              -8.3061
       ...                                ...                  ...
      1228                        544.0268932           14803.7253
      -------------------------------------------------------------
                  HL-Gap            0.0412296 Eh            1.1219 eV
             Fermi-level           -0.3433488 Eh           -9.3430 eV

 SCC (total)                   0 d,  0 h,  0 min, 11.567 sec
 SCC setup                      ...        0 min,  0.011 sec (  0.093%)
 Dispersion                     ...        0 min,  0.015 sec (  0.127%)
 classical contributions        ...        0 min,  0.004 sec (  0.036%)
 integral evaluation            ...        0 min,  0.888 sec (  7.678%)
 iterations                     ...        0 min,  8.778 sec ( 75.890%)
 molecular gradient             ...        0 min,  1.748 sec ( 15.116%)
 printout                       ...        0 min,  0.123 sec (  1.060%)

         :::::::::::::::::::::::::::::::::::::::::::::::::::::
         ::                     SUMMARY                     ::
         :::::::::::::::::::::::::::::::::::::::::::::::::::::
         :: total energy            -605.708550037165 Eh    ::
         :: gradient norm              0.087948663799 Eh/a0 ::
         :: HOMO-LUMO gap              1.121914290278 eV    ::
         ::.................................................::
         :: SCC energy              -617.286234337658 Eh    ::
         :: -> electrostatic           0.378256307654 Eh    ::
         :: repulsion energy          11.846687183322 Eh    ::
         :: dispersion energy         -0.269002882829 Eh    ::
         :: halogen bond corr.         0.000000000000 Eh    ::
         :: add. restraining           0.000000000000 Eh    ::
         :: total charge               0.000000000000 e     ::
         :::::::::::::::::::::::::::::::::::::::::::::::::::::

           ------------------------------------------------- 
          |        vertical delta SCC IP calculation        |
           ------------------------------------------------- 
   1   -616.8879241 -0.616888E+03  0.878E-02    1.12       0.0  T
   2   -616.8669604  0.209637E-01  0.146E-01    0.91       1.0  T
   3   -616.8959266 -0.289662E-01  0.511E-02    1.11       1.0  T
   4   -616.8882495  0.767703E-02  0.770E-02    1.10       1.0  T
   5   -616.8983731 -0.101235E-01  0.314E-02    1.12       1.0  T
   6   -616.8995720 -0.119897E-02  0.188E-02    1.11       1.0  T
   7   -616.8997783 -0.206262E-03  0.101E-02    1.11       1.0  T
   8   -616.8997293  0.490329E-04  0.765E-03    1.12       1.0  T
   9   -616.8998256 -0.963105E-04  0.444E-03    1.11       1.3  T
  10   -616.8998657 -0.401593E-04  0.132E-03    1.11       4.3  T
  11   -616.8998686 -0.291549E-05  0.525E-04    1.11      10.8  T
  12   -616.8998688 -0.154685E-06  0.279E-04    1.11      20.2  T
  13   -616.8998689 -0.999011E-07  0.969E-05    1.11      58.2  T
  14   -616.8998689 -0.330454E-08  0.617E-05    1.11      91.5  T
     SCC iter.                  ...        0 min,  8.200 sec
     gradient                   ...        0 min,  1.736 sec
------------------------------------------------------------------------
empirical IP shift (eV):    4.8455
delta SCC IP (eV):    5.6680
------------------------------------------------------------------------
           ------------------------------------------------- 
          |        vertical delta SCC EA calculation        |
           ------------------------------------------------- 
   1   -617.5606546 -0.617561E+03  0.138E-01    0.26       0.0  T
   2   -617.5522238  0.843076E-02  0.153E-01    0.01       1.0  T
   3   -617.5765191 -0.242953E-01  0.882E-02    0.18       1.0  T
   4   -617.5844760 -0.795690E-02  0.548E-02    0.06       1.0  T
   5   -617.5840836  0.392442E-03  0.374E-02    0.06       1.0  T
   6   -617.5728679  0.112157E-01  0.733E-02    0.08       1.0  T
   7   -617.5845210 -0.116531E-01  0.336E-02    0.10       1.0  T
   8   -617.5858804 -0.135941E-02  0.101E-02    0.08       1.0  T
   9   -617.5860244 -0.144049E-03  0.466E-03    0.07       1.2  T
  10   -617.5860445 -0.200325E-04  0.272E-03    0.07       2.1  T
  11   -617.5860531 -0.869336E-05  0.187E-03    0.07       3.0  T
  12   -617.5860618 -0.861448E-05  0.528E-04    0.07      10.7  T
  13   -617.5860619 -0.175726E-06  0.224E-04    0.07      25.2  T
  14   -617.5860620 -0.275392E-07  0.108E-04    0.07      52.4  T
  15   -617.5860620  0.294506E-08  0.833E-05    0.07      67.7  T
     SCC iter.                  ...        0 min,  8.742 sec
     gradient                   ...        0 min,  1.731 sec
------------------------------------------------------------------------
empirical EA shift (eV):    4.8455
delta SCC EA (eV):    3.3132
------------------------------------------------------------------------
           -------------------------------------------------
          |                Property Printout                |
           -------------------------------------------------

    * Orbital Energies and Occupations

         #    Occupation            Energy/Eh            Energy/eV
      -------------------------------------------------------------
         1        2.0000           -1.0226142             -27.8267
       ...           ...                  ...                  ...
       470        2.0000           -0.3617593              -9.8440
       471        2.0000           -0.3606758              -9.8145
       472        2.0000           -0.3549127              -9.6577
       473        2.0000           -0.3546077              -9.6494
       474        2.0000           -0.3539883              -9.6325
       475        2.0000           -0.3508322              -9.5466
       476        2.0000           -0.3464030              -9.4261
       477        2.0000           -0.3459868              -9.4148
       478        2.0000           -0.3349462              -9.1144
       479        2.0000           -0.3345560              -9.1037
       480        2.0000           -0.3287948              -8.9470
       481        2.0000           -0.3193297              -8.6894
       482        0.7699           -0.2782453              -7.5714 (HOMO)
       483        0.1785           -0.2756477              -7.5008 (LUMO)
       484        0.0508           -0.2743169              -7.4645
       485        0.0004           -0.2696403              -7.3373
       486        0.0003           -0.2693300              -7.3288
       487        0.0000           -0.2671733              -7.2702
       488                         -0.2608297              -7.0975
       489                         -0.2604017              -7.0859
       490                         -0.2373184              -6.4578
       491                         -0.2308224              -6.2810
       492                         -0.2303115              -6.2671
       493                         -0.2274866              -6.1902
       ...                                ...                  ...
      1228                        544.0690742           14804.8731
      -------------------------------------------------------------
                  HL-Gap            0.0025976 Eh            0.0707 eV
             Fermi-level           -0.2879612 Eh           -7.8358 eV

  Mulliken/CM5 charges         n(s)   n(p)   n(d)
     1C    -0.02638 -0.06716   1.087  2.939  0.000
     2C     0.06096  0.12136   1.108  2.831  0.000
     3C    -0.03670 -0.08199   1.082  2.954  0.000
     4C    -0.03220 -0.07687   1.076  2.956  0.000
     5C     0.06298  0.12638   1.099  2.838  0.000
     6N    -0.15802 -0.51185   1.305  3.853  0.000
     7C     0.01695  0.02373   1.085  2.898  0.000
     8C     0.06064  0.12845   1.113  2.827  0.000
     9C    -0.03650 -0.08226   1.083  2.954  0.000
    10C    -0.03829 -0.08372   1.092  2.947  0.000
    11N    -0.28305 -0.47023   1.281  4.002  0.000
    12C     0.06403  0.13489   1.131  2.805  0.000
    13C     0.01369  0.02096   1.083  2.904  0.000
    14C     0.06597  0.13089   1.112  2.822  0.000
    15C    -0.03428 -0.07872   1.081  2.953  0.000
    16C    -0.03177 -0.07644   1.075  2.957  0.000
    17C     0.06250  0.12524   1.097  2.840  0.000
    18C     0.01611  0.02296   1.084  2.900  0.000
    19C    -0.00883 -0.00766   1.053  2.956  0.000
    20C     0.09524  0.11438   1.107  2.797  0.000
    21O    -0.24017 -0.32956   1.604  4.636  0.000
    22C     0.03568 -0.08414   1.107  2.857  0.000
    23C    -0.04320 -0.09344   1.078  2.965  0.000
    24C    -0.03188 -0.08725   1.088  2.944  0.000
    25C    -0.04626 -0.09828   1.047  2.999  0.000
    26C     0.09465  0.11374   1.109  2.797  0.000
    27O    -0.23145 -0.32113   1.612  4.619  0.000
    28C     0.03448 -0.08632   1.108  2.857  0.000
    29C     0.06188  0.13107   1.116  2.822  0.000
    30C    -0.03677 -0.08245   1.085  2.952  0.000
    31C    -0.04056 -0.08690   1.093  2.948  0.000
    32C     0.05808  0.12381   1.127  2.815  0.000
    33N    -0.28609 -0.47361   1.281  4.005  0.000
    34N    -0.15536 -0.50852   1.307  3.848  0.000
    35C    -0.00905 -0.00789   1.052  2.957  0.000
    36C     0.09517  0.11438   1.107  2.798  0.000
    37O    -0.24021 -0.32960   1.604  4.636  0.000
    38C     0.03560 -0.08422   1.107  2.858  0.000
    39C    -0.04361 -0.09384   1.078  2.966  0.000
    40C    -0.03198 -0.08736   1.088  2.944  0.000
    41C    -0.04630 -0.09831   1.047  2.999  0.000
    42C     0.09476  0.11388   1.109  2.797  0.000
    43O    -0.23138 -0.32094   1.612  4.619  0.000
    44C     0.03458 -0.08621   1.108  2.857  0.000
    45H     0.02600  0.08494   0.974  0.000  0.000
    46H     0.03608  0.09274   0.964  0.000  0.000
    47H     0.02975  0.08870   0.970  0.000  0.000
    48H     0.16250  0.37085   0.838  0.000  0.000
    49H     0.02218  0.08136   0.978  0.000  0.000
    50H     0.02370  0.08169   0.976  0.000  0.000
    51H     0.03296  0.09101   0.967  0.000  0.000
    52H     0.03054  0.08968   0.969  0.000  0.000
    53H     0.02651  0.08883   0.973  0.000  0.000
    54H     0.04219  0.10225   0.958  0.000  0.000
    55H     0.02851  0.09033   0.971  0.000  0.000
    56H     0.03355  0.09344   0.966  0.000  0.000
    57H     0.03135  0.08737   0.969  0.000  0.000
    58H     0.03336  0.09296   0.967  0.000  0.000
    59H     0.04490  0.10520   0.955  0.000  0.000
    60H     0.03404  0.09296   0.966  0.000  0.000
    61H     0.03513  0.09398   0.965  0.000  0.000
    62H     0.02123  0.08044   0.979  0.000  0.000
    63H     0.02686  0.08327   0.973  0.000  0.000
    64H     0.16130  0.36965   0.839  0.000  0.000
    65H     0.03014  0.09198   0.970  0.000  0.000
    66H     0.04247  0.10257   0.958  0.000  0.000
    67H     0.02571  0.08799   0.974  0.000  0.000
    68H     0.03309  0.09301   0.967  0.000  0.000
    69H     0.03122  0.08723   0.969  0.000  0.000
    70H     0.03355  0.09314   0.966  0.000  0.000
    71H     0.03372  0.09255   0.966  0.000  0.000
    72H     0.04536  0.10566   0.955  0.000  0.000
    73H     0.03574  0.09468   0.964  0.000  0.000
    74C    -0.02639 -0.06717   1.087  2.939  0.000
    75C     0.06100  0.12140   1.108  2.831  0.000
    76C    -0.03665 -0.08194   1.082  2.954  0.000
    77C    -0.03209 -0.07674   1.076  2.956  0.000
    78C     0.06303  0.12645   1.099  2.838  0.000
    79N    -0.15806 -0.51190   1.305  3.853  0.000
    80C     0.01709  0.02387   1.085  2.898  0.000
    81C     0.06065  0.12844   1.113  2.827  0.000
    82C    -0.03643 -0.08220   1.083  2.954  0.000
    83C    -0.03821 -0.08365   1.092  2.947  0.000
    84N    -0.28285 -0.47006   1.281  4.002  0.000
    85C     0.06411  0.13498   1.131  2.805  0.000
    86C     0.01387  0.02114   1.083  2.903  0.000
    87C     0.06587  0.13079   1.112  2.822  0.000
    88C    -0.03429 -0.07873   1.081  2.953  0.000
    89C    -0.03186 -0.07653   1.075  2.957  0.000
    90C     0.06247  0.12522   1.097  2.841  0.000
    91C     0.01603  0.02287   1.084  2.900  0.000
    92C    -0.00886 -0.00769   1.052  2.956  0.000
    93C     0.09529  0.11445   1.107  2.797  0.000
    94O    -0.24002 -0.32942   1.604  4.636  0.000
    95C     0.03569 -0.08413   1.107  2.857  0.000
    96C    -0.04328 -0.09352   1.078  2.965  0.000
    97C    -0.03196 -0.08734   1.088  2.944  0.000
    98C    -0.04635 -0.09837   1.047  3.000  0.000
    99C     0.09462  0.11370   1.109  2.797  0.000
   100O    -0.23146 -0.32113   1.612  4.619  0.000
   101C     0.03448 -0.08631   1.108  2.857  0.000
   102C     0.06184  0.13102   1.116  2.822  0.000
   103C    -0.03684 -0.08252   1.085  2.952  0.000
   104C    -0.04060 -0.08693   1.093  2.948  0.000
   105C     0.05806  0.12378   1.127  2.815  0.000
   106N    -0.28610 -0.47363   1.281  4.005  0.000
   107N    -0.15537 -0.50853   1.307  3.848  0.000
   108C    -0.00890 -0.00774   1.052  2.957  0.000
   109C     0.09510  0.11430   1.107  2.798  0.000
   110O    -0.24059 -0.32992   1.604  4.637  0.000
   111C     0.03563 -0.08419   1.107  2.858  0.000
   112C    -0.04344 -0.09368   1.078  2.965  0.000
   113C    -0.03191 -0.08728   1.088  2.944  0.000
   114C    -0.04614 -0.09816   1.047  2.999  0.000
   115C     0.09478  0.11388   1.108  2.797  0.000
   116O    -0.23141 -0.32099   1.612  4.619  0.000
   117C     0.03458 -0.08621   1.108  2.857  0.000
   118H     0.02599  0.08492   0.974  0.000  0.000
   119H     0.03610  0.09276   0.964  0.000  0.000
   120H     0.02977  0.08872   0.970  0.000  0.000
   121H     0.16246  0.37083   0.838  0.000  0.000
   122H     0.02230  0.08153   0.978  0.000  0.000
   123H     0.02393  0.08196   0.976  0.000  0.000
   124H     0.03286  0.09089   0.967  0.000  0.000
   125H     0.03046  0.08958   0.970  0.000  0.000
   126H     0.02664  0.08895   0.973  0.000  0.000
   127H     0.04227  0.10233   0.958  0.000  0.000
   128H     0.02853  0.09036   0.971  0.000  0.000
   129H     0.03346  0.09336   0.967  0.000  0.000
   130H     0.03121  0.08722   0.969  0.000  0.000
   131H     0.03324  0.09284   0.967  0.000  0.000
   132H     0.04489  0.10519   0.955  0.000  0.000
   133H     0.03400  0.09292   0.966  0.000  0.000
   134H     0.03503  0.09388   0.965  0.000  0.000
   135H     0.02115  0.08035   0.979  0.000  0.000
   136H     0.02679  0.08320   0.973  0.000  0.000
   137H     0.16131  0.36966   0.839  0.000  0.000
   138H     0.03020  0.09202   0.970  0.000  0.000
   139H     0.04242  0.10251   0.958  0.000  0.000
   140H     0.02553  0.08781   0.974  0.000  0.000
   141H     0.03320  0.09310   0.967  0.000  0.000
   142H     0.03131  0.08732   0.969  0.000  0.000
   143H     0.03362  0.09321   0.966  0.000  0.000
   144H     0.03372  0.09254   0.966  0.000  0.000
   145H     0.04531  0.10561   0.955  0.000  0.000
   146H     0.03584  0.09479   0.964  0.000  0.000
   147C    -0.01959 -0.02116   1.091  2.928  0.000
   148C    -0.02188 -0.02262   1.061  2.961  0.000
   149C    -0.01853 -0.01862   1.075  2.943  0.000
   150C    -0.01736 -0.01737   1.077  2.940  0.000
   151C    -0.02039 -0.02040   1.075  2.946  0.000
   152C    -0.01530 -0.01539   1.078  2.937  0.000
   153C    -0.02474 -0.02546   1.059  2.966  0.000
   154C    -0.01605 -0.01760   1.096  2.920  0.000
   155C    -0.01841 -0.01996   1.093  2.926  0.000
   156C    -0.02353 -0.02426   1.060  2.964  0.000
   157C    -0.01811 -0.01820   1.076  2.942  0.000
   158C    -0.01986 -0.01986   1.076  2.944  0.000
   159C    -0.02007 -0.02008   1.076  2.944  0.000
   160C    -0.01814 -0.01823   1.076  2.942  0.000
   161C    -0.02402 -0.02475   1.060  2.964  0.000
   162C    -0.01869 -0.02024   1.093  2.926  0.000
   163C    -0.01570 -0.01726   1.096  2.920  0.000
   164C    -0.02444 -0.02517   1.059  2.966  0.000
   165C    -0.01511 -0.01520   1.078  2.937  0.000
   166C    -0.02037 -0.02038   1.075  2.946  0.000
   167C    -0.01724 -0.01725   1.077  2.940  0.000
   168C    -0.01867 -0.01877   1.075  2.943  0.000
   169C    -0.02177 -0.02251   1.061  2.961  0.000
   170C    -0.01981 -0.02138   1.091  2.929  0.000
   171C     0.01068  0.01797   1.080  2.910  0.000
   172C     0.06568  0.13070   1.111  2.824  0.000
   173C    -0.03673 -0.08111   1.078  2.958  0.000
   174C    -0.03239 -0.07656   1.076  2.956  0.000
   175C     0.06165  0.12603   1.101  2.838  0.000
   176N    -0.15618 -0.50869   1.313  3.844  0.000
   177C     0.01826  0.02722   1.096  2.886  0.000
   178C     0.05939  0.12822   1.119  2.822  0.000
   179C    -0.03707 -0.08228   1.086  2.951  0.000
   180C    -0.04008 -0.08546   1.091  2.949  0.000
   181N    -0.28484 -0.47116   1.292  3.993  0.000
   182C     0.06408  0.13508   1.131  2.805  0.000
   183C     0.01309  0.02037   1.082  2.905  0.000
   184C     0.06558  0.13057   1.111  2.824  0.000
   185C    -0.03590 -0.08034   1.080  2.956  0.000
   186C    -0.03269 -0.07736   1.075  2.958  0.000
   187C     0.06110  0.12393   1.095  2.844  0.000
   188C     0.01865  0.02536   1.085  2.896  0.000
   189C    -0.00852 -0.00740   1.052  2.956  0.000
   190C     0.09491  0.11401   1.108  2.797  0.000
   191O    -0.23111 -0.32065   1.612  4.619  0.000
   192C     0.03479 -0.08599   1.108  2.857  0.000
   193C    -0.04655 -0.09857   1.046  3.000  0.000
   194C    -0.03220 -0.08758   1.088  2.944  0.000
   195C    -0.04364 -0.09387   1.078  2.966  0.000
   196C     0.09572  0.11495   1.107  2.797  0.000
   197O    -0.23954 -0.32900   1.604  4.635  0.000
   198C     0.03603 -0.08381   1.106  2.858  0.000
   199C     0.05957  0.12737   1.111  2.830  0.000
   200C    -0.03706 -0.08283   1.083  2.954  0.000
   201C    -0.03998 -0.08541   1.091  2.949  0.000
   202C     0.06350  0.13441   1.130  2.806  0.000
   203N    -0.28312 -0.47003   1.280  4.003  0.000
   204N    -0.15441 -0.50777   1.307  3.848  0.000
   205C    -0.00760 -0.00515   1.069  2.939  0.000
   206C     0.09562  0.11468   1.105  2.800  0.000
   207O    -0.23045 -0.32034   1.610  4.620  0.000
   208C     0.03491 -0.08593   1.108  2.857  0.000
   209C    -0.04679 -0.09887   1.048  2.999  0.000
   210C    -0.03279 -0.08833   1.089  2.944  0.000
   211C    -0.04643 -0.09851   1.048  2.998  0.000
   212C     0.09652  0.11559   1.106  2.798  0.000
   213O    -0.22918 -0.31924   1.611  4.618  0.000
   214C     0.03517 -0.08567   1.108  2.857  0.000
   215H     0.03088  0.08893   0.969  0.000  0.000
   216H     0.02894  0.08898   0.971  0.000  0.000
   217H     0.16234  0.37047   0.838  0.000  0.000
   218H     0.01995  0.08007   0.980  0.000  0.000
   219H     0.02171  0.07972   0.978  0.000  0.000
   220H     0.03106  0.08909   0.969  0.000  0.000
   221H     0.02900  0.08809   0.971  0.000  0.000
   222H     0.04491  0.10521   0.955  0.000  0.000
   223H     0.03398  0.09282   0.966  0.000  0.000
   224H     0.03423  0.09317   0.966  0.000  0.000
   225H     0.03264  0.09223   0.967  0.000  0.000
   226H     0.03027  0.08629   0.970  0.000  0.000
   227H     0.03251  0.09244   0.967  0.000  0.000
   228H     0.04192  0.10204   0.958  0.000  0.000
   229H     0.02884  0.09069   0.971  0.000  0.000
   230H     0.02633  0.08867   0.974  0.000  0.000
   231H     0.02035  0.07952   0.980  0.000  0.000
   232H     0.02108  0.07904   0.979  0.000  0.000
   233H     0.16285  0.37090   0.837  0.000  0.000
   234H     0.03477  0.09367   0.965  0.000  0.000
   235H     0.03485  0.09373   0.965  0.000  0.000
   236H     0.04670  0.10699   0.953  0.000  0.000
   237H     0.03147  0.09101   0.969  0.000  0.000
   238H     0.02930  0.08532   0.971  0.000  0.000
   239H     0.03184  0.09138   0.968  0.000  0.000
   240H     0.03530  0.09424   0.965  0.000  0.000
   241H     0.04605  0.10636   0.954  0.000  0.000
   242H     0.03373  0.09257   0.966  0.000  0.000
   243C     0.01252  0.01981   1.082  2.906  0.000
   244C     0.06549  0.13054   1.111  2.824  0.000
   245C    -0.03641 -0.08078   1.079  2.958  0.000
   246C    -0.03266 -0.07682   1.076  2.957  0.000
   247C     0.06175  0.12614   1.101  2.837  0.000
   248N    -0.15559 -0.50813   1.313  3.843  0.000
   249C     0.01779  0.02674   1.096  2.887  0.000
   250C     0.05957  0.12843   1.119  2.821  0.000
   251C    -0.03677 -0.08198   1.086  2.950  0.000
   252C    -0.04019 -0.08558   1.091  2.950  0.000
   253N    -0.28573 -0.47202   1.292  3.994  0.000
   254C     0.06408  0.13502   1.131  2.805  0.000
   255C     0.01108  0.01837   1.080  2.909  0.000
   256C     0.06566  0.13063   1.111  2.823  0.000
   257C    -0.03643 -0.08087   1.080  2.957  0.000
   258C    -0.03253 -0.07719   1.075  2.958  0.000
   259C     0.06086  0.12370   1.094  2.845  0.000
   260C     0.01910  0.02581   1.086  2.895  0.000
   261C    -0.00842 -0.00730   1.052  2.956  0.000
   262C     0.09498  0.11408   1.108  2.797  0.000
   263O    -0.23105 -0.32062   1.612  4.619  0.000
   264C     0.03482 -0.08596   1.108  2.857  0.000
   265C    -0.04646 -0.09848   1.047  3.000  0.000
   266C    -0.03221 -0.08759   1.088  2.945  0.000
   267C    -0.04366 -0.09389   1.078  2.966  0.000
   268C     0.09564  0.11487   1.107  2.797  0.000
   269O    -0.23985 -0.32928   1.604  4.636  0.000
   270C     0.03602 -0.08382   1.106  2.858  0.000
   271C     0.05926  0.12702   1.110  2.830  0.000
   272C    -0.03726 -0.08303   1.083  2.955  0.000
   273C    -0.03984 -0.08527   1.091  2.949  0.000
   274C     0.06351  0.13449   1.130  2.806  0.000
   275N    -0.28221 -0.46916   1.281  4.001  0.000
   276N    -0.15503 -0.50837   1.306  3.849  0.000
   277C    -0.00765 -0.00520   1.069  2.939  0.000
   278C     0.09565  0.11470   1.105  2.799  0.000
   279O    -0.23039 -0.32033   1.610  4.620  0.000
   280C     0.03497 -0.08587   1.108  2.857  0.000
   281C    -0.04675 -0.09883   1.048  2.999  0.000
   282C    -0.03282 -0.08835   1.089  2.944  0.000
   283C    -0.04650 -0.09858   1.048  2.998  0.000
   284C     0.09645  0.11549   1.106  2.798  0.000
   285O    -0.22929 -0.31943   1.611  4.618  0.000
   286C     0.03519 -0.08566   1.108  2.857  0.000
   287H     0.03138  0.08943   0.969  0.000  0.000
   288H     0.02888  0.08897   0.971  0.000  0.000
   289H     0.16222  0.37036   0.838  0.000  0.000
   290H     0.01990  0.08011   0.980  0.000  0.000
   291H     0.02126  0.07928   0.979  0.000  0.000
   292H     0.03020  0.08821   0.970  0.000  0.000
   293H     0.02869  0.08777   0.971  0.000  0.000
   294H     0.04497  0.10527   0.955  0.000  0.000
   295H     0.03365  0.09248   0.966  0.000  0.000
   296H     0.03462  0.09356   0.965  0.000  0.000
   297H     0.03270  0.09229   0.967  0.000  0.000
   298H     0.03023  0.08624   0.970  0.000  0.000
   299H     0.03239  0.09231   0.968  0.000  0.000
   300H     0.04190  0.10201   0.958  0.000  0.000
   301H     0.02922  0.09106   0.971  0.000  0.000
   302H     0.02606  0.08838   0.974  0.000  0.000
   303H     0.02050  0.07970   0.979  0.000  0.000
   304H     0.02170  0.07967   0.978  0.000  0.000
   305H     0.16288  0.37094   0.837  0.000  0.000
   306H     0.03453  0.09343   0.965  0.000  0.000
   307H     0.03513  0.09401   0.965  0.000  0.000
   308H     0.04681  0.10710   0.953  0.000  0.000
   309H     0.03150  0.09105   0.968  0.000  0.000
   310H     0.02923  0.08525   0.971  0.000  0.000
   311H     0.03167  0.09121   0.968  0.000  0.000
   312H     0.03500  0.09396   0.965  0.000  0.000
   313H     0.04575  0.10606   0.954  0.000  0.000
   314H     0.03376  0.09258   0.966  0.000  0.000

Wiberg/Mayer (AO) data.
largest (>0.10) Wiberg bond orders for each atom

 ---------------------------------------------------------------------------
     #   Z sym  total        # sym  WBO       # sym  WBO       # sym  WBO
 ---------------------------------------------------------------------------
     1   6 C    3.804 --    32 C    1.383     2 C    1.372    45 H    0.997
     2   6 C    3.922 --     1 C    1.372     3 C    1.242     6 N    1.230
     3   6 C    3.833 --     4 C    1.596     2 C    1.242    46 H    0.994
     4   6 C    3.822 --     3 C    1.596     5 C    1.253    47 H    0.999
     5   6 C    3.891 --     7 C    1.346     4 C    1.253     6 N    1.224
     6   7 N    3.221 --     2 C    1.230     5 C    1.224    48 H    0.962
     7   6 C    3.814 --     8 C    1.377     5 C    1.346    35 C    1.028
     8   6 C    3.914 --     7 C    1.377    11 N    1.348     9 C    1.162
     9   6 C    3.832 --    10 C    1.690     8 C    1.162    49 H    0.999
    10   6 C    3.848 --     9 C    1.690    12 C    1.167    50 H    1.000
    11   7 N    2.517 --    12 C    1.412     8 C    1.348
    12   6 C    3.940 --    11 N    1.412    13 C    1.286    10 C    1.167
    13   6 C    3.835 --    12 C    1.286    14 C    1.285   147 C    1.220
    14   6 C    3.899 --    13 C    1.285    15 C    1.269    34 N    1.250
    15   6 C    3.827 --    16 C    1.581    14 C    1.269    51 H    0.999
    16   6 C    3.813 --    15 C    1.581    17 C    1.259    52 H    0.998
    17   6 C    3.887 --    18 C    1.348    16 C    1.259    34 N    1.216
    18   6 C    3.800 --    29 C    1.366    17 C    1.348    19 C    1.031
    19   6 C    3.818 --    20 C    1.408    26 C    1.356    18 C    1.031
    20   6 C    3.921 --    19 C    1.408    23 C    1.364    21 O    1.112
    21   8 O    2.166 --    20 C    1.112    22 C    0.975
    22   6 C    3.891 --    55 H    1.004    53 H    0.999    54 H    0.984
                            21 O    0.975
    23   6 C    3.898 --    24 C    1.467    20 C    1.364    56 H    0.984
    24   6 C    3.918 --    23 C    1.467    25 C    1.416    57 H    0.985
    25   6 C    3.827 --    24 C    1.416    26 C    1.407    58 H    0.988
    26   6 C    3.922 --    25 C    1.407    19 C    1.356    27 O    1.118
    27   8 O    2.194 --    26 C    1.118    28 C    0.983
    28   6 C    3.913 --    60 H    0.997    61 H    0.996    59 H    0.986
                            27 O    0.983
    29   6 C    3.934 --    33 N    1.373    18 C    1.366    30 C    1.154
    30   6 C    3.838 --    31 C    1.704    29 C    1.154    62 H    1.000
    31   6 C    3.860 --    30 C    1.704    32 C    1.148    63 H    0.995
    32   6 C    3.965 --     1 C    1.383    33 N    1.374    31 C    1.148
    33   7 N    2.501 --    32 C    1.374    29 C    1.373
    34   7 N    3.233 --    14 C    1.250    17 C    1.216    64 H    0.961
    35   6 C    3.817 --    36 C    1.410    42 C    1.355     7 C    1.028
    36   6 C    3.922 --    35 C    1.410    39 C    1.362    37 O    1.113
    37   8 O    2.169 --    36 C    1.113    38 C    0.976
    38   6 C    3.891 --    65 H    1.003    67 H    0.999    66 H    0.984
                            37 O    0.976
    39   6 C    3.899 --    40 C    1.468    36 C    1.362    68 H    0.984
    40   6 C    3.918 --    39 C    1.468    41 C    1.415    69 H    0.985
    41   6 C    3.827 --    40 C    1.415    42 C    1.407    70 H    0.988
    42   6 C    3.922 --    41 C    1.407    35 C    1.355    43 O    1.119
    43   8 O    2.195 --    42 C    1.119    44 C    0.983
    44   6 C    3.913 --    71 H    0.996    73 H    0.996    72 H    0.986
                            43 O    0.983
    45   1 H    1.032 --     1 C    0.997
    46   1 H    1.016 --     3 C    0.994
    47   1 H    1.032 --     4 C    0.999
    48   1 H    1.079 --     6 N    0.962
    49   1 H    1.035 --     9 C    0.999
    50   1 H    1.029 --    10 C    1.000
    51   1 H    1.028 --    15 C    0.999
    52   1 H    1.032 --    16 C    0.998
    53   1 H    1.048 --    22 C    0.999
    54   1 H    1.042 --    22 C    0.984
    55   1 H    1.043 --    22 C    1.004
    56   1 H    1.027 --    23 C    0.984
    57   1 H    1.021 --    24 C    0.985
    58   1 H    1.020 --    25 C    0.988
    59   1 H    1.040 --    28 C    0.986
    60   1 H    1.028 --    28 C    0.997
    61   1 H    1.029 --    28 C    0.996
    62   1 H    1.035 --    30 C    1.000
    63   1 H    1.016 --    31 C    0.995
    64   1 H    1.083 --    34 N    0.961
    65   1 H    1.043 --    38 C    1.003
    66   1 H    1.042 --    38 C    0.984
    67   1 H    1.048 --    38 C    0.999
    68   1 H    1.025 --    39 C    0.984
    69   1 H    1.021 --    40 C    0.985
    70   1 H    1.020 --    41 C    0.988
    71   1 H    1.029 --    44 C    0.996
    72   1 H    1.039 --    44 C    0.986
    73   1 H    1.027 --    44 C    0.996
    74   6 C    3.805 --   105 C    1.383    75 C    1.372   118 H    0.997
    75   6 C    3.923 --    74 C    1.372    76 C    1.242    79 N    1.230
    76   6 C    3.833 --    77 C    1.596    75 C    1.242   119 H    0.994
    77   6 C    3.823 --    76 C    1.596    78 C    1.252   120 H    0.999
    78   6 C    3.891 --    80 C    1.347    77 C    1.252    79 N    1.224
    79   7 N    3.221 --    75 C    1.230    78 C    1.224   121 H    0.962
    80   6 C    3.815 --    81 C    1.377    78 C    1.347   108 C    1.029
    81   6 C    3.913 --    80 C    1.377    84 N    1.348    82 C    1.162
    82   6 C    3.833 --    83 C    1.690    81 C    1.162   122 H    0.999
    83   6 C    3.848 --    82 C    1.690    85 C    1.167   123 H    1.000
    84   7 N    2.517 --    85 C    1.413    81 C    1.348
    85   6 C    3.939 --    84 N    1.413    86 C    1.285    83 C    1.167
    86   6 C    3.835 --    87 C    1.285    85 C    1.285   170 C    1.221
    87   6 C    3.900 --    86 C    1.285    88 C    1.269   107 N    1.250
    88   6 C    3.828 --    89 C    1.581    87 C    1.269   124 H    0.999
    89   6 C    3.813 --    88 C    1.581    90 C    1.259   125 H    0.998
    90   6 C    3.887 --    91 C    1.348    89 C    1.259   107 N    1.216
    91   6 C    3.800 --   102 C    1.367    90 C    1.348    92 C    1.030
    92   6 C    3.817 --    93 C    1.408    99 C    1.356    91 C    1.030
    93   6 C    3.921 --    92 C    1.408    96 C    1.363    94 O    1.112
    94   8 O    2.167 --    93 C    1.112    95 C    0.975
    95   6 C    3.891 --   128 H    1.003   126 H    0.999   127 H    0.984
                            94 O    0.975
    96   6 C    3.898 --    97 C    1.467    93 C    1.363   129 H    0.984
    97   6 C    3.918 --    96 C    1.467    98 C    1.415   130 H    0.985
    98   6 C    3.827 --    97 C    1.415    99 C    1.407   131 H    0.988
    99   6 C    3.922 --    98 C    1.407    92 C    1.356   100 O    1.118
   100   8 O    2.194 --    99 C    1.118   101 C    0.983
   101   6 C    3.913 --   133 H    0.997   134 H    0.996   132 H    0.986
                           100 O    0.983
   102   6 C    3.934 --   106 N    1.373    91 C    1.367   103 C    1.154
   103   6 C    3.838 --   104 C    1.704   102 C    1.154   135 H    1.000
   104   6 C    3.860 --   103 C    1.704   105 C    1.149   136 H    0.995
   105   6 C    3.965 --    74 C    1.383   106 N    1.374   104 C    1.149
   106   7 N    2.501 --   105 C    1.374   102 C    1.373
   107   7 N    3.233 --    87 C    1.250    90 C    1.216   137 H    0.961
   108   6 C    3.817 --   109 C    1.410   115 C    1.356    80 C    1.029
   109   6 C    3.922 --   108 C    1.410   112 C    1.363   110 O    1.112
   110   8 O    2.168 --   109 C    1.112   111 C    0.975
   111   6 C    3.891 --   138 H    1.003   140 H    0.999   139 H    0.984
                           110 O    0.975
   112   6 C    3.899 --   113 C    1.467   109 C    1.363   141 H    0.984
   113   6 C    3.918 --   112 C    1.467   114 C    1.415   142 H    0.985
   114   6 C    3.827 --   113 C    1.415   115 C    1.407   143 H    0.988
   115   6 C    3.922 --   114 C    1.407   108 C    1.356   116 O    1.119
   116   8 O    2.194 --   115 C    1.119   117 C    0.983
   117   6 C    3.913 --   144 H    0.996   146 H    0.996   145 H    0.986
                           116 O    0.983
   118   1 H    1.032 --    74 C    0.997
   119   1 H    1.016 --    76 C    0.994
   120   1 H    1.032 --    77 C    0.999
   121   1 H    1.079 --    79 N    0.962
   122   1 H    1.034 --    82 C    0.999
   123   1 H    1.028 --    83 C    1.000
   124   1 H    1.028 --    88 C    0.999
   125   1 H    1.032 --    89 C    0.998
   126   1 H    1.048 --    95 C    0.999
   127   1 H    1.042 --    95 C    0.984
   128   1 H    1.043 --    95 C    1.003
   129   1 H    1.027 --    96 C    0.984
   130   1 H    1.021 --    97 C    0.985
   131   1 H    1.020 --    98 C    0.988
   132   1 H    1.040 --   101 C    0.986
   133   1 H    1.028 --   101 C    0.997
   134   1 H    1.029 --   101 C    0.996
   135   1 H    1.035 --   103 C    1.000
   136   1 H    1.016 --   104 C    0.995
   137   1 H    1.083 --   107 N    0.961
   138   1 H    1.042 --   111 C    1.003
   139   1 H    1.042 --   111 C    0.984
   140   1 H    1.048 --   111 C    0.999
   141   1 H    1.025 --   112 C    0.984
   142   1 H    1.021 --   113 C    0.985
   143   1 H    1.020 --   114 C    0.988
   144   1 H    1.030 --   117 C    0.996
   145   1 H    1.039 --   117 C    0.986
   146   1 H    1.027 --   117 C    0.996
   147   6 C    3.752 --   148 C    2.464    13 C    1.220   150 C    0.166
   148   6 C    3.807 --   147 C    2.464   149 C    1.361
   149   6 C    3.800 --   150 C    2.346   148 C    1.361   152 C    0.161
   150   6 C    3.836 --   149 C    2.346   151 C    1.389   147 C    0.166
   151   6 C    3.835 --   152 C    2.344   150 C    1.389   154 C    0.166
   152   6 C    3.802 --   151 C    2.344   153 C    1.364   149 C    0.161
   153   6 C    3.804 --   154 C    2.459   152 C    1.364
   154   6 C    3.755 --   153 C    2.459   171 C    1.224   151 C    0.166
   155   6 C    3.753 --   156 C    2.445   183 C    1.235   158 C    0.164
   156   6 C    3.801 --   155 C    2.445   157 C    1.375
   157   6 C    3.800 --   158 C    2.328   156 C    1.375   160 C    0.158
   158   6 C    3.833 --   157 C    2.328   159 C    1.402   155 C    0.164
   159   6 C    3.833 --   160 C    2.328   158 C    1.402   162 C    0.164
   160   6 C    3.800 --   159 C    2.328   161 C    1.375   157 C    0.158
   161   6 C    3.802 --   162 C    2.445   160 C    1.375
   162   6 C    3.753 --   161 C    2.445   243 C    1.236   159 C    0.164
   163   6 C    3.755 --   164 C    2.457   255 C    1.225   166 C    0.166
   164   6 C    3.804 --   163 C    2.457   165 C    1.365
   165   6 C    3.802 --   166 C    2.342   164 C    1.365   168 C    0.160
   166   6 C    3.834 --   165 C    2.342   167 C    1.390   163 C    0.166
   167   6 C    3.836 --   168 C    2.344   166 C    1.390   170 C    0.166
   168   6 C    3.800 --   167 C    2.344   169 C    1.362   165 C    0.160
   169   6 C    3.806 --   170 C    2.462   168 C    1.362
   170   6 C    3.752 --   169 C    2.462    86 C    1.221   167 C    0.166
   171   6 C    3.822 --   202 C    1.282   172 C    1.280   154 C    1.224
   172   6 C    3.903 --   171 C    1.280   173 C    1.271   176 N    1.254
   173   6 C    3.825 --   174 C    1.576   172 C    1.271   215 H    0.999
   174   6 C    3.821 --   173 C    1.576   175 C    1.262   216 H    0.999
   175   6 C    3.895 --   177 C    1.340   174 C    1.262   176 N    1.219
   176   7 N    3.244 --   172 C    1.254   175 C    1.219   217 H    0.962
   177   6 C    3.833 --   178 C    1.379   175 C    1.340   205 C    1.038
   178   6 C    3.929 --   177 C    1.379   181 N    1.344   179 C    1.161
   179   6 C    3.840 --   180 C    1.689   178 C    1.161   218 H    1.000
   180   6 C    3.848 --   179 C    1.689   182 C    1.168   219 H    1.001
   181   7 N    2.546 --   182 C    1.421   178 C    1.344
   182   6 C    3.939 --   181 N    1.421   183 C    1.277   180 C    1.168
   183   6 C    3.822 --   182 C    1.277   184 C    1.276   155 C    1.235
   184   6 C    3.901 --   183 C    1.276   185 C    1.275   204 N    1.252
   185   6 C    3.824 --   186 C    1.573   184 C    1.275   220 H    1.000
   186   6 C    3.814 --   185 C    1.573   187 C    1.266   221 H    0.999
   187   6 C    3.880 --   188 C    1.339   186 C    1.266   204 N    1.216
   188   6 C    3.803 --   199 C    1.383   187 C    1.339   189 C    1.028
   189   6 C    3.816 --   196 C    1.410   190 C    1.356   188 C    1.028
   190   6 C    3.922 --   193 C    1.407   189 C    1.356   191 O    1.119
   191   8 O    2.195 --   190 C    1.119   192 C    0.983
   192   6 C    3.913 --   224 H    0.996   223 H    0.996   222 H    0.986
                           191 O    0.983
   193   6 C    3.826 --   194 C    1.414   190 C    1.407   225 H    0.988
   194   6 C    3.918 --   195 C    1.468   193 C    1.414   226 H    0.986
   195   6 C    3.899 --   194 C    1.468   196 C    1.361   227 H    0.984
   196   6 C    3.922 --   189 C    1.410   195 C    1.361   197 O    1.114
   197   8 O    2.172 --   196 C    1.114   198 C    0.976
   198   6 C    3.890 --   229 H    1.003   230 H    0.999   228 H    0.984
                           197 O    0.976
   199   6 C    3.915 --   188 C    1.383   203 N    1.343   200 C    1.162
   200   6 C    3.835 --   201 C    1.690   199 C    1.162   231 H    0.999
   201   6 C    3.847 --   200 C    1.690   202 C    1.168   232 H    1.001
   202   6 C    3.942 --   203 N    1.415   171 C    1.282   201 C    1.168
   203   7 N    2.502 --   202 C    1.415   199 C    1.343
   204   7 N    3.228 --   184 C    1.252   187 C    1.216   233 H    0.962
   205   6 C    3.865 --   206 C    1.378   212 C    1.376   177 C    1.038
   206   6 C    3.915 --   209 C    1.388   205 C    1.378   207 O    1.117
   207   8 O    2.189 --   206 C    1.117   208 C    0.982
   208   6 C    3.913 --   235 H    0.997   234 H    0.996   236 H    0.986
                           207 O    0.982
   209   6 C    3.830 --   210 C    1.439   206 C    1.388   237 H    0.989
   210   6 C    3.918 --   211 C    1.439   209 C    1.439   238 H    0.986
   211   6 C    3.830 --   210 C    1.439   212 C    1.387   239 H    0.989
   212   6 C    3.919 --   211 C    1.387   205 C    1.376   213 O    1.121
   213   8 O    2.195 --   212 C    1.121   214 C    0.982
   214   6 C    3.912 --   240 H    0.997   242 H    0.996   241 H    0.986
                           213 O    0.982
   215   1 H    1.026 --   173 C    0.999
   216   1 H    1.027 --   174 C    0.999
   217   1 H    1.079 --   176 N    0.962
   218   1 H    1.032 --   179 C    1.000
   219   1 H    1.031 --   180 C    1.001
   220   1 H    1.028 --   185 C    1.000
   221   1 H    1.034 --   186 C    0.999
   222   1 H    1.039 --   192 C    0.986
   223   1 H    1.028 --   192 C    0.996
   224   1 H    1.028 --   192 C    0.996
   225   1 H    1.020 --   193 C    0.988
   226   1 H    1.021 --   194 C    0.986
   227   1 H    1.026 --   195 C    0.984
   228   1 H    1.042 --   198 C    0.984
   229   1 H    1.046 --   198 C    1.003
   230   1 H    1.048 --   198 C    0.999
   231   1 H    1.035 --   200 C    0.999
   232   1 H    1.029 --   201 C    1.001
   233   1 H    1.082 --   204 N    0.962
   234   1 H    1.029 --   208 C    0.996
   235   1 H    1.027 --   208 C    0.997
   236   1 H    1.040 --   208 C    0.986
   237   1 H    1.021 --   209 C    0.989
   238   1 H    1.025 --   210 C    0.986
   239   1 H    1.021 --   211 C    0.989
   240   1 H    1.029 --   214 C    0.997
   241   1 H    1.041 --   214 C    0.986
   242   1 H    1.029 --   214 C    0.996
   243   6 C    3.820 --   274 C    1.277   244 C    1.276   162 C    1.236
   244   6 C    3.901 --   243 C    1.276   245 C    1.274   248 N    1.254
   245   6 C    3.825 --   246 C    1.572   244 C    1.274   287 H    0.999
   246   6 C    3.818 --   245 C    1.572   247 C    1.264   288 H    0.999
   247   6 C    3.894 --   249 C    1.336   246 C    1.264   248 N    1.221
   248   7 N    3.247 --   244 C    1.254   247 C    1.221   289 H    0.962
   249   6 C    3.831 --   250 C    1.382   247 C    1.336   277 C    1.039
   250   6 C    3.931 --   249 C    1.382   253 N    1.344   251 C    1.159
   251   6 C    3.841 --   252 C    1.691   250 C    1.159   290 H    1.000
   252   6 C    3.848 --   251 C    1.691   254 C    1.166   291 H    1.001
   253   7 N    2.542 --   254 C    1.420   250 C    1.344
   254   6 C    3.941 --   253 N    1.420   255 C    1.281   252 C    1.166
   255   6 C    3.823 --   254 C    1.281   256 C    1.280   163 C    1.225
   256   6 C    3.903 --   255 C    1.280   257 C    1.272   276 N    1.252
   257   6 C    3.824 --   258 C    1.576   256 C    1.272   292 H    1.000
   258   6 C    3.816 --   257 C    1.576   259 C    1.264   293 H    0.999
   259   6 C    3.881 --   260 C    1.344   258 C    1.264   276 N    1.214
   260   6 C    3.806 --   271 C    1.380   259 C    1.344   261 C    1.029
   261   6 C    3.817 --   268 C    1.410   262 C    1.356   260 C    1.029
   262   6 C    3.922 --   265 C    1.407   261 C    1.356   263 O    1.119
   263   8 O    2.195 --   262 C    1.119   264 C    0.983
   264   6 C    3.913 --   296 H    0.996   295 H    0.996   294 H    0.986
                           263 O    0.983
   265   6 C    3.826 --   266 C    1.415   262 C    1.407   297 H    0.988
   266   6 C    3.918 --   267 C    1.468   265 C    1.415   298 H    0.986
   267   6 C    3.899 --   266 C    1.468   268 C    1.362   299 H    0.985
   268   6 C    3.922 --   261 C    1.410   267 C    1.362   269 O    1.114
   269   8 O    2.171 --   268 C    1.114   270 C    0.976
   270   6 C    3.890 --   301 H    1.003   302 H    0.999   300 H    0.984
                           269 O    0.976
   271   6 C    3.913 --   260 C    1.380   275 N    1.344   272 C    1.164
   272   6 C    3.833 --   273 C    1.686   271 C    1.164   303 H    0.999
   273   6 C    3.846 --   272 C    1.686   274 C    1.171   304 H    1.001
   274   6 C    3.940 --   275 N    1.417   243 C    1.277   273 C    1.171
   275   7 N    2.505 --   274 C    1.417   271 C    1.344
   276   7 N    3.225 --   256 C    1.252   259 C    1.214   305 H    0.962
   277   6 C    3.866 --   278 C    1.378   284 C    1.376   249 C    1.039
   278   6 C    3.915 --   281 C    1.388   277 C    1.378   279 O    1.117
   279   8 O    2.189 --   278 C    1.117   280 C    0.982
   280   6 C    3.912 --   307 H    0.997   306 H    0.996   308 H    0.986
                           279 O    0.982
   281   6 C    3.830 --   282 C    1.439   278 C    1.388   309 H    0.989
   282   6 C    3.918 --   283 C    1.439   281 C    1.439   310 H    0.986
   283   6 C    3.830 --   282 C    1.439   284 C    1.387   311 H    0.989
   284   6 C    3.919 --   283 C    1.387   277 C    1.376   285 O    1.120
   285   8 O    2.195 --   284 C    1.120   286 C    0.982
   286   6 C    3.912 --   312 H    0.997   314 H    0.996   313 H    0.986
                           285 O    0.982
   287   1 H    1.026 --   245 C    0.999
   288   1 H    1.027 --   246 C    0.999
   289   1 H    1.079 --   248 N    0.962
   290   1 H    1.032 --   251 C    1.000
   291   1 H    1.031 --   252 C    1.001
   292   1 H    1.028 --   257 C    1.000
   293   1 H    1.034 --   258 C    0.999
   294   1 H    1.039 --   264 C    0.986
   295   1 H    1.029 --   264 C    0.996
   296   1 H    1.028 --   264 C    0.996
   297   1 H    1.020 --   265 C    0.988
   298   1 H    1.021 --   266 C    0.986
   299   1 H    1.026 --   267 C    0.985
   300   1 H    1.042 --   270 C    0.984
   301   1 H    1.046 --   270 C    1.003
   302   1 H    1.049 --   270 C    0.999
   303   1 H    1.035 --   272 C    0.999
   304   1 H    1.029 --   273 C    1.001
   305   1 H    1.082 --   276 N    0.962
   306   1 H    1.029 --   280 C    0.996
   307   1 H    1.027 --   280 C    0.997
   308   1 H    1.040 --   280 C    0.986
   309   1 H    1.021 --   281 C    0.989
   310   1 H    1.025 --   282 C    0.986
   311   1 H    1.021 --   283 C    0.989
   312   1 H    1.029 --   286 C    0.997
   313   1 H    1.041 --   286 C    0.986
   314   1 H    1.029 --   286 C    0.996
 ---------------------------------------------------------------------------

Topologies differ in total number of bonds
Writing topology from bond orders to xtbtopo.mol

 dipole moment from electron density (au)
     X       Y       Z   
-126.7805  -0.0301   1.8090  total (Debye):  322.277


           -------------------------------------------------
          | TOTAL ENERGY             -606.008377663512 Eh   |
          | GRADIENT NORM               0.092467505345 Eh/α |
          | HOMO-LUMO GAP               0.070683901631 eV   |
           -------------------------------------------------
########################################################################
[WARNING] Runtime exception occurred
-1- restart_readRestart: Dimension missmatch in restart file.
########################################################################

------------------------------------------------------------------------
 * finished run on 2022/07/31 at 01:31:02.061     
------------------------------------------------------------------------
 total:
 * wall-time:     0 d,  0 h,  0 min, 34.845 sec
 *  cpu-time:     0 d,  0 h,  0 min, 34.667 sec
 * ratio c/w:     0.995 speedup
 SCF:
 * wall-time:     0 d,  0 h,  0 min, 34.059 sec
 *  cpu-time:     0 d,  0 h,  0 min, 33.891 sec
 * ratio c/w:     0.995 speedup

