152
 energy: -267.539475372931 gnorm: 1.863360812226 xtb: 6.5.1 (b24c23e)
Co          12.14130800000000       -0.02083200000000       -0.02292200000000
C            8.79725700000000        0.10878500000000        0.06945000000000
C            9.46513100000000        0.89327400000000        0.91993300000000
C            8.82024200000000        1.77259800000000        1.88819600000000
C            9.76613600000000        2.42304800000000        2.53967500000000
C           11.06806200000000        1.99186600000000        2.01405900000000
N           10.88480400000000        1.01645100000000        0.98805700000000
C           12.26165600000000        2.47017500000000        2.41673800000000
C           13.55518400000000        2.01736900000000        1.84469500000000
C           14.84674900000000        2.63467000000000        2.16706400000000
C           15.78112100000000        1.97927200000000        1.50934000000000
N           13.69286300000000        1.02061800000000        1.02472400000000
C           15.09362300000000        0.93213300000000        0.76292600000000
C           15.68675800000000       -0.00080000000000       -0.00056000000000
C           14.92635500000000       -1.04867200000000       -0.72086600000000
C           15.47299000000000       -2.14266900000000       -1.23681200000000
C           14.42448600000000       -2.86479400000000       -1.92912600000000
C           13.30498700000000       -2.16391700000000       -1.79291100000000
C           12.01028800000000       -2.52986000000000       -2.42296400000000
C           12.01415200000000       -3.53904500000000       -3.51224700000000
C           12.54179600000000       -3.20033900000000       -4.77439300000000
O           13.03982500000000       -1.90159700000000       -4.97380700000000
C           13.60302400000000       -1.43030300000000       -6.19312200000000
C           12.55304300000000       -4.16530400000000       -5.79822900000000
C           12.04844700000000       -5.44472500000000       -5.56645000000000
C           11.53143500000000       -5.78194200000000       -4.31567000000000
C           11.51341300000000       -4.83548900000000       -3.27468500000000
O           11.01403300000000       -5.14613900000000       -1.99835800000000
C           10.46660600000000       -6.40763600000000       -1.63014000000000
C           10.84727300000000       -1.96969700000000       -2.04177900000000
C            9.53061500000000       -2.25155000000000       -2.61018100000000
C            8.67006500000000       -1.53272400000000       -1.91589900000000
C            9.42867200000000       -0.78588700000000       -0.91360400000000
N           10.69921500000000       -1.03326900000000       -0.97715700000000
N           13.53143100000000       -0.98190500000000       -1.02172400000000
C           12.30572700000000        3.50949300000000        3.47132800000000
C           12.43614700000000        3.12970500000000        4.82134500000000
O           12.52138000000000        1.76274000000000        5.13466200000000
C           12.64298600000000        1.24274700000000        6.45477900000000
C           12.47586500000000        4.12497900000000        5.81519700000000
C           12.38916500000000        5.47309800000000        5.46593500000000
C           12.26420800000000        5.84814200000000        4.12769400000000
C           12.22293300000000        4.87032500000000        3.11669200000000
O           12.10240700000000        5.20986400000000        1.75855000000000
C           12.02349900000000        6.54264200000000        1.26331400000000
H            7.71386400000000        0.13158500000000        0.09190800000000
H            7.75643800000000        1.88717800000000        2.05324400000000
H            9.58579900000000        3.15225600000000        3.31904900000000
H           15.02333500000000        3.47610000000000        2.82425400000000
H           16.84039300000000        2.19520700000000        1.54548500000000
H           16.51136000000000       -2.43958300000000       -1.17586300000000
H           14.54343800000000       -3.79116500000000       -2.47597400000000
H           12.84785000000000       -1.47809600000000       -7.00587900000000
H           13.91779100000000       -0.37458900000000       -6.06221600000000
H           14.49462900000000       -2.03560400000000       -6.46085800000000
H           12.94892800000000       -3.93627100000000       -6.77815100000000
H           12.06096100000000       -6.18058000000000       -6.36026500000000
H           11.15220600000000       -6.78357900000000       -4.16733800000000
H           10.14813200000000       -6.36808600000000       -0.56856000000000
H            9.57988500000000       -6.63650100000000       -2.25827900000000
H           11.23222700000000       -7.20445000000000       -1.74251600000000
H            9.28380800000000       -2.91489200000000       -3.42901500000000
H            7.59945600000000       -1.50917700000000       -2.07145500000000
H           12.69047300000000        0.13592400000000        6.40467200000000
H           11.75962400000000        1.53365200000000        7.06176400000000
H           13.57525700000000        1.61810500000000        6.92820700000000
H           12.57208800000000        3.86767600000000        6.86127000000000
H           12.41994400000000        6.23219900000000        6.23712500000000
H           12.20119100000000        6.90132300000000        3.89030500000000
H           12.94149100000000        7.10623500000000        1.53542000000000
H           11.93981500000000        6.51335200000000        0.15783400000000
H           11.12504200000000        7.04927800000000        1.67479200000000
Co          30.22183100000000        0.01849000000000        0.02244600000000
C           33.56588200000000       -0.05453300000000       -0.11897800000000
C           32.89800800000000       -0.78495400000000       -1.01632400000000
C           33.54289700000000       -1.61849100000000       -2.02427400000000
C           32.59700300000000       -2.17096700000000       -2.76067000000000
C           31.29507700000000       -1.71193000000000       -2.25919700000000
N           31.47833500000000       -0.83489100000000       -1.14792900000000
C           30.10148300000000       -2.04258100000000       -2.78985600000000
C           28.80795500000000       -1.54066100000000       -2.26038300000000
C           27.51639000000000       -1.77207300000000       -2.91721600000000
C           26.58201800000000       -1.21411800000000       -2.17503400000000
N           28.67027600000000       -0.87059300000000       -1.15726200000000
C           27.26951600000000       -0.62402000000000       -1.03248500000000
C           26.67638100000000       -0.00080000000000       -0.00056000000000
C           27.43678400000000        0.56335100000000        1.13900600000000
C           26.89014900000000        0.91866200000000        2.29520000000000
C           27.93865200000000        1.50137700000000        3.10834600000000
C           29.05815200000000        1.46610400000000        2.39522600000000
C           30.35285100000000        2.03778500000000        2.84695800000000
C           30.34898700000000        2.97266700000000        4.00064200000000
C           29.82134300000000        4.27012700000000        3.84466000000000
O           29.32331400000000        4.65200600000000        2.58741500000000
C           28.76011500000000        5.92590400000000        2.29410400000000
C           29.81009600000000        5.14650700000000        4.94527600000000
C           30.31469200000000        4.73533600000000        6.17879900000000
C           30.83170400000000        3.44933700000000        6.33492200000000
C           30.84972600000000        2.55335400000000        5.25019400000000
O           31.34910600000000        1.24584100000000        5.37639100000000
C           31.89653300000000        0.70216000000000        6.57279000000000
C           31.51586600000000        1.74003700000000        2.23832800000000
C           32.83252400000000        2.26263800000000        2.59806500000000
C           33.69307400000000        1.67750600000000        1.78790400000000
C           32.93446700000000        0.79146300000000        0.90626500000000
N           31.66392400000000        0.81923200000000        1.16016500000000
N           28.83170800000000        0.87064300000000        1.11565400000000
C           30.05741200000000       -2.93884200000000       -3.96844000000000
C           29.92699200000000       -4.32911700000000       -3.78427400000000
O           29.84175900000000       -4.83343500000000       -2.47567800000000
C           29.72015300000000       -6.21403100000000       -2.14848100000000
C           29.88727400000000       -5.17151200000000       -4.91063200000000
C           29.97397399999999       -4.63429000000000       -6.19546800000000
C           30.09893100000000       -3.25634500000000       -6.37661000000000
C           30.14020600000000       -2.39449500000000       -5.26509600000000
O           30.26073200000000       -1.00189300000000       -5.40826700000000
C           30.33964000000000       -0.32235800000000       -6.65718200000000
H           34.64927500000000       -0.07352400000000       -0.14473800000000
H           34.60670100000000       -1.76558800000000       -2.16113700000000
H           32.77734000000000       -2.83885200000000       -3.59319400000000
H           27.33980400000000       -2.30307200000000       -3.84346800000000
H           25.52274600000000       -1.21922300000000       -2.39391400000000
H           25.85177900000000        0.81615500000000        2.58044500000000
H           27.81970100000000        1.91108900000000        4.10300300000000
H           29.51528900000000        6.72363000000000        2.45686500000000
H           28.44534800000000        5.94629100000000        1.23050100000000
H           27.86851000000000        6.10494200000000        2.93129900000000
H           29.41421100000000        6.14902700000000        4.85776400000000
H           30.30217800000000        5.41657300000000        7.01995400000000
H           31.21093300000000        3.16022700000000        7.30533100000000
H           32.21500700000000       -0.34303600000000        6.38284300000000
H           32.78325400000000        1.29141900000000        6.88856100000000
H           31.13091200000000        0.70020900000000        7.37748700000000
H           33.07933100000000        2.97894000000000        3.37099600000000
H           34.76368300000000        1.83482900000000        1.78669300000000
H           29.67266600000000       -6.32165700000000       -1.04576400000000
H           30.60351500000000       -6.77353700000000       -2.52265900000000
H           28.78788200000000       -6.62933900000000       -2.58728400000000
H           29.79105100000000       -6.24352700000000       -4.80453400000000
H           29.94319500000000       -5.28982900000000       -7.05641900000000
H           30.16194800000000       -2.87175800000000       -7.38539000000000
H           29.42164800000000       -0.51164600000000       -7.25371200000000
H           30.42332400000000        0.76775200000000       -6.47115500000000
H           31.23809700000000       -0.65769500000000       -7.21713000000000
C           16.68297100000000        0.01440100000000        0.01007400000000
C           18.14119700000000       -0.00743500000000       -0.00780000000000
C           19.27512500000000       -0.02818900000000       -0.00929100000000
C           20.63650700000000       -0.04077900000000       -0.01148200000000
C           21.91072600000000       -0.03047200000000       -0.01624700000000
C           23.09918800000000       -0.01167400000000       -0.02240300000000
C           24.45154900000000        0.01311000000000       -0.00653500000000
C           25.55181700000000        0.01440100000000        0.01007400000000
152
 energy: -268.025709681236 gnorm: 0.475591161478 xtb: 6.5.1 (b24c23e)
Co          12.14607199583648       -0.01685893821335       -0.01955289813087
C            8.79812130161829        0.10085817064472        0.06031469275987
C            9.47119970396682        0.89407025861242        0.92060299969841
C            8.81934914974967        1.76896066434481        1.88451478036730
C            9.77328390835829        2.42397207688820        2.54024576745965
C           11.06651706488389        1.98610584065082        2.00856770207259
N           10.87701739190444        1.01894622577082        0.99291310387395
C           12.27360901864803        2.46847717195212        2.41356002286213
C           13.54687458140228        2.03045059905720        1.85713673126204
C           14.83354083450728        2.64052955444161        2.17460123048690
C           15.77716102459506        1.97201655343193        1.50368387034237
N           13.68916320891481        1.02112880964799        1.02099923196963
C           15.05293413170189        0.95246883510779        0.77887457945987
C           15.57701199913837       -0.01131951265322       -0.00765312370393
C           14.89003890264054       -1.05152650381148       -0.72638268086086
C           15.47136964976093       -2.15449356623935       -1.24484946824473
C           14.43771258897723       -2.86779654432561       -1.92955336690717
C           13.29310979701931       -2.15460758819422       -1.79277327133520
C           12.01887555475626       -2.52604324897185       -2.41845125786526
C           12.01735842025613       -3.53887824769751       -3.51041097640450
C           12.54424085420240       -3.19923249807533       -4.77770357242246
O           13.03661762503839       -1.90674171412185       -4.96952659646410
C           13.60093078358104       -1.43526796714097       -6.19176095214570
C           12.55265154318179       -4.16435285937974       -5.79700439131549
C           12.04844259048815       -5.44130337586781       -5.56275936487955
C           11.53155243702095       -5.78061813257139       -4.31466255039480
C           11.51168107450368       -4.83872712735247       -3.27392362327969
O           11.01683203131747       -5.14134249504936       -2.00301400898077
C           10.46872945783307       -6.40591134504912       -1.63504606041316
C           10.84678853033253       -1.96821249591926       -2.04002323473816
C            9.53691527684422       -2.25224980066118       -2.60989000382139
C            8.66447210720902       -1.52717596336496       -1.90946820591816
C            9.41706211806139       -0.78069062894602       -0.90828209021650
N           10.70426451750911       -1.03293391462698       -0.98113548564617
N           13.52176094136341       -0.98938161085235       -1.02070880921813
C           12.30758866849155        3.51022262810067        3.47156203034745
C           12.43665702188858        3.12871238497620        4.82539106850290
O           12.52068223960924        1.76803970895552        5.12978320853274
C           12.64265889832300        1.24812013052984        6.45289097483141
C           12.47564527371713        4.12430638910227        5.81403541280664
C           12.38903053968738        5.46956693859158        5.46233748020758
C           12.26416546340809        5.84700973999788        4.12701707641564
C           12.22284624232141        4.87453473206894        3.11584925095966
O           12.10297604326338        5.20489322375505        1.76372530996642
C           12.02401383907010        6.54066037601736        1.26860728106875
H            7.71424484910715        0.13008296872170        0.08999542388338
H            7.75655414262022        1.88437147471170        2.05032405103843
H            9.59071305056529        3.15231396227299        3.31899371880788
H           15.01950632566745        3.47765617235584        2.82609690935984
H           16.83874307833408        2.18989590010391        1.54116527747453
H           16.51102071668562       -2.43990598524198       -1.17591569018069
H           14.54583305253997       -3.79173582243791       -2.47545123807700
H           12.85095388356801       -1.47821822747636       -7.00455884491012
H           13.91473277280619       -0.38097042210970       -6.05958274720984
H           14.49188517902497       -2.03378382497332       -6.46144998960405
H           12.94907030065231       -3.93535289094643       -6.77778133561346
H           12.06093277230399       -6.17951507511731       -6.35910535060866
H           11.15201435859065       -6.78328999854258       -4.16636249574210
H           10.15115031799321       -6.36492507139203       -0.57463514864433
H            9.58262014082434       -6.63722478718103       -2.25650804665899
H           11.22912738502187       -7.20306951285204       -1.74252459363144
H            9.28836091235429       -2.91493221520982       -3.42828210996707
H            7.59803249130038       -1.50676066325477       -2.06890614211740
H           12.68994179410927        0.14264361648432        6.40140798748038
H           11.76289692660076        1.53291090157431        7.06121966837014
H           13.57198752220252        1.61700572310202        6.92809713699424
H           12.57212254819987        3.86679140524028        6.86095678790971
H           12.41990560661339        6.23108261225544        6.23599109776856
H           12.20113222183639        6.90107159720939        3.88941628537867
H           12.93811380375841        7.10575830620475        1.53477234240033
H           11.94042539817683        6.50995993373379        0.16447564953158
H           11.12822339018821        7.04912195430804        1.67362672956142
Co          30.21642682532917        0.01586484059941        0.01851061774387
C           33.56498941666229       -0.04653478386931       -0.10970955745737
C           32.89186166610996       -0.78549848119550       -1.01706538668288
C           33.54371651888044       -1.61538178227825       -2.02019639254730
C           32.58995038161074       -2.17141618551538       -2.76168359800411
C           31.29644712800523       -1.70729106035826       -2.25256672055094
N           31.48652853396499       -0.83940922289317       -1.15176624663907
C           30.08955987819531       -2.03968380763198       -2.78750925634492
C           28.81696772113102       -1.54979717127223       -2.27282937821703
C           27.52725565785614       -1.77786291874933       -2.92332080343830
C           26.58497653868466       -1.21044771204976       -2.16862828037112
N           28.67445589986047       -0.86616884371107       -1.15758811141065
C           27.30285681393486       -0.63260868967996       -1.04641949457780
C           26.77341794110222        0.00205989356059        0.00860249596162
C           27.46641164751409        0.56554835611532        1.13569323990149
C           26.89150992733708        0.92556231111530        2.30847041213226
C           27.92423320395645        1.50105819924219        3.11108896402899
C           29.07053513481829        1.46709598777177        2.38544119901339
C           30.34344614192624        2.03373294497862        2.84242946821958
C           30.34575333183604        2.97082407251878        4.00025334111563
C           29.81893512000468        4.27352731424538        3.84403824635403
O           29.32653516809138        4.64707270839776        2.59190412282654
C           28.76221177898010        5.92382015133594        2.29882934318688
C           29.81048864094516        5.14542901364269        4.94416248314356
C           30.31469611364559        4.73217335119609        6.17489126227781
C           30.83159386825121        3.44852986097683        6.33347953391545
C           30.85142341563025        2.55216881753610        5.25328473015203
O           31.34632779613064        1.25110570681973        5.37232462080041
C           31.89439825467381        0.70727196457076        6.57175535784324
C           31.51640303634869        1.73845492973709        2.23626307720827
C           32.82605782572733        2.26215320385744        2.59866469767831
C           33.69866823904619        1.67178453651737        1.78135192021229
C           32.94634206929820        0.78677042034654        0.90018312568940
N           31.65856692425024        0.82340048442976        1.16059698355798
N           28.84015542823341        0.86754512999758        1.12283743681281
C           30.05549340268288       -2.93898680597451       -3.96921717487420
C           29.92650227311127       -4.33326469133937       -3.78390461245590
O           29.84243558975003       -4.82786998617344       -2.48024058436078
C           29.72048323344800       -6.21138486612882       -2.15352853924970
C           29.88748656365735       -5.17047943873604       -4.90980960393331
C           29.97410687122799       -4.63123455884205       -6.19146568702559
C           30.09897127078168       -3.25583597242788       -6.37541612764809
C           30.14029724774288       -2.39310653819284       -5.26914711133293
O           30.26014006994183       -1.00771232725106       -5.40409995147866
C           30.33912877101726       -0.32788077410500       -6.65595919966994
H           34.64888982744924       -0.07180695398641       -0.14299417837675
H           34.60657239260184       -1.76311356159391       -2.15794791431457
H           32.77244083866488       -2.83880394067957       -3.59325679340137
H           27.34350325884002       -2.30461727824085       -3.84512142224602
H           25.52415324657592       -1.21616537841579       -2.38884757144073
H           25.85223086951277        0.81641662143401        2.58140159030214
H           27.81728748265796        1.91047242092624        4.10347494463093
H           29.51218338207332        6.72231215471248        2.45679856159517
H           28.44840524287039        5.94277478489742        1.23644453728907
H           27.87125112719061        6.10578832323460        2.92958227499254
H           29.41406543827443        6.14879729325395        4.85680618016408
H           30.30220622733563        5.41558197324102        7.01874169762639
H           31.21112828989656        3.15930537587299        7.30492032910855
H           32.21198997488149       -0.33657438715015        6.38058027858602
H           32.78052253255427        1.28956328431151        6.88903110412036
H           31.13401161809210        0.70041285463103        7.37612639378818
H           33.07473682549609        2.97818400800877        3.37090637686945
H           34.76510735977373        1.83263131623433        1.78392431433003
H           29.67319684750166       -6.31747118722646       -1.05195078673372
H           30.60024256641576       -6.77310537216972       -2.52184831083359
H           28.79115089168075       -6.62939058815491       -2.58618011452743
H           29.79101610872496       -6.24335848392208       -4.80362161847330
H           29.94323445274328       -5.28886903190491       -7.05515805960296
H           30.16200835812738       -2.87091680223785       -7.38503220015454
H           29.42502507563196       -0.51107132676172       -7.25315286836654
H           30.42271382207932        0.76069745641249       -6.46874194027750
H           31.23491668133992       -0.65656368857196       -7.21681200609260
C           16.84118014726714        0.00837514279030        0.00276977902350
C           18.11203406818496       -0.00782099604232       -0.00935779214472
C           19.32955620375108       -0.02880415352751       -0.00873523800363
C           20.62040501487530       -0.04087363069166       -0.01153229435610
C           21.88351009137588       -0.03093815080307       -0.01649843006775
C           23.09794463010267       -0.01180194468996       -0.02248798038621
C           24.36365244578406        0.01526089636069       -0.00572893202837
C           25.53369308979064        0.02118440421161        0.01816108195561
152
 energy: -268.130991530036 gnorm: 0.197300215657 xtb: 6.5.1 (b24c23e)
Co          12.15496318662207       -0.00624537089742       -0.01105760958594
C            8.80022592771171        0.08944905122801        0.04683978517639
C            9.47807492829677        0.89042650036307        0.91831849735702
C            8.82448488568763        1.76106378788804        1.87653453834385
C            9.78793999206879        2.42082860288001        2.53672081636788
C           11.06845224371776        1.97722728325868        2.00200386192856
N           10.86358775678163        1.02317216959767        1.00115141822719
C           12.28610176427239        2.46762315924636        2.41090682905361
C           13.52869858457241        2.04804600754999        1.87236549522476
C           14.81136806136844        2.64671837143212        2.18663763489193
C           15.75604688317953        1.96726755355773        1.50085907840147
N           13.67757026301555        1.03473385715666        1.01058065228234
C           15.02865532366030        0.95654647366683        0.77902653887723
C           15.55839398727723       -0.02894862120983       -0.01773119707330
C           14.86362055408475       -1.04548733512956       -0.72960591730701
C           15.46353851865808       -2.16975353157453       -1.26318841991345
C           14.45504122202694       -2.86729667846883       -1.93564534742192
C           13.28067168815715       -2.14504183476410       -1.79404984146178
C           12.03598759024144       -2.51708209271221       -2.41018780954541
C           12.03019166214943       -3.53865365797328       -3.50283764011932
C           12.54893066770668       -3.20084739885268       -4.77639234535512
O           13.02981397761794       -1.91815812064727       -4.95742900334197
C           13.59257341813890       -1.45175878358361       -6.18313607694594
C           12.55208352787208       -4.16111429192568       -5.79403360010596
C           12.04848302064373       -5.43417765161879       -5.55502137155658
C           11.53124233248141       -5.77699604269719       -4.31120921022960
C           11.51280319739908       -4.83789259743864       -3.27389534328243
O           11.02388911293394       -5.12787095530424       -2.01297341019083
C           10.47697435135679       -6.39557889806691       -1.65099629806584
C           10.85039549607703       -1.95818028101307       -2.03344057666292
C            9.54792598432606       -2.24579310545066       -2.59989386207722
C            8.65910444768734       -1.51855352586437       -1.89579495647648
C            9.40349020647740       -0.77232734852773       -0.90079423903746
N           10.71138607770992       -1.02226572322446       -0.98888872152802
N           13.50451812065920       -1.01118701154275       -1.00482299069924
C           12.31211884798721        3.51265276443042        3.47259071778080
C           12.43767314405372        3.13108173825706        4.82774250715841
O           12.51912460127125        1.78082242413844        5.11653883068689
C           12.64109241051781        1.26584377834421        6.44220896315239
C           12.47503781788996        4.12260148767941        5.81279499712969
C           12.38872845456920        5.46333470587264        5.45592993730894
C           12.26389678631773        5.84616399008846        4.12536901128374
C           12.22380826735566        4.87766253097132        3.11813202493184
O           12.10465449014960        5.19169527885750        1.77605823839843
C           12.02566509595875        6.52980727884113        1.28595430227342
H            7.71628494813152        0.12428343407035        0.08106550809277
H            7.76059113393050        1.87271870895768        2.03808723743895
H            9.61243758773267        3.15024069375123        3.31622496429636
H           15.00282064683014        3.48374558705327        2.83526243767521
H           16.82122543847844        2.17384585607015        1.52925306185196
H           16.50470607130779       -2.44470669425175       -1.18039993587626
H           14.55413843327349       -3.79411480603352       -2.47580783110689
H           12.85607375433617       -1.48276619398327       -7.00059384358399
H           13.90202036507505       -0.40327707248939       -6.04443142137577
H           14.48412733631664       -2.03387707443800       -6.46184067479374
H           12.94889137654066       -3.93123520466891       -6.77535171919702
H           12.06070886731065       -6.17342601357881       -6.35243368781458
H           11.15123756361276       -6.78044878796153       -4.16200336766446
H           10.16358821461306       -6.34790766465207       -0.59562232181290
H            9.59039286868471       -6.63749905544701       -2.25680573519177
H           11.22405523901244       -7.19835783114971       -1.74667086424916
H            9.30810150319679       -2.91107230822258       -3.42008871898381
H            7.59351238923215       -1.49771892063994       -2.05776035477488
H           12.68758497997393        0.16646412897326        6.38354068807354
H           11.76992166855309        1.53572244163019        7.05864936920019
H           13.56445076956958        1.61893547907416        6.92646725129107
H           12.57205686220896        3.86344770739759        6.85971877237363
H           12.41971705266557        6.22552514866564        6.23038925250735
H           12.20076929943290        6.90027865804861        3.88617361721578
H           12.93098060362614        7.10329543889717        1.53772817883805
H           11.94276107625306        6.49170241292479        0.18781750558888
H           11.13567173188225        7.04740584235644        1.67538327808637
Co          30.21081454327085        0.00877839954387        0.00673107466214
C           33.56300374406936       -0.03482182957520       -0.09655049785306
C           32.88529909548058       -0.78382371869033       -1.01335210630624
C           33.53904295220163       -1.60870386309783       -2.01130237372831
C           32.57605612717757       -2.16863943326481       -2.75829262847500