152
 energy: -268.232568029683 gnorm: 0.000510391108 xtb: 6.5.1 (b24c23e)
Co          11.92524702794288       -0.00433752917264        0.06096050826702
C            8.56776424512054       -0.21217804181256        0.32001064333979
C            9.25647483661303        0.48408031610928        1.28990722071903
C            8.62794163089471        1.14085081215988        2.39592615594235
C            9.58273824274508        1.88981946716012        2.99557145086767
C           10.79586033221358        1.68264680119530        2.26128337723621
N           10.59655746233721        0.77795232798583        1.24958071683224
C           11.95774346909219        2.41487561123845        2.45746209578858
C           13.11277607403741        2.16656983166638        1.73502303682514
C           14.34579288023303        2.86690293087501        1.93242867028172
C           15.29453747249736        2.19185920962927        1.24026950084127
N           13.29829919490352        1.10123646652091        0.88218860543634
C           14.63759055140308        1.08640409275290        0.61732962374706
C           15.31593646302883        0.06740772106872       -0.05739845565741
C           14.63729006230416       -0.96089676912255       -0.71515720665435
C           15.29697530939179       -2.00800518356135       -1.43025193200816
C           14.33381788839527       -2.68838346205473       -2.09645619929358
C           13.08875410888241       -2.05435366088099       -1.78506627821728
C           11.88296987360009       -2.37367726157027       -2.38732294315241
C           11.86780558676026       -3.39345749789652       -3.47012066372072
C           12.49187923235272       -3.13123481816456       -4.69763377479158
O           13.07385990575554       -1.90970260371738       -4.81918715195696
C           13.75681519178832       -1.55529648840657       -6.00473552649658
C           12.48094728166796       -4.08751486835297       -5.71254219898147
C           11.85242613844050       -5.30405799452954       -5.49433623135543
C           11.23204672278378       -5.58750412051595       -4.28706579270594
C           11.23750941535271       -4.62987894012509       -3.27342547566886
O           10.66689984822919       -4.81933662685051       -2.05480356396956
C           10.01325482933386       -6.03462948448509       -1.74999829752130
C           10.68986474690291       -1.78336662765815       -1.99660229915325
C            9.41671106305464       -2.07877689647360       -2.58437200037098
C            8.47945165790218       -1.48633879996918       -1.80774845391011
C            9.18239812261234       -0.81445667915827       -0.75706110498578
N           10.53783890909998       -0.95731326842540       -0.91201910116563
N           13.28341687259463       -1.03012550170948       -0.88625951827553
C           11.96942884855300        3.49046359923500        3.48630144890868
C           11.95440431223015        3.16590825076625        4.84886362493237
O           11.93219379458569        1.83888910959816        5.14174852139608
C           11.95173624844484        1.40149750808983        6.48556432254513
C           11.97134449252221        4.17327924415152        5.81297706606166
C           11.99834267296758        5.49976338567257        5.40956333627177
C           12.01248692964434        5.84439355298958        4.06639371776437
C           12.00157373791953        4.83710259890796        3.10208284656793
O           12.01205642833333        5.07124048425756        1.76331294437858
C           12.04780842788521        6.39448110177272        1.26807364091072
H            7.48869663365975       -0.27474811221099        0.39909371739338
H            7.58397552640823        1.04484982653300        2.64963815482603
H            9.48719684815793        2.53862725852513        3.85097280107694
H           14.46057011306883        3.74970360600438        2.53992234374669
H           16.34872688665691        2.40251942946792        1.15693411281136
H           16.36209496117687       -2.17564547421853       -1.42407062665050
H           14.44317542533250       -3.53796816492536       -2.75079401631529
H           13.08196127082351       -1.54273766175720       -6.86920449580571
H           14.14765566637116       -0.54945023483237       -5.84045805101332
H           14.59150011350873       -2.23757782998987       -6.20619335328728
H           12.95526834350973       -3.89269456654272       -6.66504421509313
H           11.84626705049200       -6.04846734781311       -6.28294968306086
H           10.75200940858827       -6.54622949096406       -4.14350751720013
H            9.64562369120245       -5.93313355823110       -0.72721142908482
H            9.16461732767763       -6.21397242808925       -2.42128182014502
H           10.70285255767145       -6.88584568861679       -1.80206221082999
H            9.27487889707078       -2.67997434639105       -3.46788104904555
H            7.40626679764846       -1.49521035096432       -1.91584551090646
H           11.94398460666750        0.31053775996588        6.44982945201619
H           11.06861268078476        1.74993617048298        7.03484050760814
H           12.85746797554855        1.73855743722332        7.00409274303608
H           11.96307523448315        3.93376924110881        6.86786824606249
H           12.00879844210320        6.28317212890400        6.15940975556158
H           12.03243957392625        6.88764376790019        3.78089378759156
H           12.95285019579269        6.92114006050497        1.59433855950894
H           12.05432702369834        6.31115881403375        0.17971568952273
H           11.16433395571646        6.96441834562743        1.58030835198021
Co          30.44195439746775       -0.06434815662072       -0.00528069887694
C           33.79988901338161       -0.34671047073185        0.16140998381094
C           33.11173517771209       -1.20851541354237       -0.66536719201447
C           33.74095021773547       -2.20920260525640       -1.47307663230387
C           32.78608045749850       -2.69776305426397       -2.29873088387055
C           31.57231203248474       -2.00177800588712       -1.98854361940382
N           31.77135761487224       -1.12850593650121       -0.94951801889763
C           30.41035584002887       -2.09247512183758       -2.74102545629742
C           29.25496813477461       -1.41326473653148       -2.39235427247609
C           28.02201560937135       -1.50950166116060       -3.11369096436046
C           27.07294296777158       -0.92086652587143       -2.34708941741606
N           29.06903911712138       -0.72079664224368       -1.21652673958900
C           27.72959317048101       -0.46139154527214       -1.16417952381391
C           27.05125228022766        0.06155218659952       -0.05962686197906
C           27.72990212525306        0.56686824527145        1.05157486533534
C           27.06973915940620        1.12619870772282        2.18926069753194
C           28.03252369124784        1.68941959634555        2.95749509904213
C           29.27781209614213        1.47132107118028        2.28609184437800
C           30.48333479866963        2.02241152882233        2.68799473406897
C           30.49784266272685        2.95006137611106        3.85066445386250
C           29.87261752831839        4.20175724252745        3.76477743881292
O           29.28958002070402        4.49414410222705        2.57305441748249
C           28.60597816163764        5.71757018507997        2.38992686909794
C           29.88346142230120        5.07145020861533        4.85480695906041
C           30.51287480303036        4.68414100736326        6.02802476030803
C           31.13412458423804        3.44934839617388        6.13789982753766
C           31.12877661587629        2.58112822447640        5.04672019291326
O           31.70003097724337        1.34825928615313        5.06192575899250
C           32.35474524627574        0.87527417283249        6.22154579625779
C           31.67662002962857        1.71975598126011        2.04837447079745
C           32.94948381760566        2.26039390300093        2.42408736076154
C           33.88700011821648        1.57722336075990        1.72628729475337
C           33.18450411891422        0.63254713750769        0.91168457758708
N           31.82898710230942        0.76422357582785        1.07599792486757
N           29.08366772600533        0.72682842947218        1.14463492892268
C           30.39892338085894       -2.95768828248773       -3.95213545244687
C           30.41684410523397       -4.35257935491436       -3.82495303111048
O           30.44240023532805       -4.83143231312128       -2.55321367607487
C           30.42580268029463       -6.22388123085055       -2.31162674073993
C           30.39927957190173       -5.16350402429974       -4.95926431608400
C           30.36896939708234       -4.57544661848989       -6.21477270646707
C           30.35240602350097       -3.19692921207406       -6.36463250081815
C           30.36386722249081       -2.38579809733758       -5.23035120546954
O           30.35131045198495       -1.02733187010670       -5.27171488741020
C           30.31164208630543       -0.34909658628970       -6.51102586086223
H           34.87914179295646       -0.43233433580020        0.21114527559897
H           34.78534836920778       -2.47254399839475       -1.41499782789406
H           32.88202459812707       -3.45237686084497       -3.06236402183259
H           27.90750592959146       -1.98512102287223       -4.07400704416477
H           26.01873657425533       -0.80879112924692       -2.54384512251173
H           26.00457481264458        1.09615120055053        2.35399130573127
H           27.92276654203500        2.21674507724287        3.89118334123745
H           29.28083640375086        6.57537265956698        2.49796065890283
H           28.21351134718843        5.69619417108794        1.37159764628269
H           27.77236200547419        5.82093383810578        3.09506941516241
H           29.40840387576511        6.04157087226760        4.79666969791781
H           30.51901093809603        5.35979459987458        6.87628614810370
H           31.61476905666543        3.17217585268716        7.06653375470295
H           32.72243664825540       -0.12288446076123        5.97648928487077
H           33.20342903967492        1.51479890476030        6.49305391000387
H           31.66587585349790        0.80656423182124        7.07217412183923
H           33.09099980529196        3.04908330728564        3.14525039552847
H           34.96010421198974        1.68397550730303        1.74983130986519
H           30.43623719862676       -6.34387389376814       -1.22672342328370
H           31.30880471738937       -6.71643293499808       -2.73673828328192
H           29.51994535172580       -6.69065117470390       -2.71704332540813
H           30.40952879177584       -6.24172909593798       -4.87236710402498
H           30.35783792135153       -5.20614905676182       -7.09692722512495
H           30.33009378030217       -2.76584629210509       -7.35657557538180
H           29.40616176205787       -0.59932060633083       -7.07704303923511
H           30.30302888468531        0.71633564232491       -6.27383056712015
H           31.19451884624356       -0.57502979135312       -7.12121450200886
C           16.71769015514104        0.08567871073096       -0.08244354434031
C           17.94247652906748        0.09848124451374       -0.09113106512387
C           19.28398636161544        0.10853126041596       -0.09733563413092
C           20.51519170426632        0.11040437888744       -0.09907694611914
C           21.85200432669064        0.11083480484920       -0.09735121443848
C           23.08322231266656        0.11001615575254       -0.09229031517561
C           24.42472027576040        0.09954852929670       -0.08508092303094
C           25.64950653369563        0.08979935509252       -0.07320130964268
