195
 energy: -387.151238128175 gnorm: 3.175773648662 xtb: 6.5.1 (b24c23e)
Ni          26.67085500000000        0.03687300000000       -0.01074000000000
C           23.33410900000000       -0.08812500000000       -0.08843600000000
C           23.99730600000000       -1.23945800000000       -0.23115500000000
C           23.34659900000000       -2.53798900000000       -0.35718800000000
C           24.28708900000000       -3.45109700000000       -0.51161900000000
C           25.59250600000000       -2.77646400000000       -0.50279000000000
N           25.41550000000000       -1.37169800000000       -0.31543200000000
C           26.78497399999999       -3.38652300000000       -0.66540300000000
C           26.83235800000000       -4.84841700000000       -0.89465700000000
C           27.34765900000000       -5.69785600000000        0.09344200000000
C           27.40641900000000       -7.07693900000000       -0.12400100000000
C           26.95363200000000       -7.62910000000000       -1.33674000000000
N           27.00949600000000       -9.04929000000000       -1.56338100000000
O           26.56504600000000       -9.58657600000000       -2.75027900000000
O           27.44913200000000       -9.81753000000000       -0.68226800000000
C           26.44438900000000       -6.77055400000000       -2.32707600000000
C           26.38635300000000       -5.39136000000000       -2.10834400000000
C           28.07798700000000       -2.65333300000000       -0.63629000000000
C           29.36456799999999       -3.25242500000000       -1.01285000000000
C           30.29891100000000       -2.33790900000000       -0.84862900000000
N           28.21873800000000       -1.41939000000000       -0.25868300000000
C           29.61592900000000       -1.14401500000000       -0.36499600000000
C           30.20934700000000        0.00800800000000       -0.01264900000000
C           29.44605300000000        1.18294600000000        0.46504100000000
C           29.97848300000000        2.19582000000000        1.13704600000000
C           28.93489400000000        3.18483500000000        1.32517500000000
C           27.83440900000000        2.71237800000000        0.75102400000000
N           28.06731300000000        1.42346100000000        0.18012300000000
C           26.55247000000000        3.45754800000000        0.65697300000000
C           26.56996600000000        4.92524500000000        0.86881900000000
C           25.90782200000000        5.49374700000000        1.96707700000000
C           25.94491400000000        6.87510100000000        2.17557300000000
C           26.64927500000000        7.71170000000000        1.29213400000000
N           26.68404400000000        9.13418900000000        1.50880600000000
O           26.07894100000000        9.68790000000000        2.61428800000000
O           27.26776700000000        9.88735400000000        0.70159400000000
C           27.31983600000000        7.13521900000000        0.19734500000000
C           27.28288100000000        5.75333000000000       -0.00951800000000
C           25.39035000000000        2.83142800000000        0.38977600000000
C           24.08018600000000        3.46434400000000        0.24673200000000
C           23.21873300000000        2.48480000000000        0.05356200000000
C           23.97014500000000        1.23066600000000        0.05820900000000
N           25.23665900000000        1.42041800000000        0.25253500000000
H           22.25062700000000       -0.11630400000000       -0.08258900000000
H           22.28245600000000       -2.73586600000000       -0.32804500000000
H           24.09921700000000       -4.51108400000000       -0.62335200000000
H           27.70161500000000       -5.29105500000000        1.03294700000000
H           27.80698600000000       -7.71089900000000        0.65609200000000
H           26.09194300000000       -7.16423100000000       -3.27182200000000
H           25.99505500000000       -4.74546500000000       -2.88468100000000
H           29.53743300000000       -4.26050700000000       -1.36677700000000
H           31.35450400000000       -2.47717400000000       -1.04160600000000
H           31.00508500000000        2.28707200000000        1.46446700000000
H           29.04504800000000        4.14134200000000        1.82033000000000
H           25.36679100000000        4.86523600000000        2.66418400000000
H           25.42297300000000        7.28813600000000        3.02924800000000
H           27.87810500000000        7.75149100000000       -0.49496500000000
H           27.80976799999999        5.32754300000000       -0.85499100000000
H           23.83681600000000        4.51790900000000        0.28706600000000
H           22.15220600000000        2.60307200000000       -0.08662200000000
Ni          64.85736100000000       -0.01946700000000       -0.02170200000000
C           68.19410700000000        0.12554400000000       -0.04686100000000
C           67.53091000000001        1.24639100000000        0.25253600000000
C           68.18161700000000        2.49744100000000        0.62259300000000
C           67.24112800000000        3.40183400000000        0.82180700000000
C           65.93571000000000        2.77311200000000        0.57703300000000
N           66.11271600000001        1.40058400000000        0.22399100000000
C           64.74324200000000        3.39963500000000        0.65503000000000
C           64.69585800000000        4.84083200000000        0.99065200000000
C           64.18055699999999        5.25780000000000        2.22516600000000
C           64.12179700000000        6.61779900000000        2.54068700000000
C           64.57458400000000        7.58440400000000        1.62346500000000
N           64.51872000000000        8.98596000000000        1.94587200000000
O           64.96317000000001        9.92908300000000        1.04702900000000
O           64.07908399999999        9.36776800000000        3.05075800000000
C           65.08382700000000        7.15983000000000        0.38346300000000
C           65.14186300000000        5.79924500000000        0.06909600000000
C           63.45022899999999        2.70902100000000        0.40710300000000
C           62.16364800000000        3.40559800000000        0.28265100000000
C           61.22930499999999        2.49622800000000        0.09198500000000
N           63.30947800000000        1.42351800000000        0.29448300000000
C           61.91228700000000        1.20809700000000        0.09267200000000
C           61.31886900000000        0.00800800000000       -0.01264900000000
C           62.08216300000000       -1.26032300000000       -0.01036400000000
C           61.54973300000000       -2.45127300000000        0.23282600000000
C           62.59332199999999       -3.43867200000000        0.03639000000000
C           63.69380700000000       -2.78540100000000       -0.31872000000000
N           63.46090300000000       -1.37645700000000       -0.36467800000000
C           64.97574600000000       -3.44094000000000       -0.68531800000000
C           64.95825000000001       -4.88098900000000       -1.03925300000000
C           65.62039400000000       -5.81981600000000       -0.23428700000000
C           65.58330200000000       -7.17856500000000       -0.55895400000000
C           64.87894200000000       -7.62287400000000       -1.69162900000000
N           64.84417200000000       -9.02282300000000       -2.02414000000000
O           65.44927500000000       -9.95064600000000       -1.20693100000000
O           64.26044899999999       -9.41836700000000       -3.05486500000000
C           64.20838000000001       -6.67795100000000       -2.49038700000000
C           64.24533500000000       -5.31931800000000       -2.16400600000000
C           66.13786700000000       -2.76031200000000       -0.69825100000000
C           67.44803000000000       -3.29341600000000       -1.06817600000000
C           68.30948300000000       -2.31290800000000       -0.87996300000000
C           67.55807200000000       -1.15201500000000       -0.40540700000000
N           66.29155700000000       -1.40078800000000       -0.29640800000000
H           69.27758900000001        0.14947500000000       -0.03087400000000
H           69.24576100000000        2.66995300000000        0.72380600000000
H           67.42899900000000        4.42638200000000        1.11567800000000
H           63.82660099999999        4.52840400000000        2.94359300000000
H           63.72123100000000        6.91300400000000        3.50157400000000
H           65.43627300000000        7.87902600000000       -0.34474300000000
H           65.53316100000001        5.49156900000000       -0.89278500000000
H           61.99078300000000        4.47284000000000        0.33253600000000
H           60.17371199999999        2.69769100000000       -0.03469400000000
H           60.52313099999999       -2.65863700000000        0.50214300000000
H           62.48316800000000       -4.51105600000000        0.13676900000000
H           66.16142499999999       -5.49854600000000        0.64762600000000
H           66.10524300000000       -7.88155900000000        0.07756800000000
H           63.65011100000000       -6.98967300000000       -3.36326300000000
H           63.71844800000000       -4.60757800000000       -2.78814200000000
H           67.69140000000000       -4.28523800000000       -1.42582700000000
H           69.37600999999998       -2.36998800000000       -1.05426700000000
C           32.40346800000000        0.02269800000000       -0.00237400000000
C           33.86169400000000        0.00086200000000       -0.02024700000000
C           34.99562200000000       -0.01989200000000       -0.02173800000000
C           36.35700400000000       -0.03248200000000       -0.02392900000000
C           37.63122200000000       -0.02217500000000       -0.02869400000000
C           38.81968500000000       -0.00337700000000       -0.03485000000000
C           40.17204600000000        0.02140700000000       -0.01898200000000
C           41.27231299999999        0.02269800000000       -0.00237400000000
C           50.13186600000000        0.02269800000000       -0.00237400000000
C           51.59009300000000        0.00086200000000       -0.02024700000000
C           52.72402100000000       -0.01989200000000       -0.02173800000000
C           54.08540200000000       -0.03248200000000       -0.02392900000000
C           55.35962099999999       -0.02217500000000       -0.02869400000000
C           56.54808400000000       -0.00337700000000       -0.03485000000000
C           57.90044399999999        0.02140700000000       -0.01898200000000
C           59.00071199999999        0.02269800000000       -0.00237400000000
Ni          45.67680299999999        0.05712700000000       -0.03646400000000
C           42.30960800000000       -0.02244300000000        0.02637100000000
C           42.96572700000000       -1.19397900000000        0.11507500000000
C           42.32463200000000       -2.49696500000000        0.30306600000000
C           43.26182500000000       -3.42441600000000        0.29566100000000
C           44.55975800000000       -2.76957800000000        0.10423800000000
N           44.38195799999999       -1.35534600000000       -0.00492200000000
C           45.74458100000000       -3.41182100000000        0.03428400000000
C           45.77613200000000       -4.88939400000000        0.10821900000000
C           46.25461800000000       -5.52593200000000        1.26126600000000
C           46.29418700000000       -6.92141300000000        1.33076500000000
C           45.85930800000000       -7.70231700000000        0.24337600000000
N           45.89870800000000       -9.13971400000000        0.31044200000000
O           45.52413700000000       -9.89984900000000       -0.77373700000000
O           46.25420300000000       -9.72038700000000        1.35815300000000
C           45.38564899999999       -7.05628800000000       -0.91355700000000
C           45.34622300000000       -5.66092400000000       -0.98004700000000
C           47.04413200000000       -2.70834400000000       -0.10751900000000
C           48.31668300000000       -3.39085700000000       -0.37372400000000
C           49.26907400000000       -2.48037600000000       -0.37960300000000
N           47.20976300000000       -1.43065900000000        0.04089500000000
C           48.61084099999999       -1.20668200000000       -0.11849900000000
C           49.22572699999999       -0.02244300000000        0.02637100000000
C           48.47585600000000        1.22760800000000        0.27282400000000
C           49.01186200000000        2.34083600000000        0.75627100000000
C           47.97931899999999        3.35935000000000        0.73415800000000
C           46.88377500000000        2.79955500000000        0.23420900000000
N           47.10716699999999        1.42572900000000       -0.07959100000000
C           45.62656699999999        3.52987100000000       -0.05923400000000
C           45.68374700000000        5.00490500000000       -0.20951800000000
C           46.46642900000000        5.57828800000000       -1.22141300000000
C           46.53789300000000        6.96748200000000       -1.35752800000000
C           45.83095800000000        7.80818900000000       -0.47989400000000
N           45.90287899999999        9.23842200000000       -0.62558000000000
O           46.63728900000000        9.80143600000000       -1.64474500000000
O           45.29346700000000        9.99096200000000        0.16351700000000
C           45.05504500000000        7.22858600000000        0.54047000000000
C           44.98536300000000        5.83939700000000        0.67598100000000
C           44.45421100000000        2.88223200000000       -0.20389700000000
C           43.17585800000000        3.49104100000000       -0.55762700000000
C           42.28713500000000        2.51843500000000       -0.53102000000000
C           42.98686700000000        1.28087200000000       -0.16829700000000
N           44.25371700000000        1.48582400000000        0.02084900000000
H           41.26920999999999       -2.69825100000000        0.42918000000000
H           43.07616500000000       -4.48327900000000        0.42038800000000
H           46.59343900000000       -4.94103800000000        2.10723300000000
H           46.66826800000000       -7.38943600000000        2.23346400000000
H           45.04583900000000       -7.62923000000000       -1.76721700000000
H           44.98285900000000       -5.18037900000000       -1.87962000000000
H           48.46853400000000       -4.45011600000000       -0.53554400000000
H           50.32107400000000       -2.67226100000000       -0.54413000000000
H           50.03544200000000        2.48006900000000        1.07750700000000
H           48.09573100000000        4.39285700000000        1.03358400000000
H           47.01828000000000        4.94793900000000       -1.90795500000000
H           47.14718499999999        7.38349900000000       -2.14915800000000
H           44.50303400000000        7.84906900000000        1.23479300000000
H           44.38918000000000        5.41270300000000        1.47309800000000
H           42.97069200000000        4.52445800000000       -0.80545600000000
H           41.23493900000000        2.63608700000000       -0.75254600000000
195
 energy: -388.111932143940 gnorm: 0.852878076961 xtb: 6.5.1 (b24c23e)
Ni          26.67478937470064        0.03574249129135       -0.01146829146688
C           23.33463819994943       -0.07920822112947       -0.08754410828953
C           24.00219184988001       -1.24135256904814       -0.23121073921971
C           23.34552386504544       -2.53475841327357       -0.35669653246794
C           24.29140750931525       -3.45246897253746       -0.51201149663980
C           25.59045784340913       -2.77141256112941       -0.50175530636876
N           25.40887308025262       -1.37710984603120       -0.31606547711479
C           26.79289695839957       -3.38451205492885       -0.66582552591511
C           26.83355694321423       -4.84884464545970       -0.89526319149468
C           27.34754193952608       -5.70027448564204        0.09157174315963
C           27.40598391922841       -7.07691757358185       -0.12496949331586
C           26.95309785221746       -7.63075348107778       -1.33859167564656
N           27.00673117085642       -9.06087518476602       -1.57171958936395
O           26.57248487591337       -9.57408767558987       -2.72978194696575
O           27.44495275476535       -9.80903549630041       -0.69067985941243
C           26.44447426453615       -6.77004255029278       -2.32651098921379
C           26.38659799288948       -5.39393629818313       -2.10719374020818
C           28.07368501194683       -2.66154724507328       -0.63756770736419
C           29.35849389887478       -3.25695425799883       -1.01298228018959
C           30.29966630533706       -2.33409823892570       -0.84763347252064
N           28.22109795536249       -1.41327627148795       -0.25880499831268
C           29.61995450715832       -1.14338096980018       -0.36526320417895
C           30.21672558602420        0.01399474210969       -0.00947656591526
C           29.44526624984508        1.17407702801100        0.45810253691798
C           29.97879325243646        2.20708887161196        1.14207335814811
C           28.94646206930721        3.18500548601546        1.32769908933922
C           27.82642092193596        2.70749652401812        0.74501940008065
N           28.06768839649016        1.42322943614113        0.18319048816037
C           26.55887667162367        3.45427250810512        0.65716015559661
C           26.57161635240232        4.92474901717101        0.86961199511950
C           25.90836370176937        5.49600400674169        1.96590398145148
C           25.94512561233821        6.87452078808622        2.17501848276314
C           26.64841295814643        7.71336106412768        1.29378063157035
N           26.68081720156912        9.14582578574744        1.51693615441545
O           26.08891943435232        9.67516485872559        2.59511364147395
O           27.26209532781020        9.87901112521910        0.70921357560278
C           27.31913143368545        7.13505946466699        0.19820557564026
C           27.28244487278292        5.75559076222536       -0.00776283470967
C           25.38910001974918        2.83009046889675        0.38936675710457
C           24.08454626330887        3.46520159407746        0.24738190270128
C           23.21493762703142        2.47921131960780        0.05288500689470
C           23.96075767828441        1.22488315087798        0.05718600658036
N           25.24137700617442        1.42319464554306        0.25188560735872
H           22.25086164193463       -0.11521812721159       -0.08271701068666
H           22.28259583005429       -2.73397358768033       -0.32780490441902
H           24.10149453286005       -4.51113635953020       -0.62349078539194
H           27.70142117551265       -5.29129591171326        1.03242023342218
H           27.80684517551176       -7.71164398314023        0.65570546960288
H           26.09214853744123       -7.16504040282996       -3.27166441942871
H           25.99529191139035       -4.74574396212008       -2.88425597689289
H           29.53554088031385       -4.26116074318054       -1.36669346770370
H           31.35428489856225       -2.47488725459991       -1.04082471911986
H           31.00501279695830        2.28786966773715        1.46483131603354
H           29.04598003015455        4.14096601177154        1.82058094933948
H           25.36711750197760        4.86551504055145        2.66379913836181
H           25.42322606594962        7.28890544858898        3.02912460481743
H           27.87788366995097        7.75219926907026       -0.49463693771811
H           27.80946818056072        5.32779093300568       -0.85451932632839
H           23.83898676481981        4.51769715817211        0.28732434614836
H           22.15180295383582        2.60141180725337       -0.08681715269430
Ni          64.85339165140738       -0.01814658201565       -0.02195064448604
C           68.19357421599454        0.11694983151104       -0.04937503528673
C           67.52602582661696        1.24815837352126        0.25319167714308
C           68.18268976812085        2.49427023256149        0.62183917991977
C           67.23682316832482        3.40325178669561        0.82195836693644
C           65.93774199774343        2.76804020339170        0.57609302942815
N           66.11933507346168        1.40584122942973        0.22542951505103
C           64.73536613826241        3.39794772731025        0.65389160594563
C           64.69466171632546        4.84145479089216        0.99025092155866
C           64.18067259835030        5.26074604296535        2.22433990661135
C           64.12223137428596        6.61814180739881        2.53978088812280
C           64.57511830825247        7.58663251706417        1.62236790259903
N           64.52148571974691        8.99982782016844        1.94248073708710
O           64.95573069234233        9.90981747271573        1.06135381715502
O           64.08326270312294        9.36304707472068        3.03977728806918
C           65.08374221264842        7.15914390733494        0.38379417220578
C           65.14161788304516        5.80120373332392        0.07112806634580
C           63.45454118294475        2.71703928518552        0.40899367926543
C           62.16965856636742        3.40982539459420        0.28421523019055
C           61.22856207805645        2.49232294800040        0.09147543072990
N           63.30743756968317        1.41815843082945        0.29215996499890
C           61.90850887356349        1.20734213564809        0.09214520064889
C           61.31452192381532        0.00156186359131       -0.01170417829190
C           62.08318497253526       -1.24926690357586       -0.01342292918421
C           61.54943299613612       -2.46360253866296        0.23326528010444
C           62.58169791563299       -3.43977089584136        0.03867681276587
C           63.70183106217418       -2.77860899126945       -0.32246821931334
N           63.46068363213637       -1.37751119360130       -0.36183982681463
C           64.96932810973540       -3.43797411506651       -0.68390886686573
C           64.95659935832977       -4.88082997202263       -1.03832755718210
C           65.61985031582324       -5.82146866596075       -0.23622001712249
C           65.58309053384150       -7.17782062486894       -0.55925093572109
C           64.87980406891639       -7.62502888269153       -1.69072464121217
N           64.84739782290991       -9.03666821851782       -2.02096549515647
O           65.43929369409187       -9.93164421066397       -1.21993902602169
O           64.26612496023188       -9.41348719951155       -3.04466877727996
C           64.20908531686985       -6.67812732372247       -2.48952894695946
C           64.24577366735326       -5.32207120685035       -2.16322607990069
C           66.13912386411489       -2.75891030183849       -0.69813186261810
C           67.44366654281686       -3.29445459816520       -1.06789639473311
C           68.31327961581066       -2.30746903452440       -0.87849414818732
C           67.56746286437836       -1.14627192976278       -0.40418778115903
N           66.28683649568309       -1.40312585613370       -0.29804840274348
H           69.27735407164198        0.14851692303049       -0.03139987077987
H           69.24562119571482        2.66810954997443        0.72331941996890
H           67.42672277234499        4.42648292259001        1.11556911563554
H           63.82679515055779        4.52882495905711        2.94319545339654
H           63.72137217915822        6.91383973880276        3.50149518912680
H           65.43606725420885        7.87971753528357       -0.34429362330471
H           65.53292406542991        5.49166833498672       -0.89228608015993
H           61.99267367422365        4.47341857681558        0.33285868033651
H           60.17397703947842        2.69534328921966       -0.03482546981500
H           60.52324335712932       -2.65955800094986        0.50218985587826
H           62.48223286601841       -4.51080553762590        0.13714263832298
H           66.16109827432493       -5.49866054635572        0.64716427992061
H           66.10499001945151       -7.88222641845429        0.07716495581080
H           63.65033201167738       -6.99045299084677       -3.36322423428612
H           63.71874812080204       -4.60798456405966       -2.78779757250392
H           67.68922899516238       -4.28513869617071       -1.42550812904010
H           69.37641340363444       -2.36837580863907       -1.05382534364560
C           32.41023863168549        0.02255416769805       -0.00240387873834
C           33.79895999893471        0.00171149080275       -0.02006402430642
C           35.03357114930557       -0.02041094524063       -0.02175504401955
C           36.33864506759928       -0.03250014873945       -0.02388970719351
C           37.61503959955282       -0.02242005340551       -0.02872298484613
C           38.82207466874711       -0.00319358752031       -0.03508418263817
C           40.09579064801546        0.02229495375514       -0.02022348663259
C           41.22219017976112        0.02932284889655       -0.00337197899643
C           50.32013701151433        0.03801731529454       -0.00721949375915
C           51.57180094956676        0.00256338424256       -0.02113670334645
C           52.76788586730586       -0.02033068346746       -0.02163873991844
C           54.07376729170877       -0.03270192891089       -0.02399764047648
C           55.34707136776853       -0.02230089688683       -0.02862093669920
C           56.55696219334907       -0.00310913711845       -0.03489146240272
C           57.87658567435564        0.02113705661977       -0.01954518501059
C           59.06137100344348        0.02223634533606       -0.00204116189729
Ni          45.68036740242744        0.05564902967767       -0.03497189830295
C           42.41289079185907       -0.01685967279407        0.02661636843088
C           42.99312393736710       -1.20846367884021        0.11680334377348
C           42.32385499557028       -2.49098680414809        0.30260711030514
C           43.26747573437117       -3.42643611764092        0.29531023581250
C           44.55745314618099       -2.76660928507208        0.10437701571877
N           44.37801237840659       -1.36282366082823       -0.00423547253279
C           45.75253631517702       -3.41053297261762        0.03323958994266
C           45.77713006233471       -4.89003874828582        0.10783032846319
C           46.25446533376066       -5.52872585645985        1.25993333995495
C           46.29377429200611       -6.92154985358236        1.32980741731328
C           45.85893676028690       -7.70434123430179        0.24182948178152
N           45.89601895061048       -9.15259160713209        0.30445092047047
O           45.53040506212466       -9.88367527822026       -0.75577653159358
O           46.25098136831648       -9.71364927222352        1.34792260349844
C           45.38586214259275       -7.05576840103296       -0.91305031145419
C           45.34641160571258       -5.66333007605684       -0.97844139251121
C           47.03973561509805       -2.72170693968456       -0.10765266586567
C           48.30747529978174       -3.39666970108758       -0.37259211540545
C           49.26857274714546       -2.47232104422850       -0.37841498803696
N           47.20900339935421       -1.42761519711313        0.03920245638114
C           48.57642996309005       -1.22905650669667       -0.12096384764057
C           49.07610314276474       -0.02195374952330        0.03180826604244
C           48.44662185586036        1.23236896518433        0.27201717995273
C           49.01157721173875        2.35068599076049        0.75841553594189
C           47.98958406078007        3.36063113945136        0.73639733555451
C           46.87619090108580        2.79564350858708        0.22912703325896
N           47.10370849571263        1.42904966326474       -0.07702163902703
C           45.63236620443864        3.52739295236231       -0.05838462089254
C           45.68524079633507        5.00437976968837       -0.20866600295272
C           46.46609673919704        5.58072486897649       -1.22035014385658
C           46.53746101409066        6.96678763676933       -1.35714359036034
C           45.83207244433120        7.81002458151386       -0.48143570211037
N           45.90755596035606        9.25000264577062       -0.63276702358371
O           46.62493233202397        9.78855791665820       -1.62732179141563
O           45.29923311538445        9.98267657154820        0.15615229572345
C           45.05563206356788        7.22837918290116        0.53963163317010
C           44.98599477232568        5.84155511116012        0.67422374171956
C           44.45320383938733        2.88233768147930       -0.20396653593879
C           43.18040321903671        3.49215456113616       -0.55696136380885
C           42.28344740412177        2.51165106812564       -0.53004737463768
C           42.99398661104981        1.28349473872400       -0.16935022188097
N           44.26223351406665        1.49117766192685        0.01873284773807
H           41.26915636200134       -2.69539814494869        0.42893015196069
H           43.07836015811180       -4.48337224244494        0.42016171448022
H           46.59329988433363       -4.94133240376284        2.10677752395398
H           46.66803718568448       -7.39013288872704        2.23305971094223
H           45.04606843762535       -7.62998102088085       -1.76683357481127
H           44.98302940940511       -5.18057450549542       -1.87918235587884
H           48.46665369176415       -4.45079930205823       -0.53542926028881
H           50.32062063667873       -2.66901426223862       -0.54371732085610