201
 energy: -384.561652442614 gnorm: 0.000501859629 xtb: 6.5.1 (b24c23e)
Co          30.92514761780242       -0.03901970408857        0.00428778000468
C           27.55425950607523       -0.10655065230718        0.03665191303096
C           28.22774218071796       -0.41155930085025        1.19985863690167
C           27.58054664420584       -0.75875248635036        2.42845849235619
C           28.54096115095956       -0.77730555208188        3.38176495137326
C           29.77674879547920       -0.44649032684314        2.73360876458019
N           29.58016371270423       -0.27245780766715        1.38713886220530
C           30.95614144288512       -0.15726345914696        3.40622763319002
C           32.12204085073392        0.17999843459582        2.73575534161951
C           33.36622784243783        0.46889688593122        3.38355655599894
C           34.31070758292129        0.51746333582207        2.41390116060518
N           32.29930546764153        0.10047845200986        1.37286168149197
C           33.64378649722835        0.25321992289255        1.17835442479210
C           34.31515974595725        0.02037616681212       -0.02437659803341
C           33.62881360745062       -0.22210071141841       -1.21641714817190
C           34.27601502070355       -0.49377807492094       -2.46055304530251
C           33.31366647489101       -0.46304279407162       -3.41397858074777
C           32.08194023899109       -0.16344505519915       -2.74813828558577
C           30.88868627982435        0.11446108333174       -3.39925192401994
C           30.87234161213911        0.17852199963114       -4.87730175908364
C           30.04027651445140       -0.66965679473503       -5.61332544403352
C           30.02403007367302       -0.60551716844008       -6.99425855961482
C           30.83557553476257        0.31098221596352       -7.66571455214534
C           30.77778064523378        0.34644764177545       -9.14671089325609
O           31.59652324898379        1.25724120738205       -9.69445008030011
O           30.07160872340077       -0.36308169765181       -9.81701323675544
C           31.66810415184901        1.15997888606358       -6.93580322288734
C           31.68672534740660        1.09046416823681       -5.55384117766300
C           29.70734263515248        0.32837758558204       -2.70137033800940
C           28.45426921514830        0.65954911996518       -3.31490079487853
C           27.51242952013013        0.58718908002080       -2.34524857922937
C           28.19239016263207        0.22777280184778       -1.13819707448743
N           29.54495333798036        0.13627458244524       -1.35308665956270
N           32.27952277205628       -0.08360520836239       -1.38898398382829
C           30.96731568241878       -0.21224927767315        4.88733173317822
C           30.79033109824817       -1.43054972252936        5.54726016064163
C           30.79799768301119       -1.48167704761876        6.92908234358817
C           30.97841236167494       -0.31542213110338        7.67505927281940
C           30.97320821439462       -0.42077006082445        9.15396105727193
O           31.15426268783405        0.75366401981744        9.77663432054924
O           30.82200304592796       -1.44982202817153        9.76187776137245
C           31.15492859879539        0.90340085468317        7.01956206985693
C           31.15126111620555        0.95188965336735        5.63621480176371
H           26.47096421997815       -0.12529897618791        0.04798876323400
H           26.52261607018417       -0.94053330070062        2.53108358786080
H           28.43238240124863       -0.97291587869637        4.43615310343264
H           33.49362280951694        0.59253659292704        4.44658111614288
H           35.36964080585072        0.69439980926416        2.51171441759716
H           35.33296207934212       -0.67339565764040       -2.57389299751075
H           33.41715491240998       -0.62699119492173       -4.47421273579192
H           29.41884114833777       -1.39078513722656       -5.09466746564957
H           29.38408023727078       -1.26369317512756       -7.57163476551638
H           31.49863590235220        1.21740525954874      -10.65967752144093
H           32.29754608214671        1.87463278222841       -7.45273945721098
H           32.32363320707991        1.75963597759867       -4.98638606667053
H           28.32562178739164        0.90987014556635       -4.35541830132353
H           26.44952226372782        0.75215967933023       -2.42146698496689
H           30.66085352103898       -2.33818109984839        4.96887432725241
H           30.66520784252704       -2.42402416159294        7.44913203571380
H           31.13699401198469        0.59926233996727       10.73512366120717
H           31.29255713070371        1.81118133308062        7.59500605311279
H           31.27602388443000        1.90051907700712        5.12644820812411
Co          67.95363010867355       -0.02524169242666       -0.03608435940427
C           71.32420859835590       -0.09200938395626       -0.07979100453995
C           70.64940830235824       -0.26205579690299       -1.26957164386387
C           71.29484613795680       -0.46738156120730       -2.53056730616922
C           70.33319910886975       -0.37639963278017       -3.47852453458065
C           69.09864204135577       -0.12032234111597       -2.79515388855816
N           69.29687662867910       -0.10176951575166       -1.43799878932148
C           67.91905521759796        0.24667365383844       -3.42871929010183
C           66.75469072697909        0.50783514635353       -2.72268830348877
C           65.51076317225115        0.87341561889811       -3.33108276407809
C           64.56725567942873        0.81147098547547       -2.36115927311108
N           66.57822744429545        0.27080606353736       -1.37805538153239
C           65.23463558852782        0.40349344992522       -1.16559922094482
C           64.56371738645666        0.03201543831042        0.00250896620330
C           65.25115106687748       -0.34929967771421        1.15747391594927
C           64.60480131376846       -0.76469392057960        2.36177500096690
C           65.56810491728707       -0.84703369586937        3.31117643287160
C           66.79944760948393       -0.47211432367707        2.68378890055914
C           67.99343694892418       -0.27238141225758        3.36150970781631
C           68.01200068899020       -0.38301077048596        4.83673009738798
C           68.84590538551723       -1.31154040195254        5.46596758305171
C           68.86407188825517       -1.41141428690115        6.84474486071780
C           68.05274925508705       -0.58169013068363        7.62108201990597
C           68.11251325939996       -0.72211573836740        9.09585375140327
O           67.29330511171750        0.11595814555193        9.74861931166671
O           68.82040658337296       -1.50534908006870        9.67620482357873
C           67.21865095437803        0.34712051433397        6.99803064048831
C           67.19803779277287        0.44178118286191        5.61757083940941
C           69.17410623678175        0.02256459616587        2.69211357386172
C           70.42754931493641        0.28124112979583        3.33880688614739
C           71.36843549242096        0.32282108937539        2.36634961031002
C           70.68739697377478        0.10515878636760        1.12646469725092
N           69.33518128129832       -0.01198230636313        1.33070827685606
N           66.60048184452928       -0.23335557629991        1.34347579303896
C           67.90661040904779        0.36148315185215       -4.90637698175274
C           68.07777618217891       -0.77435636405575       -5.70114214603367
C           68.06909285409948       -0.66746843708816       -7.07975531761306
C           67.89382130681729        0.57711984601439       -7.68758810720258
C           67.89789994561940        0.64111433645217       -9.16888246896441
O           67.72464388148072        1.88004710005191       -9.65334600608211
O           68.04203529443635       -0.31291716847477       -9.89029958982407
C           67.72327911080005        1.71398023751786       -6.89713922681796
C           67.72760557279275        1.60428346828808       -5.51728567883943
H           72.40750044230064       -0.10934551603388       -0.09440052992748
H           72.35247444780259       -0.63713209251755       -2.65466219867462
H           70.44022499037123       -0.45065105656000       -4.54848836548825
H           65.38288232072418        1.12036674265594       -4.37233448892596
H           63.50875225592183        1.00155752228340       -2.43640650502001
H           63.54778722205216       -0.95537541360708        2.45442912440731
H           65.46545055428568       -1.13422343144834        4.34493697678078
H           69.46712467307341       -1.96556656639379        4.86467258284060
H           69.50537779776464       -2.13272898193288        7.33923689559963
H           67.39219937430509       -0.03790379316097       10.70224350488539
H           66.58943747811749        0.99493435740198        7.59682953726687
H           66.55992385199056        1.17297672802076        5.13424650747127
H           70.55708672295719        0.40922497119163        4.40122009989617
H           72.43129294046705        0.47876576345985        2.46017439786398
H           68.20360074913738       -1.74257414021461       -5.23016941715474
H           68.19727664835048       -1.54491411471911       -7.70406666070191
H           67.74095405201074        1.83601392431029      -10.62320990538361
H           67.58971268919149        2.68211776072043       -7.36512214625638
H           67.60737376679130        2.48907178197756       -4.90247371267805
C           35.71850303424163        0.02679510528803       -0.03406570176016
C           36.94319104114515        0.02997876642786       -0.03953465023297
C           38.28542551430615        0.02965013953948       -0.04392577090941
C           39.51658836643291        0.02869716249383       -0.04399367733147
C           40.85374009554162        0.02522495942367       -0.04245380916113
C           42.08510195603469        0.02066607393442       -0.03963801214373
C           43.42672774233989        0.01875573947135       -0.03508846204743
C           44.65193757278457        0.01452634922887       -0.03113854945950
C           54.22785549724986        0.01395540285429        0.02029992300145
C           55.45329792862732        0.01729819539407        0.02539010792885
C           56.79451745093796        0.02127604839099        0.02874389735762
C           58.02613180127305        0.02823583784342        0.03040236348387
C           59.36283611876485        0.03292387031095        0.03091865016762
C           60.59428154465637        0.03680135124162        0.02864820663648
C           61.93604114849546        0.03739294495782        0.02263472487188
C           63.16099620077242        0.03754108209244        0.01423614159421
Co          49.44030192908303        0.01062490890174       -0.04641867119911
C           46.05326788645913        0.01276464313630       -0.02531989056861
C           46.73724491202017       -1.17391109650154       -0.30980014775629
C           46.09826243717002       -2.40338203636948       -0.65524383041869
C           47.05432029104081       -3.36424819808421       -0.61040254514222
C           48.27165217072948       -2.71717496791242       -0.22501363272570
N           48.07653220982390       -1.36093801804568       -0.11464680811924
C           49.43926299042809       -3.37707102072141        0.13758397491427
C           50.60552413993037       -2.68728411799782        0.44290442541355
C           51.82245881352767       -3.29922480677745        0.88364843637085
C           52.77830584130531       -2.33818389767312        0.84754228676576
N           50.79924313060196       -1.34330239160034        0.22506271622170
C           52.13987088504633       -1.14264348138986        0.39693806790161
C           52.82699186451512        0.01251842877796        0.00939916348678
C           52.14607767570762        1.16731994984872       -0.39131678476884
C           52.78899641269660        2.35973522115661       -0.84309460382220
C           51.83297085196175        3.32018314833357       -0.89705227280859
C           50.61168530049287        2.71108894209153       -0.46515142695967
C           49.44116783101137        3.40094604330869       -0.17601598330393
C           49.43957923406555        4.87757170735809       -0.25025599395998
C           50.33828424469178        5.62567958252862        0.51549599641046
C           50.33205880483590        7.00650885067780        0.44734965458886
C           49.43169555400301        7.66564253731985       -0.39177839998863
C           49.46530175046608        9.14776773666898       -0.43198255131012
O           48.55910406466948        9.68241072913028       -1.26387343199219
O           50.22309249204432        9.82809269571950        0.21167376104198
C           48.53493931986299        6.92363314450838       -1.16104590325750
C           48.53876076681335        5.54186325144792       -1.08715324520304
C           48.27169586853895        2.74149828422604        0.18063127037212
C           47.05094886083371        3.39089866790023        0.55159790027112
C           46.09490260310852        2.43030456388322        0.59418193641180
C           46.73704088613909        1.19870134445775        0.26150790120601
N           48.07956844247295        1.38326133223097        0.08533709141865
N           50.80520409369357        1.37080880831321       -0.22777331073998
C           49.44021268770784       -4.85438339733285        0.19819052494647
C           48.53399844904037       -5.52971862431134        1.02062078334796
C           48.53712919278671       -6.91116222464144        1.07542468720369
C           49.44176543667615       -7.64395062681134        0.30483203372943
C           49.40300110681118       -9.12388638737530        0.39439179980075
O           50.30945953338163       -9.73222684995671       -0.38476558551160
O           48.63986760384952       -9.74257400105484        1.09147841056782
C           50.34694324459517       -6.97495106777733       -0.51949877497809
C           50.34644658659879       -5.59204081695749       -0.56840140114635
H           45.05073823217659       -2.50465602292059       -0.88900996382606
H           46.95326130103756       -4.41753010113064       -0.81542771829807
H           51.92317363794177       -4.33158039783390        1.17649741374705
H           53.82580723757805       -2.41895536003242        1.08927744932428
H           53.83877070667891        2.43940914287352       -1.07514242687560
H           51.93639267554413        4.34992584756699       -1.19808154369647
H           51.02843366524283        5.11655478766648        1.17854609663316
H           51.02228024235445        7.59330453344149        1.04345528558048
H           48.64486422423271       10.64913353021065       -1.23243120353942
H           47.83741389906855        7.43093514457517       -1.81692963288019
H           47.85121751211181        4.96514608342591       -1.69549185760808
H           46.94790135251890        4.44565854915465        0.74789142215630
H           45.04514910223239        2.53267634971930        0.81724230439067
H           47.83981465941130       -4.96237401658022        1.63004441651299
H           47.84064197829801       -7.44136745658350        1.71564542398871
H           50.21931929634578      -10.69227527878719       -0.27025558871441
H           51.04839503969148       -7.53986161098605       -1.12194352723021
H           51.04043826577736       -5.07294186733369       -1.21979722114269
