256
 energy: -497.813422338435 gnorm: 0.000661374814 xtb: 6.5.1 (b24c23e)
Zn          44.54659179843031       -0.00613236254602       -0.04770531201888
C           41.13685253643720       -0.03571766605012       -0.08003931376201
C           41.76795092722350       -1.25764248520802       -0.27656590487693
C           41.09478280129859       -2.51336063006404       -0.45798516010814
C           42.05410339097786       -3.45816617969523       -0.61807190535175
C           43.32642983689454       -2.78785940918940       -0.54780519001873
N           43.11777368839371       -1.45849013584367       -0.32979917474528
C           44.57965273515797       -3.40534964393867       -0.65294484972321
C           44.58905951144002       -4.86395436719508       -0.91491462567184
C           45.16969307452089       -5.74528448945823        0.00253442493974
C           45.16868694918524       -7.10792991631807       -0.23300848920364
C           44.58665811142974       -7.59517930207476       -1.40008506957049
N           44.58100568272818       -9.02448368429514       -1.65175064203454
O           44.06304134294468       -9.41010034274226       -2.66875865557534
O           45.09435137826610       -9.73834944190391       -0.82833896537092
C           44.00802403960195       -6.73483616741225       -2.32919271335497
C           44.00974684006498       -5.37459635318240       -2.08106325569332
C           45.81996670463636       -2.76720580353238       -0.53329057711488
C           47.09983272320223       -3.40019383890418       -0.69727431084482
C           48.04494573826668       -2.44222588637790       -0.52081147794212
N           46.01173116697576       -1.43651713838782       -0.27647939221852
C           47.35358876616606       -1.21424483087829       -0.25775460247037
C           47.98391284977264        0.02380038971714       -0.01871413817629
C           47.32810858586577        1.25022517407886        0.21108657726330
C           47.99338865193983        2.48965199681307        0.48712519930953
C           47.02878981421307        3.43061647062733        0.64938986505525
C           45.76312936324343        2.77575829115060        0.46275507169543
N           45.98244827084362        1.44895399482033        0.20752093403987
C           44.50987985630058        3.39191223865187        0.56101636796089
C           44.48832570609731        4.84975022520430        0.82660721632026
C           43.87741847890998        5.34608333452899        1.98280952346594
C           43.84572510603432        6.70525218091507        2.23461123993506
C           44.42613387264682        7.57897117974657        1.31918619870718
N           44.38927586735083        9.00713550691659        1.57471675330676
O           43.84436082821753        9.37995087251587        2.58237289851904
O           44.90577179733481        9.73289884456501        0.76376636033475
C           45.03933295001957        7.10612553941538        0.16220061672003
C           45.07001143804278        5.74444335190584       -0.07709955317488
C           43.26966528134246        2.75307787761303        0.43144420079738
C           41.98492931355380        3.40136941550892        0.47785109815489
C           41.04517001853952        2.44049858915415        0.29833699112894
C           41.74309134776026        1.19674247795434        0.12880711008350
N           43.08800358275319        1.42061740429481        0.20797028484645
H           40.05143051379365       -0.04496709929031       -0.09046470803799
H           40.02420227220104       -2.64438917445831       -0.45275961853781
H           41.91661521567043       -4.51831487747309       -0.75810515897106
H           45.60701360560854       -5.35523629388300        0.91425108499343
H           45.60875466452109       -7.79866633370077        0.47616179842671
H           43.56598161029540       -7.13841063397826       -3.23219997038767
H           43.57272034267731       -4.69368880596066       -2.80218751757632
H           47.25445286684546       -4.44102878233208       -0.93167277622089
H           49.11677549850672       -2.54881026974773       -0.57068511898814
H           49.06224462024958        2.61462432036636        0.55516057590932
H           47.16131253612789        4.47354605651004        0.88797430135846
H           43.43915786974598        4.65498598875441        2.69341575799713
H           43.37889252789453        7.09778566831273        3.12997401459705
H           45.47997772532992        7.80707257684557       -0.53651846978318
H           45.53164619943718        5.36546775423439       -0.98146614750363
H           41.82641010583780        4.45879929809826        0.61621217166065
H           39.97281342246880        2.55334306402929        0.27270753717533
Zn          92.72783420157801        0.05324887162202       -0.02312657500979
C           96.13720522597339        0.09036650505478       -0.06231867984292
C           95.50871870980552        1.29801678950729        0.21448889267885
C           96.18453440825569        2.53014813394573        0.51119690251394
C           95.22713247144324        3.46742370396844        0.71974418273357
C           93.95329109099045        2.82064536379386        0.54066589073202
N           94.15924839135967        1.50557126396226        0.24651047221388
C           92.70121783419543        3.43435433912502        0.67691361056528
C           92.69387919484795        4.88508884561609        0.97945083113781
C           92.11560734075626        5.35886871492772        2.16133084188101
C           92.11847369284595        6.71039107141298        2.45385216930175
C           92.69996252244714        7.59902339906750        1.55360966654354
N           92.70780744177590        9.01839574281603        1.85642764012397
O           93.22723387757632        9.75649363146351        1.05854334250967
O           92.19525457019118        9.37198603961155        2.88767491090569
C           93.27600819993775        7.14916331579608        0.36869997543910
C           93.27242525352851        5.79508234935187        0.08872496078711
C           91.45977753079733        2.79915794292831        0.55286456368119
C           90.18107745906840        3.44995484772460        0.63658333583492
C           89.23415603991522        2.49626823396546        0.44698407745744
N           91.26554139065145        1.46829846327441        0.29897412818275
C           89.92323086041102        1.25696469711547        0.23645300267222
C           89.29057405858599        0.01821272628829        0.00771777061176
C           89.94414967854350       -1.20824332623315       -0.22860034513152
C           89.27697554234690       -2.46203311505244       -0.42308168869472
C           90.23975528008783       -3.39687551267578       -0.62645114831321
C           91.50608126809060       -2.71966471280084       -0.56861623502876
N           91.28915695520121       -1.39229798915545       -0.31445099661235
C           92.75796203294482       -3.32863112380678       -0.71684544847400
C           92.77606940267768       -4.78032573660391       -1.01425609960843
C           93.39499115741276       -5.67315235907801       -0.13329598207251
C           93.42333945868556       -7.02796115974071       -0.40812775994951
C           92.83142444088946       -7.49589817513900       -1.57813604055997
N           92.86515121683557       -8.91597325958628       -1.87572692477808
O           93.41763369403017       -9.63877121700243       -1.08607169908167
O           92.33862866148138       -9.28556759188856       -2.89425656562702
C           92.20980364553859       -6.62458494604422       -2.46843254034480
C           92.18261423957642       -5.27219086559001       -2.18110472922483
C           93.99924416829968       -2.68764108918531       -0.61019811388421
C           95.28226177286641       -3.30700137731923       -0.81804893262257
C           96.22372077733429       -2.34862065229353       -0.63415623665270
C           95.52849077526578       -1.13083945814079       -0.32359500376165
N           94.18346753862170       -1.36763020428338       -0.32361927661015
H           97.22257754967703        0.10201348649696       -0.07533538449750
H           97.25547726495643        2.64875371558204        0.55976996942106
H           95.36698996391675        4.50314241413183        0.98461723603651
H           91.67868536043611        4.65588451894420        2.86099862048082
H           91.68029742304364        7.08530500054805        3.37098618666135
H           93.71748485953808        7.86140822791062       -0.31796257085647
H           93.70733131937619        5.43384906848308       -0.83594009851731
H           90.02845311756475        4.50389001135524        0.80426015374362
H           88.16249089899939        2.61538008988530        0.44169527423075
H           88.20826289270846       -2.60306837268941       -0.39769168083378
H           90.10566631159423       -4.45430317270877       -0.78788437386321
H           93.84221103283470       -5.29807656248667        0.77991480477764
H           93.89643020908510       -7.72695745641923        0.27104782676876
H           91.76004092138412       -7.01331989685633       -3.37413739240836
H           91.71442843960753       -4.58242619814492       -2.87366910394052
H           95.43849091986939       -4.34006354126636       -1.08414054752637
H           97.29552954986347       -2.44417030418670       -0.70787017960786
C           53.18741717539884        0.05026209375854       -0.00190752825351
C           51.95875412853573        0.04660370539130       -0.00145712198007
C           50.61403161578445        0.04010479997058       -0.00431221456013
C           49.38980020011338        0.03579209361968       -0.00979494812913
C           54.53197274389721        0.05300441543290       -0.00330803788010
C           55.75618913268914        0.05470481996992       -0.00593862583478
C           69.25196213774771        0.02401961627198       -0.04090266612016
C           68.02311579138312        0.02826475221421       -0.04297086750427
C           66.67878535060015        0.03278525061403       -0.04413426871275
C           65.45424088959436        0.03546533872588       -0.04380343588166
C           70.59629513305140        0.01964906671404       -0.03806295226899
C           71.82084334996603        0.01622343305396       -0.03440323412974
C           85.31593388027920       -0.01141218955964        0.01754859765519
C           84.08732148710213       -0.01499876943475        0.01542328731265
C           82.74280137738343       -0.01610572985129        0.01170268435911
C           81.51851382783514       -0.01519660719368        0.00776238776256
C           86.66058924734655       -0.00485628927291        0.01707700006717
C           87.88475072010819        0.00553077483832        0.01495340259214
Zn          60.60503926671961        0.04521992187444       -0.02829573949932
C           57.16149441462437        0.05214283744232       -0.01094888661612
C           57.80448491853770       -1.20088346748769        0.05079348552339
C           57.12597499988148       -2.45864784705924        0.15439586647550
C           58.08062259425807       -3.42339706256795        0.18233420049933
C           59.35229367118372       -2.76219557655207        0.08588455126505
N           59.14816291927249       -1.41072115611021        0.01848808037334
C           60.59895020424609       -3.39940546182036        0.09106148089002
C           60.59487151165818       -4.88110803156955        0.14130832466624
C           61.18289255294143       -5.55365380396799        1.21706650147417
C           61.17752915647839       -6.93548648536259        1.27069842795554
C           60.58360574507801       -7.65285279931266        0.23602041758162
N           60.57731044887480       -9.10376102690510        0.28583456877813
O           60.05020361262548       -9.69086420180240       -0.62424881256874
O           61.09865189680514       -9.63158167653427        1.23472074884826
C           59.99545263424861       -7.00306294070520       -0.84556262795696
C           60.00143923691435       -5.62084664112186       -0.88638843985446
C           61.84792496770039       -2.76854690149687        0.05334510502425
C           63.11731592580492       -3.43937820146795        0.00429527618436
C           64.07545045881703       -2.47844674100992       -0.03291397066025
N           62.05716818364508       -1.41614247920640        0.02759909464385
C           63.40139573825201       -1.21396375735311       -0.01770369239525
C           64.04913937243232        0.03815573980447       -0.04176698193124
C           63.40607751355428        1.29270021543956       -0.06340862589944
C           64.08522285747983        2.55449593694150       -0.05727570894268
C           63.13065637189478        3.51912785454241       -0.09054193070435
C           61.85825443716730        2.85325624091454       -0.12691510998074
N           62.06230992128500        1.50011221176669       -0.09877280447484
C           60.61165439164591        3.48937144382318       -0.15490495818361
C           60.61367277582251        4.97077599925283       -0.21284008413663
C           61.19433181881397        5.63428031191820       -1.29820771500617
C           61.19343600179378        7.01572060362235       -1.36076612954530
C           60.61143150909293        7.74185826292065       -0.32543375508460
N           60.60845263070792        9.19241716359280       -0.38540642390704
O           61.12393338355173        9.71219290370315       -1.34191616661920
O           60.08973192734262        9.78726791014413        0.52444381368556
C           60.03156530707076        7.10120782388788        0.76601879274337
C           60.03308514395453        5.71925199983366        0.81583779680196
C           59.36239047524776        2.85762415904704       -0.13440249080331
C           58.09234882084904        3.52362680516656       -0.21872441321711
C           57.13426140839075        2.56276769553703       -0.17782248418318
C           57.80893124003688        1.30250771653895       -0.07950502289906
N           59.15361994217713        1.50710953183378       -0.06129387791859
H           56.05589963639134       -2.58040632892467        0.20655146056106
H           57.93688811712911       -4.48780333671360        0.27422553711130
H           61.63108972945536       -4.98357252583573        2.02250856021338
H           61.62458716558614       -7.46487086987342        2.10351510273040
H           59.54350995285683       -7.58442163981887       -1.64020642154213
H           59.55737037633592       -5.10337872516278       -1.72879245966351
H           63.25714939255261       -4.50812866972332       -0.01358749235936
H           65.14515223036889       -2.60720028064329       -0.07508423192255
H           65.15572131293614        2.67920836411637       -0.02411396146137
H           63.27491379572916        4.58735924818141       -0.07752785657691
H           61.63292280940532        5.05734201298267       -2.10405751422649
H           61.63467320692636        7.53808200389943       -2.20108197657757
H           59.58927139830741        7.68933596182901        1.56110909081004
H           59.59538297493426        5.20888759394875        1.66586335298505
H           57.95171229039320        4.58835737099924       -0.31161022433123
H           56.06414890082372        2.68854419548179       -0.21854871307887
Zn          76.66955389518043       -0.00005311605201       -0.01660500331955
C           73.22592229516198        0.01130592088935       -0.02990079035073
C           73.86697358289629       -1.24254906010274        0.03949565474857
C           73.18587174889657       -2.49945536011682        0.13870969339122
C           74.13884067931312       -3.46557623486341        0.17360029231051
C           75.41222614818686       -2.80634525590045        0.08560665518625
N           75.21031301839722       -1.45431684248550        0.01646444737482
C           76.65778883775023       -3.44493200392783        0.09811227324891
C           76.65400207541212       -4.92657592382973        0.14823268502008
C           77.23986105350954       -5.59813173651105        1.22590609710664
C           77.23919571260548       -6.97995524869366        1.27838628147498
C           76.65187297475866       -7.69849385841972        0.24072876608167
N           76.65182353330231       -9.14945129079829        0.28864915541158
O           76.12982974952538       -9.73770990349947       -0.62361080068367
O           77.17422793210548       -9.67625868992887        1.23756523249630
C           76.06502678446427       -7.04975959160823       -0.84218143495537
C           76.06637581727311       -5.66745231652383       -0.88191778690751
C           77.90798028916328       -2.81519737765655        0.06799526915229
C           79.17665612909585       -3.48767070985871        0.02382622647292
C           80.13635045094058       -2.52791750609013       -0.00428491514306
N           78.11898095283846       -1.46333104721488        0.04793424272616
C           79.46400127964040       -1.26272464010324        0.01185295101564
C           80.11326900363717       -0.01151859366859        0.00070494499846
C           79.47211872711358        1.24387808189284       -0.01794443445971
C           80.15251874817312        2.50463265838275        0.00266912939985
C           79.19947241749583        3.47057964074730       -0.03782321183509
C           77.92700294373931        2.80636158205286       -0.09338169690888
N           78.12891412600787        1.45312838391560       -0.06802592426978
C           76.68143109935251        3.44435552607844       -0.13710300868084
C           76.68863809519446        4.92578874817439       -0.19339644184607
C           77.28871205621311        5.58782906384633       -1.26915595210704
C           77.29846380526932        6.96932519792090       -1.32840749209340
C           76.70728055023062        7.69710881295694       -0.29942651018340
N           76.71766568492674        9.14779960468983       -0.35469761130908
O           77.25234007480914        9.66609925802424       -1.30144236889401
O           76.19118255313461        9.74427827569145        0.54960169269728
C           76.10664139803954        7.05793958830259        0.78159621711847
C           76.09768508017279        5.67584300617707        0.82811615035153
C           75.43152912838559        2.81434055305451       -0.13352476668322
C           74.16327363622283        3.48172870620017       -0.23274083260472
C           73.20368589955520        2.52199935598338       -0.20264408087000
C           73.87574018476603        1.26087712644928       -0.09576936949589
N           75.22016777039349        1.46375207559021       -0.06316055945523
H           72.11524895811631       -2.61940799542817        0.18342415481347
H           73.99305002549698       -4.52979051172896        0.26467578647350
H           77.68324213556542       -5.02715635780768        2.03337825157165
H           77.68535817225070       -7.50848971537123        2.11222073937497
H           75.61835424578037       -7.63200863301973       -1.63914631102057
H           75.62403465628455       -5.15092423544516       -1.72580025952918
H           79.31526760403989       -4.55649906081185        0.00258177357370
H           81.20609884115376       -2.65808262515999       -0.04052517584145
H           81.22262540345794        2.62821811164272        0.04957948183309
H           79.34506727299153        4.53850372299485       -0.01770163573099
H           77.73514346566137        5.00965043411320       -2.06979918851735
H           77.75568961507842        7.49051754987649       -2.16086622333560
H           75.65734017106037        7.64731833136593        1.57182002515315
H           75.64447435194081        5.16670110023488        1.67071686608124
H           74.02514066393353        4.54666551924620       -0.32725181391192
H           72.13423687581751        2.64894163963908       -0.25544822370604
