114
 energy: -204.509524131365 gnorm: 1.316653737499 xtb: 6.5.1 (b24c23e)
Cu          11.25491200000000        0.00863300000000        0.00087600000000
C            7.88887800000000       -0.10551900000000       -0.03106100000000
C            8.55181600000000       -1.26394500000000        0.02649200000000
C            7.90018100000000       -2.56687500000000        0.08530300000000
C            8.84003900000000       -3.48724700000000        0.19223000000000
C           10.14620100000000       -2.81447200000000        0.20618200000000
N            9.97004100000000       -1.40155800000000        0.09624700000000
C           11.33509600000000       -3.43240400000000        0.35972300000000
C           11.37087100000000       -4.90359600000000        0.51006800000000
C           11.57614400000000       -5.48005600000000        1.77060600000000
C           11.60481400000000       -6.87135900000000        1.89160500000000
N           11.43215200000000       -7.65518700000000        0.79388000000000
C           11.23021200000000       -7.12023600000000       -0.43987600000000
C           11.19687300000000       -5.73356600000000       -0.60564400000000
C           12.62933800000000       -2.70165400000000        0.39961300000000
C           13.91935400000000       -3.33934600000000        0.68907800000000
C           14.85398300000000       -2.41510500000000        0.60529900000000
N           12.77119500000000       -1.43749200000000        0.14046500000000
C           14.17035700000000       -1.17737500000000        0.25232300000000
C           14.76674300000000       -0.00020600000000        0.00005700000000
C           14.00888000000000        1.21566000000000       -0.37324300000000
C           14.55217400000000        2.28911300000000       -0.93310600000000
C           13.50950200000000        3.28868600000000       -1.05120100000000
C           12.39784700000000        2.76191400000000       -0.55217200000000
N           12.62259700000000        1.42485900000000       -0.10170700000000
C           11.11274000000000        3.49516800000000       -0.41526300000000
C           11.13558800000000        4.97780900000000       -0.46245800000000
C           10.47387500000000        5.67174200000000       -1.48600400000000
C           10.51808500000000        7.06764900000000       -1.50879300000000
N           11.20472000000000        7.74483400000000       -0.55004100000000
C           11.86392200000000        7.09695100000000        0.44649300000000
C           11.84502100000000        5.70161700000000        0.50695000000000
C            9.94584900000000        2.84638900000000       -0.23794300000000
C            8.63364200000000        3.46268500000000       -0.04807900000000
C            7.77140200000000        2.46915400000000        0.04572800000000
C            8.52379300000000        1.22120800000000       -0.06964900000000
N            9.79215600000000        1.42837600000000       -0.23513400000000
H            6.80572800000000       -0.13350100000000       -0.03125600000000
H            6.83579500000000       -2.76141100000000        0.06015500000000
H            8.65150300000000       -4.55022800000000        0.26982400000000
H           11.71254600000000       -4.85864500000000        2.64705000000000
H           11.76362800000000       -7.32850300000000        2.85906500000000
H           11.09503900000000       -7.77179700000000       -1.29280300000000
H           11.03543800000000       -5.31057500000000       -1.58937500000000
H           14.09744900000000       -4.38006800000000        0.92381500000000
H           15.91174000000000       -2.57823000000000        0.75933700000000
H           15.58535300000000        2.41421800000000       -1.22676300000000
H           13.62748600000000        4.28779900000000       -1.44897700000000
H            9.93323100000000        5.13706900000000       -2.25627500000000
H           10.00742600000000        7.61311400000000       -2.29111600000000
H           12.40217900000000        7.66520200000000        1.19363300000000
H           12.37051500000000        5.19051600000000        1.30418500000000
H            8.38911800000000        4.51502500000000        0.01274800000000
H            6.70428200000000        2.57366400000000        0.19197300000000
Cu          26.93523200000000       -0.00842400000000        0.00341000000000
C           30.30126600000000        0.09151100000000       -0.06033500000000
C           29.63832800000000        1.21663000000000       -0.34206300000000
C           30.28996400000000        2.48037700000000       -0.66460000000000
C           29.35010600000000        3.39207900000000       -0.82987700000000
C           28.04394300000000        2.75242300000000       -0.62092800000000
N           28.22010300000000        1.36858000000000       -0.31533100000000
C           26.85504800000000        3.38830200000000       -0.65367400000000
C           26.81927300000000        4.83965400000000       -0.93755100000000
C           26.61400000000000        5.75769600000000        0.10093900000000
C           26.58533000000000        7.12407800000000       -0.18779000000000
N           26.75799200000000        7.55490000000000       -1.46598300000000
C           26.95993300000000        6.68436000000000       -2.49091600000000
C           26.99327200000000        5.30939500000000       -2.24636900000000
C           25.56080700000000        2.70071500000000       -0.40305200000000
C           24.27079000000000        3.39501900000000       -0.31149200000000
C           23.33616200000000        2.48634400000000       -0.12294200000000
N           25.41895000000000        1.41581700000000       -0.28347000000000
C           24.01978700000000        1.19945700000000       -0.10081900000000
C           23.42340100000000       -0.00020600000000        0.00005700000000
C           24.18126500000000       -1.27208100000000       -0.00362300000000
C           23.63797100000000       -2.46193700000000       -0.22721100000000
C           24.68064300000000       -3.45266600000000       -0.04959400000000
C           25.79229800000000       -2.80356400000000        0.27472800000000
N           25.56754700000000       -1.39329800000000        0.31700500000000
C           27.07740400000000       -3.46534000000000        0.61890500000000
C           27.05455700000000       -4.89765700000000        1.00480500000000
C           27.71626900000000       -5.85919500000000        0.22722300000000
C           27.67205900000000       -7.20143000000000        0.61125800000000
N           26.98542500000000       -7.57062000000000        1.72547700000000
C           26.32622300000000       -6.66099500000000        2.49060200000000
C           26.34512400000000       -5.30835800000000        2.14277400000000
C           28.24429500000000       -2.79303200000000        0.59994300000000
C           29.55650199999999       -3.32750600000000        0.96078500000000
C           30.41874300000000       -2.34962000000000        0.76168500000000
C           29.66635100000000       -1.18912400000000        0.28847000000000
N           28.39798800000000       -1.43545600000000        0.19036400000000
H           31.38441600000000        0.11822800000000       -0.06865700000000
H           31.35434900000000        2.65919900000000       -0.74522100000000
H           29.53864200000000        4.43170300000000       -1.06468000000000
H           26.47759800000000        5.41794100000000        1.12019000000000
H           26.42651600000000        7.84275000000000        0.60497200000000
H           27.09510500000000        7.05980100000000       -3.49643200000000
H           27.15470699999999        4.61867100000000       -3.06462900000000
H           24.09269600000000        4.45903200000000       -0.38946800000000
H           22.27840399999999        2.68720700000000       -0.02298400000000
H           22.60479200000000       -2.66701400000000       -0.47181100000000
H           24.56265800000000       -4.52426800000000       -0.13971000000000
H           28.25691300000000       -5.57156300000000       -0.66522300000000
H           28.18271900000000       -7.95078100000000        0.02131400000000
H           25.78796600000000       -6.98748000000000        3.37067900000000
H           25.81963000000000       -4.58755100000000        2.75697700000000
H           29.80102600000000       -4.31670500000000        1.32493600000000
H           31.48586200000000       -2.40709700000000        0.93199700000000
C           19.69891600000000        0.00089700000000        0.00854700000000
C           18.48997700000000       -0.01255800000000        0.00009900000000
C           17.06844800000000       -0.00373900000000       -0.01188400000000
C           15.85677800000000        0.00370000000000       -0.00102100000000
C           21.11552000000000       -0.00577800000000        0.00908000000000
C           22.33621600000000        0.00370000000000       -0.00102100000000
114
 energy: -204.833279071064 gnorm: 0.341748522908 xtb: 6.5.1 (b24c23e)
Cu          11.25682184378620        0.00812631421093       -0.00070547263235
C            7.88967759882564       -0.09058566640448       -0.03158230851444
C            8.55740471406537       -1.26588233442147        0.02662195484013
C            7.89919039636263       -2.56122142316526        0.08497592396904
C            8.84816361573743       -3.48953889861043        0.19256923978105
C           10.14379070995739       -2.80912693386648        0.20496577516997
N            9.95291489849658       -1.41811050075593        0.09800011960280
C           11.34762022788114       -3.42966218589412        0.36048142234592
C           11.37345956886747       -4.90427036725093        0.51045561115251
C           11.57661183938088       -5.48250681890174        1.76689239898010
C           11.60257290847248       -6.86949910378211        1.87803417929029
N           11.43213140986093       -7.65428809424378        0.79377065573982
C           11.23208933000750       -7.11532576357810       -0.42689132730868
C           11.19693007605916       -5.73472906858476       -0.60110765649971
C           12.61982139089247       -2.72335276634474        0.40218989731673
C           13.90581349954285       -3.35118396852313        0.68924142108789
C           14.84851877539520       -2.40752682645117        0.60292420377505
N           12.76921514537738       -1.44268012273180        0.14478812165520
C           14.13322374006905       -1.19557621109456        0.25789430103479
C           14.67197421119572        0.01017926115743       -0.00273226654384
C           13.97426202266044        1.21737854828504       -0.36924276644701
C           14.55016102247446        2.30801003905837       -0.93836686229763
C           13.52748736393321        3.29224645622740       -1.05411654108769
C           12.38605423168599        2.75673071233100       -0.54336297220873
N           12.61844420389798        1.43443069640667       -0.10716579233140
C           11.12390641609612        3.48852839149516       -0.41484773877331
C           11.14065312221236        4.97482175775872       -0.46464480021802
C           10.47571020620959        5.67237452639649       -1.48152958058976
C           10.52563547129688        7.06381020343167       -1.49734382254128
N           11.20463250655891        7.74379594345065       -0.55019696119128
C           11.85579807731570        7.09280767396173        0.43563164253692
C           11.84356785434486        5.70241691524022        0.50306914936879
C            9.94436640564543        2.84529267967141       -0.23707010405909
C            8.64022733661724        3.46259751511973       -0.04931811977218
C            7.76340440578678        2.45914596742355        0.04638015230097
C            8.50722141251341        1.21344323351292       -0.06925719500295
N            9.79211594955361        1.43819445363720       -0.23320349183420
H            6.80618182990311       -0.12949047976231       -0.03094592771911
H            6.83580204929911       -2.75554796529628        0.05950670126631
H            8.65871143058735       -4.55087962219234        0.26999041558965
H           11.71226072121032       -4.85936237105258        2.64538615078027
H           11.76236650022422       -7.33064706701139        2.85180858186929
H           11.09634434077407       -7.77223701772867       -1.28523321446040
H           11.03593041711935       -5.31077153540105       -1.58748635653200
H           14.09191656252837       -4.38448352936502        0.92413714005642
H           15.90904242493564       -2.56930718325055        0.75746572581994
H           15.58471292182124        2.41595199881627       -1.22792213212134
H           13.63168090136752        4.28839943832166       -1.45085833339273
H            9.93426930018741        5.13730788300928       -2.25494224864021
H           10.01185434582236        7.61424851432227       -2.28485564504901
H           12.39782279631575        7.66611645446752        1.18721900470993
H           12.36968266585480        5.19077522873132        1.30270746843381
H            8.39591671038625        4.51442823686520        0.01188853675620
H            6.70144176713032        2.56859238346870        0.19212178866733
Cu          26.93332115519555       -0.00839969121726        0.00174462079717
C           30.30046811910676        0.07706581339646       -0.05649224597570
C           29.63273841503883        1.21852576213533       -0.34250481153755
C           30.29095533619750        2.47486908021588       -0.66326672516658
C           29.34197655338367        3.39437056923554       -0.83022299764649
C           28.04636075505789        2.74696223470772       -0.62054195438028
N           28.23723523633527        1.38492847488261       -0.31845388622206
C           26.84252716398603        3.38591308541709       -0.65214778736741
C           26.81668766818312        4.84041436032542       -0.93737601717912
C           26.61353267641976        5.75896165098907        0.09667362364002
C           26.58757118420271        7.11835289222344       -0.20023370848142
N           26.75801288031827        7.55400837321788       -1.46582649599807
C           26.95805510626326        6.68343706377700       -2.47706479255826
C           26.99321502543273        5.31182690355911       -2.24236752374390
C           25.57033788913331        2.72230086490689       -0.40689563248494
C           24.28440100461917        3.40642929784634       -0.31478845010895
C           23.34170579332699        2.47837631057924       -0.12300230835380
N           25.42096756017236        1.42205606673382       -0.28086181437263
C           24.05711875132120        1.21863360529512       -0.10091190952396
C           23.51776901356389       -0.01122297281204       -0.00011132649485
C           24.21574237958269       -1.27274177274712        0.00060106855816
C           23.63993494856151       -2.48158295198686       -0.22676415032795
C           24.66267447824780       -3.45693310664093       -0.05133796166598
C           25.80406286031665       -2.79603775783849        0.28165051529690
N           25.57159449830079       -1.40400213571927        0.31456139585700
C           27.06624342656497       -3.45886126135792        0.61737213311514
C           27.04949128003878       -4.89543192212252        1.00184384980359
C           27.71443385076538       -5.85849881640989        0.23168822031291
C           27.66450873136309       -7.19442787269399        0.62109660421213
N           26.98551239186087       -7.56967206798188        1.72502588057694
C           26.33434695443566       -6.66018824473248        2.47900521056679
C           26.34657668095028       -5.31025142088118        2.13929349038589
C           28.24577527157707       -2.79173197316609        0.60045920101537
C           29.54991853984820       -3.32778282459324        0.95957593663629
C           30.42673990020299       -2.33985649623813        0.75940090945374
C           29.68292245937355       -1.18157907440664        0.28658786821837
N           28.39802871736110       -1.44428948523866        0.19505374093422
H           31.38396276647639        0.11447997753154       -0.06719328636832
H           31.35434228380540        2.65339946495000       -0.74413699047752
H           29.53143281701875        4.43237486223676       -1.06471005437472
H           26.47788315455651        5.41814354594707        1.11838931824270
H           26.42777740161264        7.84269157558737        0.59740555280423
H           27.09379971576993        7.06242261875124       -3.48931693579009
H           27.15421461200083        4.61940811041992       -3.06287914981475
H           24.09823422323468        4.46336078187589       -0.39044210867205
H           22.28113496336154        2.67810313950856       -0.02218488944381
H           22.60540298616602       -2.66901213330838       -0.47241853885705
H           24.55846890807155       -4.52539340471200       -0.14133333603728
H           28.25587472598020       -5.57140406490868       -0.66387846209321
H           28.17829053858251       -7.95004623333136        0.02763381337404
H           25.79232231150144       -6.99021962401585        3.36480786695178
H           25.82046213208736       -4.58822858505285        2.75563877634451
H           29.79422789575295       -4.31638409779322        1.32394070581968
H           31.48870236257611       -2.40220150727454        0.93066537060560
C           19.70300489718739        0.00081793357566        0.00798289276133
C           18.48623542008523       -0.01209583612846        0.00043159761942
C           17.14173490148111       -0.00101643590974       -0.01132695341273
C           15.95275485026915        0.01757266799009       -0.00489792016129
C           21.04602683920737       -0.00957214650265        0.01179602585781
C           22.23636704210155       -0.00947777120896       -0.00069911079778
114
 energy: -204.905799341079 gnorm: 0.164501012191 xtb: 6.5.1 (b24c23e)
Cu          11.25456945123749        0.00413136307325       -0.00501180442000
C            7.88957024710334       -0.07328297130896       -0.03197659616911
C            8.55794872480484       -1.26688355989488        0.02689864563328
C            7.89966556522290       -2.55449261406251        0.08472146965740
C            8.85785897460089       -3.49058788659231        0.19244084248750
C           10.13918535403915       -2.80638254832724        0.20332913630314
N            9.92744977870513       -1.44095794386171        0.10077719957790
C           11.35729135544709       -3.42890423199007        0.36129498771103
C           11.37715850775450       -4.90339378242668        0.51109595558049
C           11.57895942352616       -5.48560720428294        1.76032929544455
C           11.59973950269057       -6.86907325312632        1.85910344539128
N           11.43220139209657       -7.65772750769499        0.79417234099772
C           11.23418234540753       -7.10980236772756       -0.40784109291908
C           11.19696686720655       -5.73514039850473       -0.59277733820571
C           12.60354897434650       -2.75518809676061        0.40839322220018
C           13.88466792318432       -3.36980877215623        0.68826688522844
C           14.82581531145796       -2.40362982263149        0.60017316773775
N           12.76130929186668       -1.45523969058981        0.16181981343058
C           14.10327522354985       -1.20185707404824        0.26386909623069
C           14.62854380018893        0.03264148492832       -0.01059907599090
C           13.94440292266587        1.22515687750313       -0.36299767244333
C           14.54408456743304        2.33779283555948       -0.93899357929779
C           13.55037901313110        3.30317192335622       -1.04922651621789
C           12.37903510180007        2.75927257655666       -0.53261064762762
N           12.60833077930500        1.44950215674930       -0.12615746938775
C           11.14057162489913        3.47502602080554       -0.41267269439862
C           11.15573137247178        4.96233175519899       -0.47212667650759
C           10.48157107171163        5.66732018173548       -1.47364593679856
C           10.53596591233740        7.05540137686927       -1.47961163079131
N           11.20459064290877        7.74339768002791       -0.55044110511582
C           11.84386102887718        7.08518418649725        0.41992995030626
C           11.84475742033272        5.69868886423403        0.49358727964622
C            9.94221804479558        2.83852538620303       -0.23230190716191
C            8.64592951665964        3.45388036031176       -0.05133667746793
C            7.75139510040300        2.44743786087740        0.04491324157717
C            8.48426762844251        1.20685013504630       -0.06886064758146
N            9.78594241695245        1.44906448716117       -0.22438667510494
H            6.80638506141334       -0.11742536877816       -0.02852406265700
H            6.83594519355251       -2.73878580384347        0.05740885674656
H            8.68082452459618       -4.55274768778801        0.26999477610604
H           11.71209674911362       -4.86351151147190        2.64014057915814
H           11.75832650462561       -7.33782884714644        2.83014632103938
H           11.10010570070574       -7.77338825684221       -1.26225610071409
H           11.03749586603774       -5.31257422032870       -1.58033131054002
H           14.07457266573910       -4.40127963927690        0.92400884104794
H           15.88960992224580       -2.54584424538184        0.75170922500367
H           15.57912574013801        2.42465701668390       -1.23195934231196
H           13.64433058676318        4.29469003669497       -1.45606909620845
H            9.93836621830271        5.13699539769333       -2.24955179349455
H           10.02506018766827        7.61430297389625       -2.26478355033679
H           12.38369168487329        7.66696147835902        1.16796248261749
H           12.36857826274316        5.19148072031893        1.29745278916757
H            8.41623767705446        4.50840373824179        0.00918438388067
H            6.69062191011457        2.55537747762867        0.19160890668900
Cu          26.93554343171877       -0.00587218005442       -0.00352032571734
C           30.30057174400866        0.06039173363391       -0.05183305816816
C           29.63219487553936        1.21955991516087       -0.34252388630835
C           30.29049431997523        2.46834889358881       -0.66155126139379
C           29.33230985308571        3.39533518538438       -0.83064621499142
C           28.05100951982785        2.74386352605318       -0.62130274216366
N           28.26269758167985        1.40758545568784       -0.32244911560082
C           26.83294265244984        3.38548425089190       -0.65114054371954
C           26.81303217590079        4.83979826026935       -0.93651006419699
C           26.61119420256007        5.76003663001091        0.08949512526072
C           26.59040262614468        7.11245397406022       -0.21822140876488
N           26.75794342659251        7.55742518072535       -1.46644213476011
C           26.95596044784389        6.68370329514317       -2.45723542755696
C           26.99318695969293        5.31465859828410       -2.23452285164465
C           25.58678328743213        2.75463664690681       -0.41017284744554
C           24.30566056988796        3.42399317749999       -0.32112186452303
C           23.36463152243375        2.47380911014629       -0.12468361928847
N           25.42922677449449        1.43911524450949       -0.26818893861788
C           24.08749505906485        1.22627559197435       -0.09725465888305
C           23.56114055221648       -0.03460951976739       -0.00194616073699
C           24.24492511799751       -1.27814017065629        0.00855815987078
C           23.64565487009180       -2.51030525121911       -0.21877186366483
C           24.63960579398383       -3.46588497996403       -0.04348288706906
C           25.81085441200620       -2.79513968967298        0.29269417726603
N           25.58120164594238       -1.42371039079167        0.30068173569494
C           27.04944524612633       -3.44519911711357        0.61552386048975
C           27.03435609637690       -4.88560172090284        0.99102908108972
C           27.70855320473460       -5.85133599474702        0.23776347043792
C           27.65417621660391       -7.18120114429156        0.63562112516725
N           26.98555435427424       -7.56934740061283        1.72467591747310
C           26.34628560005650       -6.65744524810290        2.46176415335744
C           26.34537613160578       -5.30942319295111        2.12913309346052
C           28.24786232985162       -2.78383942156706        0.60304855725757
C           29.54417570470360       -3.32002596987587        0.95510173074089
C           30.43872558608681       -2.32908690764254        0.75459460482605
C           29.70586481366315       -1.17515457451783        0.28505069670513
N           28.40418739206419       -1.45210992970356        0.20665921756720
H           31.38375742345152        0.10363597828144       -0.06136364349458
H           31.35421083679954        2.63674549114430       -0.74126477074079
H           29.50933850898150        4.43416244842960       -1.06524576628940
H           26.47804899835996        5.42059355373267        1.11216302812935
H           26.43181450385129        7.84327312419875        0.57459387775754
H           27.09003828621210        7.07021280627143       -3.46766974249365
H           27.15265118991082        4.62321936580236       -3.05655682828760
H           24.11560000926133        4.47941538635307       -0.39542354607526
H           22.30077586258676        2.65392607251889       -0.02096093912943
H           22.61072000959666       -2.67868787613382       -0.47383681039167
H           24.54580394128510       -4.53288576348360       -0.14447415516491
H           28.25177171055826       -5.56952246260190       -0.65880825417879
H           28.16508360742471       -7.94424313063292        0.04685975595108
H           25.80645631527790       -6.99661949099953        3.34662780590702
H           25.82155829220520       -4.59042557029183        2.75082400857852
H           29.77387725404781       -4.31140103210893        1.31960074379361
H           31.49950338186848       -2.38971521242390        0.92633688737142
C           19.70155762861847       -0.00089253334277        0.00893870028312
C           18.48683182603311       -0.00999570043574        0.00369358159515
C           17.17342401565276        0.00736810459146       -0.01269960542919
C           15.95843322286386        0.04598943480474       -0.01879291770685
C           21.01573801971424       -0.01970615894926        0.01901255020310
C           22.23111642146817       -0.03976874586731       -0.00718492836518
114
 energy: -204.932707043034 gnorm: 0.050176692709 xtb: 6.5.1 (b24c23e)
Cu          11.24992445730276        0.00310468387754       -0.00802079539852
C            7.88613914961891       -0.06199757813467       -0.02989400551747
C            8.55244238745133       -1.27389677684400        0.02768336005515
C            7.89388499425209       -2.55209721534778        0.08362096822740
C            8.85938423776531       -3.49385021648135        0.18997674675234
C           10.12434528275283       -2.80604413879253        0.20172298184788
N            9.90138223514771       -1.46082907597264        0.10494441484667
C           11.35581843939847       -3.43070071255800        0.36496582678695
C           11.37138573603958       -4.90458341765799        0.51373740967383
C           11.57912170446993       -5.49080196236651        1.75758312380852
C           11.59847160436472       -6.87288483891734        1.84689509054755
N           11.43229433688935       -7.66582500253996        0.79503475234761
C           11.23580619193887       -7.10918272780122       -0.39441516213506
C           11.19460777162347       -5.73767635454625       -0.58636683261410
C           12.58222437792377       -2.78243547920927        0.41821461310317
C           13.86147490998387       -3.38354299895576        0.68408443583238
C           14.79328867073611       -2.39603379789169        0.59823935726632
N           12.74323714083685       -1.46029680255556        0.18273302309192
C           14.06684601256415       -1.20234893876526        0.27185027079425
C           14.58998245098993        0.05383098462239       -0.02284363756851
C           13.91278303098223        1.23426073581372       -0.36264264448601
C           14.53655444217184        2.37184470255903       -0.93396677332887
C           13.57192643073846        3.32616329917393       -1.03671610725003
C           12.36871515835426        2.77063357480492       -0.52749256878951
N           12.59271199685417        1.46984353307996       -0.15406957398596
C           11.15177329274478        3.46232336633066       -0.41259344033270
C           11.16648690517906        4.94830167274424       -0.47946238630632
C           10.48752511704817        5.65916211179977       -1.47022846682560
C           10.54353929832620        7.04531984787532       -1.46783920370258
N           11.20431156564480        7.74181430401590       -0.55078929698355
C           11.83783775498234        7.07617764118948        0.40722666642162
C           11.84980358300009        5.69161782470637        0.48333349149397
C            9.93602571765023        2.82645133295472       -0.22371905452273
C            8.64896398838022        3.44315759616555       -0.05166370008901
C            7.73926959607946        2.43941736563038        0.03954673199338
C            8.46151320409111        1.20134944971788       -0.06598116175199
N            9.78102798532577        1.45775350022603       -0.21203709922780
H            6.80288755168247       -0.10903326036462       -0.02132523916882