      -----------------------------------------------------------      
     |                   =====================                   |     
     |                           x T B                           |     
     |                   =====================                   |     
     |                         S. Grimme                         |     
     |          Mulliken Center for Theoretical Chemistry        |     
     |                    University of Bonn                     |     
      -----------------------------------------------------------      

   * xtb version 6.5.1 (b24c23e) compiled by 'conda@728c89f4b128' on 2022-07-12

   xtb is free software: you can redistribute it and/or modify it under
   the terms of the GNU Lesser General Public License as published by
   the Free Software Foundation, either version 3 of the License, or
   (at your option) any later version.
   
   xtb is distributed in the hope that it will be useful,
   but WITHOUT ANY WARRANTY; without even the implied warranty of
   MERCHANTABILITY or FITNESS FOR A PARTICULAR PURPOSE.  See the
   GNU Lesser General Public License for more details.
   
   Cite this work as:
   * C. Bannwarth, E. Caldeweyher, S. Ehlert, A. Hansen, P. Pracht,
     J. Seibert, S. Spicher, S. Grimme, WIREs Comput. Mol. Sci., 2020, 11,
     e01493. DOI: 10.1002/wcms.1493
   
   for GFN2-xTB:
   * C. Bannwarth, S. Ehlert and S. Grimme., J. Chem. Theory Comput., 2019,
     15, 1652-1671. DOI: 10.1021/acs.jctc.8b01176
   for GFN1-xTB:
   * S. Grimme, C. Bannwarth, P. Shushkov, J. Chem. Theory Comput., 2017,
     13, 1989-2009. DOI: 10.1021/acs.jctc.7b00118
   for GFN0-xTB:
   * P. Pracht, E. Caldeweyher, S. Ehlert, S. Grimme, ChemRxiv, 2019, preprint.
     DOI: 10.26434/chemrxiv.8326202.v1
   for GFN-FF:
   * S. Spicher and S. Grimme, Angew. Chem. Int. Ed., 2020, 59, 15665-15673.
     DOI: 10.1002/anie.202004239
   
   for ALPB and GBSA implicit solvation:
   * S. Ehlert, M. Stahn, S. Spicher, S. Grimme, J. Chem. Theory Comput.,
     2021, 17, 4250-4261. DOI: 10.1021/acs.jctc.1c00471
   
   for DFT-D4:
   * E. Caldeweyher, C. Bannwarth and S. Grimme, J. Chem. Phys., 2017,
     147, 034112. DOI: 10.1063/1.4993215
   * E. Caldeweyher, S. Ehlert, A. Hansen, H. Neugebauer, S. Spicher,
     C. Bannwarth and S. Grimme, J. Chem. Phys., 2019, 150, 154122.
     DOI: 10.1063/1.5090222
   * E. Caldeweyher, J.-M. Mewes, S. Ehlert and S. Grimme, Phys. Chem. Chem. Phys.
     2020, 22, 8499-8512. DOI: 10.1039/D0CP00502A
   
   for sTDA-xTB:
   * S. Grimme and C. Bannwarth, J. Chem. Phys., 2016, 145, 054103.
     DOI: 10.1063/1.4959605
   
   in the mass-spec context:
   * V. Asgeirsson, C. Bauer and S. Grimme, Chem. Sci., 2017, 8, 4879.
     DOI: 10.1039/c7sc00601b
   * J. Koopman and S. Grimme, ACS Omega 2019, 4, 12, 15120-15133.
     DOI: 10.1021/acsomega.9b02011
   
   for metadynamics refer to:
   * S. Grimme, J. Chem. Theory Comput., 2019, 155, 2847-2862
     DOI: 10.1021/acs.jctc.9b00143
   
   for SPH calculations refer to:
   * S. Spicher and S. Grimme, J. Chem. Theory Comput., 2021, 17, 1701-1714
     DOI: 10.1021/acs.jctc.0c01306
   
   with help from (in alphabetical order)
   P. Atkinson, C. Bannwarth, F. Bohle, G. Brandenburg, E. Caldeweyher
   M. Checinski, S. Dohm, S. Ehlert, S. Ehrlich, I. Gerasimov, C. Hölzer
   A. Katbashev, J. Koopman, C. Lavigne, S. Lehtola, F. März, M. Müller,
   F. Musil, H. Neugebauer, J. Pisarek, C. Plett, P. Pracht, F. Pultar,
   J. Seibert, P. Shushkov, S. Spicher, M. Stahn, M. Steiner, T. Strunk,
   J. Stückrath, T. Rose, and J. Unsleber
   
 * started run on 2022/07/31 at 08:03:56.233     

           -------------------------------------------------
          |                Calculation Setup                |
           -------------------------------------------------

          program call               : xtb xtbopt.xyz --gfn 1 --vipea
          hostname                   : cx3-15-11.cx3.hpc.ic.ac.uk
          coordinate file            : xtbopt.xyz
          omp threads                :                     1

   ID    Z sym.   atoms
    1    6 C      1-5, 7-10, 12-20, 22-26, 28-32, 35, 36, 38-42, 44, 74-78,
                  80-83, 85-93, 95-99, 101-105, 108, 109, 111-115, 117,
                  147-207, 209-212, 214-222, 224-228, 230-234, 237, 238,
                  240-244, 246, 275-279, 281-284, 286-294, 296-300, 302-306,
                  309, 310, 312-316, 318, 347-351, 353-356, 358-366, 368-372,
                  374-378, 381, 382, 384-388, 390, 419-423, 425-428, 430-438,
                  440-444, 446-450, 453, 454, 456-460, 462, 491-495, 497-500,
                  502-510, 512-516, 518-522, 525, 526, 528-532, 534, 563-567,
                  569-572, 574-582, 584-588, 590-594, 597, 598, 600-604, 606
    2    7 N      6, 11, 33, 34, 79, 84, 106, 107, 208, 213, 235, 236, 280,
                  285, 307, 308, 352, 357, 379, 380, 424, 429, 451, 452, 496,
                  501, 523, 524, 568, 573, 595, 596
    3    8 O      21, 27, 37, 43, 94, 100, 110, 116, 223, 229, 239, 245, 295,
                  301, 311, 317, 367, 373, 383, 389, 439, 445, 455, 461, 511,
                  517, 527, 533, 583, 589, 599, 605
    4    1 H      45-73, 118-146, 247-274, 319-346, 391-418, 463-490,
                  535-562, 607-634

molecular fragmentation (1/2 indicates fragments):
111111111111111111111111111111111111111111111111121111111111111111111111
122222222222222222222222222222222222222222222222222222222222222222222222
222222222222222222222222222222222222222222222222222222222222222222222222
222222222222222222222222222222222222222222222222222222222222222222222222
222222222222222222222222222222222222222222222222222222222222222222222222
222222222222222222222222222222222222222222222222222222222222222222222222
222222222222222222222222222222222222222222222222222222222222222222222222
222222222222222222222222222222222222222222222222222222222222222222222222
2222222222222222222222222222222222222222222222222222222222
# atoms in fragment 1/2:    72   562
 fragment masses (1/2) :      580.63     4739.05
CMA distance (Bohr)    : 141.681
constraining FC (au)   :  0.0500

           -------------------------------------------------
          |                 I P E A - x T B                 |
           -------------------------------------------------

        Reference                      10.1039/c7sc00601b
      * Hamiltonian:
        H0-scaling (s, p, d)           2.150000    2.300000    2.000000
        zeta-weighting                 0.000000
      * Dispersion:
        s8                             2.400000
        a1                             0.630000
        a2                             5.000000
        s9                             0.000000
      * Repulsion:
        kExp                           1.500000
        rExp                           1.000000
      * Coulomb:
        alpha                          1.000000
        third order                    atomic
        anisotropic                    false
      * Halogen bond correction:
        rad-scale                      1.300000
        damping                        0.440000


          ...................................................
          :                      SETUP                      :
          :.................................................:
          :  # basis functions                2492          :
          :  # atomic orbitals                2492          :
          :  # shells                         1676          :
          :  # electrons                      1954          :
          :  # halogen bonds                     0          :
          :  max. iterations                   250          :
          :  Hamiltonian                  GFN1-xTB          :
          :  restarted?                      false          :
          :  GBSA solvation                  false          :
          :  PC potential                    false          :
          :  electronic temp.          300.0000000     K    :
          :  accuracy                    1.0000000          :
          :  -> integral cutoff          0.2500000E+02      :
          :  -> integral neglect         0.1000000E-07      :
          :  -> SCF convergence          0.1000000E-05 Eh   :
          :  -> wf. convergence          0.2000000E-04 e    :
          :  Broyden damping             0.4000000          :
          ...................................................

 iter      E             dE          RMSdq      gap      omega  full diag
   1  -1246.3738558 -0.124637E+04  0.977E+00    0.22       0.0  T
   2  -1248.0000057 -0.162615E+01  0.611E+00    1.12       1.0  T
   3  -1225.4645405  0.225355E+02  0.473E+00    0.09       1.0  T
   4  -1239.9608470 -0.144963E+02  0.165E+00    0.04       1.0  T
   5  -1230.7575503  0.920330E+01  0.171E+00    0.01       1.0  T
   6  -1248.0079424 -0.172504E+02  0.808E-01    0.02       1.0  T
   7  -1252.6756858 -0.466774E+01  0.263E-01    0.38       1.0  T
   8  -1252.4450970  0.230589E+00  0.505E-01    0.82       1.0  T
   9  -1252.4389626  0.613435E-02  0.509E-01    0.82       1.0  T
  10  -1252.7586210 -0.319658E+00  0.127E-01    0.32       1.0  T
  11  -1252.6563916  0.102229E+00  0.293E-01    0.27       1.0  T
  12  -1252.7640229 -0.107631E+00  0.668E-02    0.19       1.0  T
  13  -1252.7635120  0.510919E-03  0.718E-02    0.20       1.0  T
  14  -1252.7696938 -0.618182E-02  0.351E-02    0.26       1.0  T
  15  -1252.7694729  0.220872E-03  0.426E-02    0.31       1.0  T
  16  -1252.7703660 -0.893097E-03  0.301E-02    0.37       1.0  T
  17  -1252.7716428 -0.127673E-02  0.159E-02    0.44       1.0  T
  18  -1252.7718432 -0.200425E-03  0.105E-02    0.46       1.0  T
  19  -1252.7720164 -0.173200E-03  0.269E-03    0.46       1.5  T
  20  -1252.7720241 -0.768162E-05  0.150E-03    0.46       2.7  T
  21  -1252.7720198  0.425918E-05  0.211E-03    0.46       1.9  T
  22  -1252.7720262 -0.637474E-05  0.934E-04    0.46       4.3  T
  23  -1252.7720270 -0.779448E-06  0.666E-04    0.46       6.0  T
  24  -1252.7720273 -0.336248E-06  0.538E-04    0.46       7.4  T
  25  -1252.7720273 -0.253090E-07  0.552E-04    0.46       7.2  T
  26  -1252.7720277 -0.385025E-06  0.347E-04    0.46      11.5  T
  27  -1252.7720279 -0.198381E-06  0.188E-04    0.46      21.1  T
  28  -1252.7720280 -0.898906E-07  0.425E-05    0.46      93.4  T

   *** convergence criteria satisfied after 28 iterations ***

         #    Occupation            Energy/Eh            Energy/eV
      -------------------------------------------------------------
         1        2.0000           -1.0551152             -28.7111
       ...           ...                  ...                  ...
       971        2.0000           -0.3759121             -10.2291
       972        2.0000           -0.3731781             -10.1547
       973        2.0000           -0.3709643             -10.0945
       974        2.0000           -0.3671589              -9.9909
       975        2.0000           -0.3636983              -9.8967
       976        1.9998           -0.3614310              -9.8350
       977        1.9998           -0.3612221              -9.8294 (HOMO)
       978        0.0004           -0.3444610              -9.3733 (LUMO)
       979                         -0.3265179              -8.8850
       980                         -0.3237140              -8.8087
       981                         -0.3199650              -8.7067
       982                         -0.3158950              -8.5959
       ...                                ...                  ...
      2492                        561.3145843           15274.1473
      -------------------------------------------------------------
                  HL-Gap            0.0167612 Eh            0.4561 eV
             Fermi-level           -0.3525420 Eh           -9.5932 eV

 SCC (total)                   0 d,  0 h,  2 min, 38.216 sec
 SCC setup                      ...        0 min,  0.056 sec (  0.035%)
 Dispersion                     ...        0 min,  0.048 sec (  0.031%)
 classical contributions        ...        0 min,  0.011 sec (  0.007%)
 integral evaluation            ...        0 min,  2.746 sec (  1.735%)
 iterations                     ...        2 min, 29.865 sec ( 94.722%)
 molecular gradient             ...        0 min,  4.592 sec (  2.902%)
 printout                       ...        0 min,  0.898 sec (  0.568%)

         :::::::::::::::::::::::::::::::::::::::::::::::::::::
         ::                     SUMMARY                     ::
         :::::::::::::::::::::::::::::::::::::::::::::::::::::
         :: total energy           -1228.951795274279 Eh    ::
         :: gradient norm              0.124446667335 Eh/a0 ::
         :: HOMO-LUMO gap              0.456094179604 eV    ::
         ::.................................................::
         :: SCC energy             -1252.772028007618 Eh    ::
         :: -> electrostatic           0.755928776668 Eh    ::
         :: repulsion energy          24.361545636268 Eh    ::
         :: dispersion energy         -0.541312902928 Eh    ::
         :: halogen bond corr.         0.000000000000 Eh    ::
         :: add. restraining           0.000000000000 Eh    ::
         :: total charge               0.000000000158 e     ::
         :::::::::::::::::::::::::::::::::::::::::::::::::::::

           ------------------------------------------------- 
          |        vertical delta SCC IP calculation        |
           ------------------------------------------------- 
   1  -1252.3716461 -0.125237E+04  0.916E-02    0.46       0.0  T
   2  -1251.5198819  0.851764E+00  0.537E-01    0.08       1.0  T
   3  -1252.3783782 -0.858496E+00  0.953E-02    0.35       1.0  T
   4  -1252.3866005 -0.822229E-02  0.819E-02    0.38       1.0  T
   5  -1252.3927765 -0.617592E-02  0.420E-02    0.37       1.0  T
   6  -1252.3948891 -0.211262E-02  0.298E-02    0.42       1.0  T
   7  -1252.3980118 -0.312277E-02  0.127E-02    0.41       1.0  T
   8  -1252.3981326 -0.120802E-03  0.102E-02    0.39       1.0  T
   9  -1252.3983592 -0.226528E-03  0.349E-03    0.40       1.1  T
  10  -1252.3983589  0.302471E-06  0.286E-03    0.40       1.4  T
  11  -1252.3983786 -0.196983E-04  0.167E-03    0.40       2.4  T
  12  -1252.3983871 -0.855300E-05  0.652E-04    0.40       6.1  T
  13  -1252.3983880 -0.827291E-06  0.348E-04    0.40      11.4  T
  14  -1252.3983881 -0.125742E-06  0.165E-04    0.40      24.1  T
  15  -1252.3983881  0.199470E-07  0.161E-04    0.40      24.7  T
     SCC iter.                  ...        1 min, 20.369 sec
     gradient                   ...        0 min,  4.587 sec
------------------------------------------------------------------------
empirical IP shift (eV):    4.8455
delta SCC IP (eV):    5.3218
------------------------------------------------------------------------
           ------------------------------------------------- 
          |        vertical delta SCC EA calculation        |
           ------------------------------------------------- 
   1  -1252.9689107 -0.125297E+04  0.210E-01    0.55       0.0  T
   2  -1251.2961727  0.167274E+01  0.715E-01    0.12       1.0  T
   3  -1253.0797279 -0.178356E+01  0.635E-02    0.07       1.0  T
   4  -1253.0568847  0.228432E-01  0.104E-01    0.05       1.0  T
   5  -1253.0599897 -0.310506E-02  0.121E-01    0.07       1.0  T
   6  -1253.0809230 -0.209332E-01  0.541E-02    0.06       1.0  T
   7  -1253.0779167  0.300630E-02  0.584E-02    0.02       1.0  T
   8  -1253.0778132  0.103449E-03  0.545E-02    0.06       1.0  T
   9  -1253.0890604 -0.112472E-01  0.155E-02    0.03       1.0  T
  10  -1253.0893633 -0.302851E-03  0.124E-02    0.02       1.0  T
  11  -1253.0898574 -0.494138E-03  0.485E-03    0.03       1.0  T
  12  -1253.0899332 -0.757961E-04  0.181E-03    0.03       2.2  T
  13  -1253.0899378 -0.457851E-05  0.131E-03    0.03       3.0  T
  14  -1253.0899429 -0.511889E-05  0.501E-04    0.03       7.9  T
  15  -1253.0899423  0.564576E-06  0.592E-04    0.03       6.7  T
  16  -1253.0899436 -0.122011E-05  0.154E-04    0.03      25.7  T
  17  -1253.0899436 -0.630093E-07  0.680E-05    0.03      58.4  T
  18  -1253.0899436 -0.103269E-07  0.447E-05    0.03      88.9  T
     SCC iter.                  ...        1 min, 36.786 sec
     gradient                   ...        0 min,  4.573 sec
------------------------------------------------------------------------
empirical EA shift (eV):    4.8455
delta SCC EA (eV):    3.8054
------------------------------------------------------------------------
           -------------------------------------------------
          |                Property Printout                |
           -------------------------------------------------

    * Orbital Energies and Occupations

         #    Occupation            Energy/Eh            Energy/eV
      -------------------------------------------------------------
         1        2.0000           -1.0399296             -28.2979
       ...           ...                  ...                  ...
       966        2.0000           -0.3665279              -9.9737
       967        2.0000           -0.3664692              -9.9721
       968        2.0000           -0.3602667              -9.8034
       969        2.0000           -0.3571238              -9.7178
       970        2.0000           -0.3548701              -9.6565
       971        2.0000           -0.3518902              -9.5754
       972        2.0000           -0.3478755              -9.4662
       973        2.0000           -0.3437511              -9.3539
       974        2.0000           -0.3418034              -9.3009
       975        2.0000           -0.3400374              -9.2529
       976        2.0000           -0.3370580              -9.1718
       977        1.9997           -0.3178751              -8.6498
       978        0.5487           -0.3021788              -8.2227 (HOMO)
       979        0.2920           -0.3011522              -8.1948 (LUMO)
       980        0.1483           -0.3003330              -8.1725
       981        0.0103           -0.2976541              -8.0996
       982        0.0011           -0.2954970              -8.0409
       983        0.0000           -0.2916559              -7.9364
       984        0.0000           -0.2901471              -7.8953
       985        0.0000           -0.2874414              -7.8217
       986                         -0.2839621              -7.7270
       987                         -0.2827292              -7.6935
       988                         -0.2817999              -7.6682
       989                         -0.2809389              -7.6447
       ...                                ...                  ...
      2492                        561.3381805           15274.7894
      -------------------------------------------------------------
                  HL-Gap            0.0010267 Eh            0.0279 eV
             Fermi-level           -0.3061056 Eh           -8.3296 eV

  Mulliken/CM5 charges         n(s)   n(p)   n(d)
     1C    -0.02468 -0.06567   1.088  2.937  0.000
     2C     0.06154  0.12147   1.106  2.833  0.000
     3C    -0.03371 -0.07906   1.085  2.949  0.000
     4C    -0.02943 -0.07377   1.080  2.950  0.000
     5C     0.06699  0.13045   1.104  2.829  0.000
     6N    -0.16054 -0.51250   1.307  3.854  0.000
     7C     0.01067  0.01827   1.084  2.905  0.000
     8C     0.07083  0.14079   1.133  2.796  0.000
     9C    -0.04277 -0.08533   1.084  2.959  0.000
    10C    -0.06455 -0.06643   1.237  2.828  0.000
    11N    -0.26603 -0.44949   1.328  3.938  0.000
    12C     0.06135  0.12781   1.134  2.805  0.000
    13C    -0.04143 -0.03201   1.144  2.897  0.000
    14C     0.06231  0.12434   1.114  2.823  0.000
    15C    -0.03202 -0.07653   1.104  2.928  0.000
    16C    -0.03133 -0.07581   1.077  2.955  0.000
    17C     0.06722  0.13151   1.102  2.830  0.000
    18C     0.01305  0.02028   1.080  2.907  0.000
    19C    -0.00910 -0.00761   1.052  2.957  0.000
    20C     0.09479  0.11407   1.108  2.797  0.000
    21O    -0.24089 -0.33007   1.604  4.637  0.000
    22C     0.03550 -0.08431   1.107  2.857  0.000
    23C    -0.04343 -0.09366   1.078  2.965  0.000
    24C    -0.03199 -0.08736   1.088  2.944  0.000
    25C    -0.04640 -0.09840   1.047  2.999  0.000
    26C     0.09487  0.11407   1.109  2.796  0.000
    27O    -0.23102 -0.32083   1.613  4.618  0.000
    28C     0.03452 -0.08627   1.108  2.857  0.000
    29C     0.06204  0.13052   1.117  2.821  0.000
    30C    -0.03705 -0.08259   1.084  2.953  0.000
    31C    -0.04012 -0.08641   1.094  2.946  0.000
    32C     0.05831  0.12459   1.125  2.817  0.000
    33N    -0.28625 -0.47660   1.284  4.002  0.000
    34N    -0.16016 -0.51319   1.311  3.849  0.000
    35C    -0.00229 -0.00044   1.065  2.937  0.000
    36C     0.08999  0.10789   1.107  2.803  0.000
    37O    -0.25736 -0.34728   1.599  4.658  0.000
    38C     0.03500 -0.08499   1.110  2.855  0.000
    39C    -0.03835 -0.08891   1.079  2.960  0.000
    40C    -0.03065 -0.08603   1.089  2.942  0.000
    41C    -0.04095 -0.09291   1.052  2.989  0.000
    42C     0.09694  0.11630   1.111  2.792  0.000
    43O    -0.22813 -0.31818   1.613  4.615  0.000
    44C     0.03518 -0.08570   1.107  2.858  0.000
    45H     0.02547  0.08473   0.975  0.000  0.000
    46H     0.03728  0.09399   0.963  0.000  0.000
    47H     0.02905  0.08990   0.971  0.000  0.000
    48H     0.16351  0.37224   0.836  0.000  0.000
    49H     0.01438  0.07363   0.986  0.000  0.000
    50H     0.06847  0.12879   0.932  0.000  0.000
    51H     0.03211  0.08873   0.968  0.000  0.000
    52H     0.03067  0.08909   0.969  0.000  0.000
    53H     0.02759  0.08998   0.972  0.000  0.000
    54H     0.04228  0.10227   0.958  0.000  0.000
    55H     0.02901  0.09071   0.971  0.000  0.000
    56H     0.03364  0.09349   0.966  0.000  0.000
    57H     0.03137  0.08739   0.969  0.000  0.000
    58H     0.03335  0.09296   0.967  0.000  0.000
    59H     0.04490  0.10522   0.955  0.000  0.000
    60H     0.03425  0.09315   0.966  0.000  0.000
    61H     0.03469  0.09356   0.965  0.000  0.000
    62H     0.02164  0.08067   0.978  0.000  0.000
    63H     0.02734  0.08375   0.973  0.000  0.000
    64H     0.16534  0.37530   0.835  0.000  0.000
    65H     0.02948  0.08835   0.971  0.000  0.000
    66H     0.03918  0.09938   0.961  0.000  0.000
    67H     0.02435  0.08714   0.976  0.000  0.000
    68H     0.03468  0.09405   0.965  0.000  0.000
    69H     0.03280  0.08879   0.967  0.000  0.000
    70H     0.03548  0.09511   0.965  0.000  0.000
    71H     0.03473  0.09358   0.965  0.000  0.000
    72H     0.04578  0.10612   0.954  0.000  0.000
    73H     0.03570  0.09464   0.964  0.000  0.000
    74C    -0.02032 -0.06109   1.091  2.929  0.000
    75C     0.06296  0.12337   1.108  2.829  0.000
    76C    -0.03256 -0.07783   1.084  2.948  0.000
    77C    -0.02919 -0.07382   1.078  2.951  0.000
    78C     0.06614  0.12961   1.102  2.831  0.000
    79N    -0.15586 -0.50966   1.305  3.850  0.000
    80C     0.01939  0.02615   1.087  2.893  0.000
    81C     0.06327  0.13100   1.115  2.822  0.000
    82C    -0.03441 -0.08025   1.084  2.950  0.000
    83C    -0.03635 -0.08180   1.092  2.944  0.000
    84N    -0.28015 -0.46736   1.281  3.999  0.000
    85C     0.06538  0.13623   1.131  2.804  0.000
    86C     0.01814  0.02542   1.086  2.896  0.000
    87C     0.06753  0.13246   1.112  2.820  0.000
    88C    -0.03130 -0.07573   1.083  2.949  0.000
    89C    -0.02902 -0.07369   1.077  2.952  0.000
    90C     0.06521  0.12803   1.100  2.835  0.000
    91C     0.01907  0.02587   1.087  2.894  0.000
    92C    -0.01020 -0.00904   1.050  2.960  0.000
    93C     0.09581  0.11511   1.107  2.797  0.000
    94O    -0.23786 -0.32732   1.604  4.633  0.000
    95C     0.03511 -0.08468   1.106  2.859  0.000
    96C    -0.04294 -0.09314   1.078  2.965  0.000
    97C    -0.03095 -0.08633   1.088  2.943  0.000
    98C    -0.04602 -0.09804   1.047  2.999  0.000
    99C     0.09449  0.11363   1.108  2.798  0.000
   100O    -0.23221 -0.32164   1.612  4.620  0.000
   101C     0.03396 -0.08681   1.108  2.858  0.000
   102C     0.06442  0.13346   1.118  2.817  0.000
   103C    -0.03488 -0.08068   1.086  2.949  0.000
   104C    -0.03781 -0.08417   1.094  2.944  0.000
   105C     0.06002  0.12575   1.127  2.813  0.000
   106N    -0.28227 -0.46985   1.281  4.001  0.000
   107N    -0.15381 -0.50689   1.307  3.847  0.000
   108C    -0.00992 -0.00876   1.050  2.959  0.000
   109C     0.09539  0.11463   1.107  2.798  0.000
   110O    -0.23916 -0.32851   1.604  4.635  0.000
   111C     0.03509 -0.08472   1.107  2.858  0.000
   112C    -0.04271 -0.09293   1.078  2.964  0.000
   113C    -0.03084 -0.08621   1.088  2.942  0.000
   114C    -0.04564 -0.09766   1.047  2.998  0.000
   115C     0.09464  0.11377   1.108  2.798  0.000
   116O    -0.23213 -0.32160   1.612  4.620  0.000
   117C     0.03404 -0.08675   1.108  2.858  0.000
   118H     0.03192  0.09084   0.968  0.000  0.000
   119H     0.04150  0.09816   0.959  0.000  0.000
   120H     0.03431  0.09322   0.966  0.000  0.000
   121H     0.16425  0.37260   0.836  0.000  0.000
   122H     0.02573  0.08483   0.974  0.000  0.000
   123H     0.02695  0.08496   0.973  0.000  0.000
   124H     0.03674  0.09477   0.963  0.000  0.000
   125H     0.03480  0.09375   0.965  0.000  0.000
   126H     0.02717  0.08944   0.973  0.000  0.000
   127H     0.04489  0.10504   0.955  0.000  0.000
   128H     0.02956  0.09150   0.970  0.000  0.000
   129H     0.03567  0.09564   0.964  0.000  0.000
   130H     0.03377  0.08979   0.966  0.000  0.000
   131H     0.03543  0.09502   0.965  0.000  0.000
   132H     0.04614  0.10644   0.954  0.000  0.000
   133H     0.03578  0.09470   0.964  0.000  0.000
   134H     0.03641  0.09526   0.964  0.000  0.000
   135H     0.02503  0.08397   0.975  0.000  0.000
   136H     0.03151  0.08791   0.968  0.000  0.000
   137H     0.16335  0.37168   0.837  0.000  0.000
   138H     0.03058  0.09243   0.969  0.000  0.000
   139H     0.04472  0.10484   0.955  0.000  0.000
   140H     0.02609  0.08837   0.974  0.000  0.000
   141H     0.03570  0.09562   0.964  0.000  0.000
   142H     0.03396  0.08997   0.966  0.000  0.000
   143H     0.03569  0.09527   0.964  0.000  0.000
   144H     0.03558  0.09442   0.964  0.000  0.000
   145H     0.04629  0.10659   0.954  0.000  0.000
   146H     0.03693  0.09587   0.963  0.000  0.000
   147C    -0.05673 -0.10595   1.154  2.903  0.000
   148C    -0.02251 -0.02497   1.083  2.939  0.000
   149C    -0.00855 -0.00864   1.084  2.925  0.000
   150C    -0.01581 -0.01582   1.076  2.940  0.000
   151C    -0.01156 -0.01157   1.078  2.933  0.000
   152C    -0.01406 -0.01415   1.075  2.939  0.000
   153C    -0.01702 -0.01774   1.062  2.955  0.000
   154C    -0.01571 -0.01725   1.092  2.924  0.000
   155C    -0.01376 -0.01531   1.093  2.920  0.000
   156C    -0.01779 -0.01851   1.061  2.957  0.000
   157C    -0.01238 -0.01247   1.076  2.936  0.000
   158C    -0.01348 -0.01349   1.076  2.937  0.000
   159C    -0.01414 -0.01415   1.076  2.938  0.000
   160C    -0.01205 -0.01214   1.077  2.935  0.000
   161C    -0.01881 -0.01952   1.060  2.959  0.000
   162C    -0.01381 -0.01535   1.094  2.920  0.000
   163C    -0.01412 -0.01567   1.093  2.921  0.000
   164C    -0.01845 -0.01916   1.060  2.958  0.000
   165C    -0.01272 -0.01281   1.076  2.936  0.000
   166C    -0.01413 -0.01414   1.076  2.938  0.000
   167C    -0.01440 -0.01441   1.076  2.939  0.000
   168C    -0.01264 -0.01273   1.077  2.936  0.000
   169C    -0.01893 -0.01965   1.060  2.959  0.000
   170C    -0.01427 -0.01581   1.094  2.920  0.000
   171C    -0.01409 -0.01563   1.094  2.920  0.000
   172C    -0.01870 -0.01942   1.060  2.958  0.000
   173C    -0.01270 -0.01280   1.077  2.936  0.000
   174C    -0.01436 -0.01437   1.076  2.939  0.000
   175C    -0.01440 -0.01440   1.076  2.939  0.000
   176C    -0.01283 -0.01292   1.077  2.936  0.000
   177C    -0.01893 -0.01964   1.060  2.959  0.000
   178C    -0.01442 -0.01596   1.094  2.921  0.000
   179C    -0.01417 -0.01571   1.094  2.921  0.000
   180C    -0.01884 -0.01956   1.060  2.959  0.000
   181C    -0.01282 -0.01291   1.077  2.936  0.000
   182C    -0.01453 -0.01454   1.076  2.939  0.000
   183C    -0.01453 -0.01454   1.076  2.939  0.000
   184C    -0.01301 -0.01310   1.077  2.936  0.000
   185C    -0.01905 -0.01977   1.060  2.959  0.000
   186C    -0.01460 -0.01614   1.094  2.921  0.000
   187C    -0.01388 -0.01542   1.094  2.920  0.000
   188C    -0.01929 -0.02001   1.060  2.959  0.000
   189C    -0.01247 -0.01256   1.077  2.935  0.000
   190C    -0.01500 -0.01501   1.075  2.940  0.000
   191C    -0.01413 -0.01414   1.076  2.938  0.000
   192C    -0.01352 -0.01361   1.076  2.937  0.000
   193C    -0.01860 -0.01932   1.061  2.958  0.000
   194C    -0.01513 -0.01667   1.093  2.922  0.000
   195C    -0.01208 -0.01362   1.096  2.916  0.000
   196C    -0.01931 -0.02003   1.060  2.960  0.000
   197C    -0.01032 -0.01041   1.078  2.932  0.000
   198C    -0.01473 -0.01474   1.075  2.940  0.000
   199C    -0.01200 -0.01201   1.077  2.935  0.000
   200C    -0.01327 -0.01336   1.076  2.938  0.000
   201C    -0.01692 -0.01765   1.062  2.955  0.000
   202C    -0.01541 -0.01697   1.092  2.923  0.000
   203C     0.01865  0.02596   1.086  2.896  0.000
   204C     0.06767  0.13267   1.111  2.821  0.000
   205C    -0.03201 -0.07640   1.081  2.951  0.000
   206C    -0.02909 -0.07326   1.078  2.951  0.000
   207C     0.06567  0.13008   1.104  2.830  0.000
   208N    -0.15379 -0.50631   1.312  3.842  0.000
   209C     0.02053  0.02948   1.098  2.882  0.000
   210C     0.06284  0.13166   1.122  2.815  0.000
   211C    -0.03450 -0.07971   1.087  2.947  0.000
   212C    -0.03755 -0.08294   1.092  2.946  0.000
   213N    -0.28193 -0.46824   1.292  3.990  0.000
   214C     0.06581  0.13680   1.131  2.803  0.000
   215C     0.01808  0.02538   1.085  2.897  0.000
   216C     0.06744  0.13244   1.111  2.821  0.000
   217C    -0.03242 -0.07684   1.082  2.951  0.000
   218C    -0.02956 -0.07419   1.077  2.953  0.000
   219C     0.06454  0.12745   1.098  2.837  0.000
   220C     0.02145  0.02810   1.088  2.890  0.000
   221C    -0.00992 -0.00882   1.049  2.961  0.000
   222C     0.09474  0.11386   1.107  2.798  0.000
   223O    -0.23200 -0.32140   1.612  4.620  0.000
   224C     0.03422 -0.08655   1.108  2.858  0.000
   225C    -0.04609 -0.09811   1.047  2.999  0.000
   226C    -0.03103 -0.08641   1.088  2.943  0.000
   227C    -0.04308 -0.09328   1.078  2.965  0.000
   228C     0.09624  0.11561   1.107  2.797  0.000
   229O    -0.23734 -0.32685   1.605  4.633  0.000
   230C     0.03543 -0.08438   1.106  2.859  0.000
   231C     0.06290  0.13057   1.114  2.823  0.000
   232C    -0.03465 -0.08050   1.084  2.950  0.000
   233C    -0.03664 -0.08209   1.092  2.944  0.000
   234C     0.06537  0.13624   1.131  2.804  0.000
   235N    -0.27925 -0.46625   1.281  3.999  0.000
   236N    -0.15267 -0.50596   1.306  3.846  0.000
   237C    -0.00862 -0.00618   1.067  2.941  0.000
   238C     0.09566  0.11473   1.105  2.800  0.000
   239O    -0.23102 -0.32086   1.610  4.621  0.000
   240C     0.03442 -0.08642   1.108  2.858  0.000
   241C    -0.04603 -0.09811   1.049  2.997  0.000
   242C    -0.03154 -0.08708   1.090  2.942  0.000
   243C    -0.04578 -0.09786   1.048  2.997  0.000
   244C     0.09651  0.11557   1.105  2.798  0.000
   245O    -0.22981 -0.31989   1.611  4.619  0.000
   246C     0.03466 -0.08618   1.108  2.858  0.000
   247H     0.03656  0.09460   0.963  0.000  0.000
   248H     0.03380  0.09381   0.966  0.000  0.000
   249H     0.16445  0.37260   0.836  0.000  0.000
   250H     0.02401  0.08415   0.976  0.000  0.000
   251H     0.02558  0.08358   0.974  0.000  0.000
   252H     0.03551  0.09351   0.964  0.000  0.000
   253H     0.03379  0.09273   0.966  0.000  0.000
   254H     0.04614  0.10643   0.954  0.000  0.000
   255H     0.03555  0.09439   0.964  0.000  0.000
   256H     0.03611  0.09504   0.964  0.000  0.000
   257H     0.03502  0.09460   0.965  0.000  0.000
   258H     0.03318  0.08920   0.967  0.000  0.000
   259H     0.03513  0.09512   0.965  0.000  0.000
   260H     0.04481  0.10500   0.955  0.000  0.000
   261H     0.02992  0.09189   0.970  0.000  0.000
   262H     0.02691  0.08921   0.973  0.000  0.000
   263H     0.02481  0.08381   0.975  0.000  0.000
   264H     0.02619  0.08413   0.974  0.000  0.000
   265H     0.16507  0.37314   0.835  0.000  0.000
   266H     0.03641  0.09530   0.964  0.000  0.000
   267H     0.03681  0.09569   0.963  0.000  0.000
   268H     0.04808  0.10837   0.952  0.000  0.000
   269H     0.03398  0.09352   0.966  0.000  0.000
   270H     0.03219  0.08820   0.968  0.000  0.000
   271H     0.03412  0.09366   0.966  0.000  0.000
   272H     0.03653  0.09547   0.963  0.000  0.000
   273H     0.04710  0.10741   0.953  0.000  0.000
   274H     0.03575  0.09458   0.964  0.000  0.000
   275C     0.01661  0.02391   1.084  2.899  0.000
   276C     0.06732  0.13236   1.111  2.822  0.000
   277C    -0.03347 -0.07785   1.080  2.953  0.000
   278C    -0.02977 -0.07393   1.078  2.952  0.000
   279C     0.06464  0.12901   1.103  2.832  0.000
   280N    -0.15397 -0.50648   1.312  3.842  0.000
   281C     0.02058  0.02952   1.098  2.881  0.000
   282C     0.06223  0.13104   1.122  2.816  0.000
   283C    -0.03484 -0.08005   1.087  2.948  0.000
   284C    -0.03798 -0.08336   1.091  2.947  0.000
   285N    -0.28223 -0.46851   1.292  3.990  0.000
   286C     0.06562  0.13662   1.131  2.803  0.000
   287C     0.01737  0.02466   1.084  2.898  0.000
   288C     0.06726  0.13228   1.111  2.821  0.000
   289C    -0.03301 -0.07743   1.081  2.952  0.000
   290C    -0.02998 -0.07461   1.076  2.954  0.000
   291C     0.06390  0.12684   1.098  2.839  0.000
   292C     0.02163  0.02828   1.089  2.890  0.000
   293C    -0.00991 -0.00881   1.049  2.961  0.000
   294C     0.09464  0.11379   1.108  2.798  0.000
   295O    -0.23204 -0.32137   1.612  4.620  0.000
   296C     0.03419 -0.08658   1.108  2.858  0.000
   297C    -0.04626 -0.09829   1.047  3.000  0.000
   298C    -0.03116 -0.08654   1.088  2.943  0.000
   299C    -0.04321 -0.09340   1.078  2.965  0.000
   300C     0.09636  0.11574   1.107  2.797  0.000
   301O    -0.23707 -0.32662   1.605  4.632  0.000
   302C     0.03547 -0.08433   1.106  2.859  0.000
   303C     0.06199  0.12950   1.113  2.825  0.000
   304C    -0.03512 -0.08104   1.084  2.951  0.000
   305C    -0.03775 -0.08320   1.092  2.946  0.000
   306C     0.06519  0.13617   1.131  2.804  0.000
   307N    -0.27961 -0.46659   1.280  3.999  0.000
   308N    -0.15276 -0.50602   1.307  3.846  0.000
   309C    -0.00849 -0.00605   1.068  2.941  0.000
   310C     0.09566  0.11471   1.104  2.800  0.000
   311O    -0.23097 -0.32089   1.610  4.621  0.000
   312C     0.03443 -0.08641   1.108  2.858  0.000
   313C    -0.04616 -0.09823   1.049  2.998  0.000
   314C    -0.03169 -0.08723   1.090  2.942  0.000
   315C    -0.04587 -0.09795   1.048  2.997  0.000
   316C     0.09650  0.11556   1.106  2.798  0.000
   317O    -0.22974 -0.31978   1.611  4.619  0.000
   318C     0.03466 -0.08617   1.108  2.857  0.000
   319H     0.03524  0.09329   0.965  0.000  0.000
   320H     0.03296  0.09304   0.967  0.000  0.000
   321H     0.16422  0.37233   0.836  0.000  0.000
   322H     0.02360  0.08370   0.976  0.000  0.000
   323H     0.02514  0.08313   0.975  0.000  0.000
   324H     0.03511  0.09312   0.965  0.000  0.000
   325H     0.03341  0.09235   0.967  0.000  0.000
   326H     0.04606  0.10635   0.954  0.000  0.000
   327H     0.03558  0.09442   0.964  0.000  0.000
   328H     0.03585  0.09478   0.964  0.000  0.000
   329H     0.03483  0.09441   0.965  0.000  0.000
   330H     0.03300  0.08902   0.967  0.000  0.000
   331H     0.03495  0.09496   0.965  0.000  0.000
   332H     0.04460  0.10481   0.955  0.000  0.000
   333H     0.02961  0.09162   0.970  0.000  0.000
   334H     0.02702  0.08933   0.973  0.000  0.000
   335H     0.02417  0.08310   0.976  0.000  0.000
   336H     0.02496  0.08291   0.975  0.000  0.000
   337H     0.16481  0.37285   0.835  0.000  0.000
   338H     0.03634  0.09524   0.964  0.000  0.000
   339H     0.03642  0.09530   0.964  0.000  0.000
   340H     0.04785  0.10814   0.952  0.000  0.000
   341H     0.03370  0.09325   0.966  0.000  0.000
   342H     0.03194  0.08795   0.968  0.000  0.000
   343H     0.03396  0.09350   0.966  0.000  0.000
   344H     0.03652  0.09547   0.963  0.000  0.000
   345H     0.04707  0.10738   0.953  0.000  0.000
   346H     0.03551  0.09434   0.964  0.000  0.000
   347C     0.01665  0.02395   1.084  2.899  0.000
   348C     0.06721  0.13224   1.111  2.822  0.000
   349C    -0.03355 -0.07793   1.080  2.953  0.000
   350C    -0.02993 -0.07409   1.077  2.952  0.000
   351C     0.06455  0.12892   1.103  2.832  0.000
   352N    -0.15400 -0.50652   1.312  3.842  0.000
   353C     0.02046  0.02940   1.098  2.882  0.000
   354C     0.06213  0.13093   1.121  2.816  0.000
   355C    -0.03492 -0.08013   1.087  2.948  0.000
   356C    -0.03808 -0.08347   1.091  2.947  0.000
   357N    -0.28241 -0.46869   1.292  3.990  0.000
   358C     0.06556  0.13656   1.131  2.803  0.000
   359C     0.01705  0.02434   1.084  2.899  0.000
   360C     0.06720  0.13223   1.111  2.821  0.000
   361C    -0.03316 -0.07759   1.081  2.952  0.000
   362C    -0.03009 -0.07471   1.076  2.954  0.000
   363C     0.06376  0.12674   1.097  2.839  0.000
   364C     0.02163  0.02828   1.089  2.890  0.000
   365C    -0.01000 -0.00890   1.049  2.961  0.000
   366C     0.09460  0.11375   1.108  2.798  0.000
   367O    -0.23208 -0.32138   1.612  4.620  0.000
   368C     0.03420 -0.08657   1.108  2.858  0.000
   369C    -0.04639 -0.09841   1.046  3.000  0.000
   370C    -0.03122 -0.08660   1.088  2.943  0.000
   371C    -0.04333 -0.09351   1.078  2.965  0.000
   372C     0.09651  0.11592   1.107  2.797  0.000
   373O    -0.23666 -0.32624   1.605  4.632  0.000
   374C     0.03550 -0.08429   1.105  2.859  0.000
   375C     0.06181  0.12927   1.113  2.825  0.000
   376C    -0.03526 -0.08122   1.084  2.951  0.000
   377C    -0.03782 -0.08328   1.092  2.946  0.000
   378C     0.06515  0.13613   1.131  2.804  0.000
   379N    -0.27960 -0.46661   1.280  3.999  0.000
   380N    -0.15285 -0.50611   1.307  3.846  0.000
   381C    -0.00845 -0.00601   1.068  2.941  0.000
   382C     0.09565  0.11471   1.104  2.800  0.000
   383O    -0.23094 -0.32083   1.610  4.621  0.000
   384C     0.03445 -0.08639   1.108  2.858  0.000
   385C    -0.04618 -0.09826   1.049  2.998  0.000
   386C    -0.03175 -0.08729   1.090  2.942  0.000
   387C    -0.04591 -0.09799   1.048  2.997  0.000
   388C     0.09649  0.11555   1.106  2.798  0.000
   389O    -0.22973 -0.31976   1.611  4.619  0.000
   390C     0.03467 -0.08616   1.108  2.857  0.000
   391H     0.03509  0.09313   0.965  0.000  0.000
   392H     0.03281  0.09287   0.967  0.000  0.000
   393H     0.16416  0.37227   0.836  0.000  0.000
   394H     0.02346  0.08355   0.977  0.000  0.000
   395H     0.02497  0.08297   0.975  0.000  0.000
   396H     0.03496  0.09297   0.965  0.000  0.000
   397H     0.03332  0.09223   0.967  0.000  0.000
   398H     0.04603  0.10632   0.954  0.000  0.000
   399H     0.03551  0.09436   0.964  0.000  0.000
   400H     0.03580  0.09472   0.964  0.000  0.000
   401H     0.03473  0.09430   0.965  0.000  0.000
   402H     0.03289  0.08891   0.967  0.000  0.000
   403H     0.03484  0.09487   0.965  0.000  0.000
   404H     0.04463  0.10486   0.955  0.000  0.000
   405H     0.02955  0.09160   0.970  0.000  0.000
   406H     0.02718  0.08948   0.973  0.000  0.000
   407H     0.02401  0.08290   0.976  0.000  0.000
   408H     0.02485  0.08280   0.975  0.000  0.000
   409H     0.16478  0.37282   0.835  0.000  0.000
   410H     0.03628  0.09517   0.964  0.000  0.000
   411H     0.03637  0.09525   0.964  0.000  0.000
   412H     0.04783  0.10813   0.952  0.000  0.000
   413H     0.03362  0.09316   0.966  0.000  0.000
   414H     0.03182  0.08784   0.968  0.000  0.000
   415H     0.03386  0.09340   0.966  0.000  0.000
   416H     0.03645  0.09540   0.964  0.000  0.000
   417H     0.04703  0.10734   0.953  0.000  0.000
   418H     0.03546  0.09429   0.965  0.000  0.000
   419C     0.01667  0.02397   1.084  2.899  0.000
   420C     0.06720  0.13224   1.111  2.822  0.000
   421C    -0.03354 -0.07792   1.080  2.953  0.000
   422C    -0.02995 -0.07411   1.077  2.952  0.000
   423C     0.06452  0.12890   1.103  2.832  0.000
   424N    -0.15403 -0.50654   1.312  3.842  0.000
   425C     0.02041  0.02936   1.098  2.882  0.000
   426C     0.06208  0.13088   1.121  2.817  0.000
   427C    -0.03497 -0.08018   1.087  2.948  0.000
   428C    -0.03814 -0.08352   1.091  2.947  0.000
   429N    -0.28247 -0.46875   1.292  3.990  0.000
   430C     0.06551  0.13651   1.131  2.803  0.000
   431C     0.01695  0.02424   1.084  2.899  0.000
   432C     0.06715  0.13217   1.111  2.821  0.000
   433C    -0.03324 -0.07766   1.081  2.952  0.000
   434C    -0.03018 -0.07479   1.076  2.954  0.000
   435C     0.06371  0.12672   1.098  2.839  0.000
   436C     0.02160  0.02823   1.089  2.890  0.000
   437C    -0.01011 -0.00901   1.049  2.961  0.000
   438C     0.09455  0.11371   1.107  2.798  0.000
   439O    -0.23213 -0.32142   1.612  4.620  0.000
   440C     0.03419 -0.08657   1.108  2.858  0.000
   441C    -0.04651 -0.09853   1.046  3.000  0.000
   442C    -0.03126 -0.08664   1.088  2.943  0.000
   443C    -0.04344 -0.09361   1.078  2.965  0.000
   444C     0.09665  0.11610   1.107  2.797  0.000
   445O    -0.23625 -0.32587   1.605  4.631  0.000
   446C     0.03552 -0.08426   1.105  2.859  0.000
   447C     0.06174  0.12914   1.113  2.826  0.000
   448C    -0.03531 -0.08130   1.084  2.951  0.000
   449C    -0.03782 -0.08329   1.092  2.946  0.000
   450C     0.06514  0.13613   1.131  2.804  0.000
   451N    -0.27962 -0.46666   1.280  3.999  0.000
   452N    -0.15287 -0.50611   1.307  3.846  0.000
   453C    -0.00844 -0.00600   1.068  2.941  0.000
   454C     0.09566  0.11471   1.104  2.800  0.000
   455O    -0.23093 -0.32082   1.610  4.621  0.000
   456C     0.03445 -0.08639   1.108  2.858  0.000
   457C    -0.04619 -0.09827   1.049  2.998  0.000
   458C    -0.03177 -0.08731   1.090  2.942  0.000
   459C    -0.04592 -0.09800   1.048  2.997  0.000
   460C     0.09648  0.11555   1.105  2.798  0.000
   461O    -0.22973 -0.31975   1.611  4.619  0.000
   462C     0.03468 -0.08616   1.108  2.857  0.000
   463H     0.03509  0.09313   0.965  0.000  0.000
   464H     0.03278  0.09284   0.967  0.000  0.000
   465H     0.16412  0.37224   0.836  0.000  0.000
   466H     0.02338  0.08347   0.977  0.000  0.000
   467H     0.02489  0.08288   0.975  0.000  0.000
   468H     0.03489  0.09291   0.965  0.000  0.000
   469H     0.03328  0.09218   0.967  0.000  0.000
   470H     0.04603  0.10632   0.954  0.000  0.000
   471H     0.03547  0.09432   0.965  0.000  0.000
   472H     0.03578  0.09470   0.964  0.000  0.000
   473H     0.03465  0.09423   0.965  0.000  0.000
   474H     0.03282  0.08884   0.967  0.000  0.000
   475H     0.03477  0.09482   0.965  0.000  0.000
   476H     0.04468  0.10493   0.955  0.000  0.000
   477H     0.02950  0.09160   0.970  0.000  0.000
   478H     0.02737  0.08966   0.973  0.000  0.000
   479H     0.02395  0.08281   0.976  0.000  0.000
   480H     0.02480  0.08276   0.975  0.000  0.000
   481H     0.16477  0.37282   0.835  0.000  0.000
   482H     0.03624  0.09513   0.964  0.000  0.000
   483H     0.03638  0.09526   0.964  0.000  0.000
   484H     0.04783  0.10812   0.952  0.000  0.000
   485H     0.03360  0.09314   0.966  0.000  0.000
   486H     0.03178  0.08780   0.968  0.000  0.000
   487H     0.03382  0.09336   0.966  0.000  0.000
   488H     0.03641  0.09535   0.964  0.000  0.000
   489H     0.04701  0.10732   0.953  0.000  0.000
   490H     0.03545  0.09428   0.965  0.000  0.000
   491C     0.01655  0.02385   1.084  2.899  0.000
   492C     0.06714  0.13218   1.111  2.822  0.000
   493C    -0.03365 -0.07803   1.080  2.954  0.000
   494C    -0.03006 -0.07422   1.077  2.953  0.000
   495C     0.06440  0.12877   1.103  2.832  0.000
   496N    -0.15406 -0.50658   1.312  3.842  0.000
   497C     0.02034  0.02929   1.098  2.882  0.000
   498C     0.06193  0.13073   1.121  2.817  0.000
   499C    -0.03507 -0.08028   1.087  2.948  0.000
   500C    -0.03834 -0.08373   1.091  2.947  0.000
   501N    -0.28265 -0.46893   1.292  3.990  0.000
   502C     0.06543  0.13642   1.131  2.804  0.000
   503C     0.01643  0.02372   1.084  2.900  0.000
   504C     0.06704  0.13207   1.111  2.822  0.000
   505C    -0.03356 -0.07798   1.081  2.953  0.000
   506C    -0.03035 -0.07497   1.076  2.954  0.000
   507C     0.06351  0.12654   1.097  2.839  0.000
   508C     0.02156  0.02819   1.089  2.890  0.000
   509C    -0.01016 -0.00906   1.049  2.961  0.000
   510C     0.09452  0.11368   1.107  2.798  0.000
   511O    -0.23215 -0.32143   1.612  4.620  0.000
   512C     0.03419 -0.08657   1.108  2.858  0.000
   513C    -0.04662 -0.09864   1.046  3.000  0.000
   514C    -0.03132 -0.08670   1.088  2.943  0.000
   515C    -0.04354 -0.09371   1.078  2.965  0.000
   516C     0.09674  0.11621   1.107  2.796  0.000
   517O    -0.23600 -0.32565   1.605  4.631  0.000
   518C     0.03553 -0.08424   1.105  2.859  0.000
   519C     0.06157  0.12894   1.113  2.826  0.000
   520C    -0.03542 -0.08143   1.084  2.951  0.000
   521C    -0.03791 -0.08338   1.092  2.946  0.000
   522C     0.06511  0.13609   1.131  2.804  0.000
   523N    -0.27968 -0.46674   1.280  3.999  0.000
   524N    -0.15297 -0.50619   1.307  3.846  0.000
   525C    -0.00842 -0.00597   1.068  2.941  0.000
   526C     0.09565  0.11471   1.105  2.800  0.000
   527O    -0.23091 -0.32081   1.610  4.621  0.000
   528C     0.03446 -0.08638   1.108  2.858  0.000
   529C    -0.04621 -0.09828   1.049  2.998  0.000
   530C    -0.03181 -0.08734   1.090  2.942  0.000
   531C    -0.04595 -0.09803   1.048  2.998  0.000
   532C     0.09647  0.11554   1.105  2.798  0.000
   533O    -0.22973 -0.31975   1.611  4.619  0.000
   534C     0.03468 -0.08616   1.108  2.857  0.000
   535H     0.03501  0.09304   0.965  0.000  0.000
   536H     0.03268  0.09274   0.967  0.000  0.000
   537H     0.16404  0.37215   0.836  0.000  0.000
   538H     0.02321  0.08330   0.977  0.000  0.000
   539H     0.02462  0.08261   0.975  0.000  0.000
   540H     0.03458  0.09259   0.965  0.000  0.000
   541H     0.03307  0.09196   0.967  0.000  0.000
   542H     0.04601  0.10630   0.954  0.000  0.000
   543H     0.03537  0.09422   0.965  0.000  0.000
   544H     0.03577  0.09469   0.964  0.000  0.000
   545H     0.03456  0.09413   0.965  0.000  0.000
   546H     0.03270  0.08872   0.967  0.000  0.000
   547H     0.03466  0.09472   0.965  0.000  0.000
   548H     0.04466  0.10492   0.955  0.000  0.000
   549H     0.02948  0.09162   0.971  0.000  0.000
   550H     0.02747  0.08976   0.973  0.000  0.000
   551H     0.02382  0.08266   0.976  0.000  0.000
   552H     0.02470  0.08265   0.975  0.000  0.000
   553H     0.16472  0.37277   0.835  0.000  0.000
   554H     0.03616  0.09506   0.964  0.000  0.000
   555H     0.03639  0.09527   0.964  0.000  0.000
   556H     0.04781  0.10810   0.952  0.000  0.000
   557H     0.03355  0.09310   0.966  0.000  0.000
   558H     0.03172  0.08773   0.968  0.000  0.000
   559H     0.03375  0.09328   0.966  0.000  0.000
   560H     0.03631  0.09526   0.964  0.000  0.000
   561H     0.04695  0.10726   0.953  0.000  0.000
   562H     0.03543  0.09427   0.965  0.000  0.000
   563C     0.01721  0.02451   1.085  2.898  0.000
   564C     0.06721  0.13224   1.111  2.822  0.000
   565C    -0.03332 -0.07770   1.080  2.953  0.000
   566C    -0.02994 -0.07410   1.077  2.953  0.000
   567C     0.06471  0.12909   1.104  2.832  0.000
   568N    -0.15390 -0.50641   1.312  3.841  0.000
   569C     0.02018  0.02913   1.098  2.882  0.000
   570C     0.06230  0.13117   1.122  2.816  0.000
   571C    -0.03479 -0.08000   1.087  2.947  0.000
   572C    -0.03824 -0.08364   1.091  2.947  0.000
   573N    -0.28293 -0.46921   1.292  3.991  0.000
   574C     0.06546  0.13638   1.131  2.804  0.000
   575C     0.01576  0.02306   1.083  2.901  0.000
   576C     0.06706  0.13206   1.111  2.822  0.000
   577C    -0.03369 -0.07811   1.081  2.953  0.000
   578C    -0.03026 -0.07487   1.076  2.954  0.000
   579C     0.06363  0.12668   1.098  2.839  0.000
   580C     0.02151  0.02814   1.089  2.890  0.000
   581C    -0.01024 -0.00914   1.049  2.962  0.000
   582C     0.09449  0.11364   1.107  2.798  0.000
   583O    -0.23220 -0.32148   1.612  4.620  0.000
   584C     0.03415 -0.08661   1.108  2.858  0.000
   585C    -0.04665 -0.09867   1.046  3.000  0.000
   586C    -0.03133 -0.08671   1.088  2.943  0.000
   587C    -0.04359 -0.09375   1.078  2.965  0.000
   588C     0.09674  0.11621   1.107  2.796  0.000
   589O    -0.23593 -0.32559   1.605  4.631  0.000
   590C     0.03548 -0.08430   1.105  2.859  0.000
   591C     0.06169  0.12907   1.113  2.826  0.000
   592C    -0.03542 -0.08143   1.084  2.951  0.000
   593C    -0.03773 -0.08320   1.092  2.946  0.000
   594C     0.06514  0.13610   1.131  2.804  0.000
   595N    -0.27944 -0.46653   1.280  3.999  0.000
   596N    -0.15322 -0.50641   1.306  3.847  0.000
   597C    -0.00852 -0.00608   1.068  2.941  0.000
   598C     0.09564  0.11471   1.105  2.800  0.000
   599O    -0.23098 -0.32086   1.610  4.621  0.000
   600C     0.03442 -0.08642   1.108  2.858  0.000
   601C    -0.04612 -0.09820   1.049  2.997  0.000
   602C    -0.03170 -0.08723   1.090  2.942  0.000
   603C    -0.04590 -0.09798   1.048  2.997  0.000
   604C     0.09642  0.11548   1.105  2.798  0.000
   605O    -0.22985 -0.31989   1.611  4.619  0.000
   606C     0.03463 -0.08621   1.108  2.857  0.000
   607H     0.03541  0.09345   0.965  0.000  0.000
   608H     0.03298  0.09303   0.967  0.000  0.000
   609H     0.16409  0.37221   0.836  0.000  0.000
   610H     0.02358  0.08370   0.976  0.000  0.000
   611H     0.02475  0.08275   0.975  0.000  0.000
   612H     0.03432  0.09233   0.966  0.000  0.000
   613H     0.03308  0.09197   0.967  0.000  0.000
   614H     0.04608  0.10637   0.954  0.000  0.000
   615H     0.03529  0.09414   0.965  0.000  0.000
   616H     0.03596  0.09489   0.964  0.000  0.000
   617H     0.03463  0.09421   0.965  0.000  0.000
   618H     0.03279  0.08881   0.967  0.000  0.000
   619H     0.03472  0.09478   0.965  0.000  0.000
   620H     0.04478  0.10504   0.955  0.000  0.000
   621H     0.02964  0.09179   0.970  0.000  0.000
   622H     0.02746  0.08973   0.973  0.000  0.000
   623H     0.02400  0.08284   0.976  0.000  0.000
   624H     0.02503  0.08298   0.975  0.000  0.000
   625H     0.16484  0.37290   0.835  0.000  0.000
   626H     0.03626  0.09516   0.964  0.000  0.000
   627H     0.03657  0.09545   0.963  0.000  0.000
   628H     0.04787  0.10816   0.952  0.000  0.000
   629H     0.03377  0.09331   0.966  0.000  0.000
   630H     0.03197  0.08799   0.968  0.000  0.000
   631H     0.03390  0.09344   0.966  0.000  0.000
   632H     0.03636  0.09531   0.964  0.000  0.000
   633H     0.04688  0.10719   0.953  0.000  0.000
   634H     0.03560  0.09443   0.964  0.000  0.000

Wiberg/Mayer (AO) data.
largest (>0.10) Wiberg bond orders for each atom

 ---------------------------------------------------------------------------
     #   Z sym  total        # sym  WBO       # sym  WBO       # sym  WBO
 ---------------------------------------------------------------------------
     1   6 C    3.839 --     2 C    1.390    32 C    1.373    45 H    0.996
     2   6 C    3.921 --     1 C    1.390     3 C    1.229     6 N    1.225
     3   6 C    3.850 --     4 C    1.613     2 C    1.229    46 H    0.993
     4   6 C    3.827 --     3 C    1.613     5 C    1.240    47 H    1.000
     5   6 C    3.924 --     7 C    1.367     4 C    1.240     6 N    1.221
     6   7 N    3.219 --     2 C    1.225     5 C    1.221    48 H    0.959
     7   6 C    3.798 --     5 C    1.367     8 C    1.322    35 C    1.055
     8   6 C    3.956 --    11 N    1.398     7 C    1.322     9 C    1.156
     9   6 C    3.841 --    10 C    1.718     8 C    1.156    49 H    0.999
    10   6 C    3.447 --     9 C    1.718    12 C    1.112    13 C    0.377
    11   7 N    2.565 --     8 C    1.398    12 C    1.228
    12   6 C    3.968 --    13 C    1.585    11 N    1.228    10 C    1.112
    13   6 C    3.625 --    12 C    1.585    14 C    1.434    10 C    0.377
    14   6 C    3.930 --    13 C    1.434    15 C    1.233    34 N    1.179
    15   6 C    3.881 --    16 C    1.602    14 C    1.233    51 H    0.994
    16   6 C    3.826 --    15 C    1.602    17 C    1.248    52 H    0.997
    17   6 C    3.904 --    18 C    1.338    16 C    1.248    34 N    1.239
    18   6 C    3.780 --    29 C    1.367    17 C    1.338    19 C    1.037
    19   6 C    3.818 --    20 C    1.406    26 C    1.353    18 C    1.037
    20   6 C    3.923 --    19 C    1.406    23 C    1.366    21 O    1.111
    21   8 O    2.163 --    20 C    1.111    22 C    0.975
    22   6 C    3.894 --    55 H    1.003    53 H    0.999    54 H    0.984
                            21 O    0.975
    23   6 C    3.899 --    24 C    1.465    20 C    1.366    56 H    0.984
    24   6 C    3.918 --    23 C    1.465    25 C    1.416    57 H    0.985
    25   6 C    3.828 --    24 C    1.416    26 C    1.407    58 H    0.988
    26   6 C    3.922 --    25 C    1.407    19 C    1.353    27 O    1.119
    27   8 O    2.196 --    26 C    1.119    28 C    0.983
    28   6 C    3.913 --    60 H    0.996    61 H    0.996    59 H    0.986
                            27 O    0.983
    29   6 C    3.945 --    18 C    1.367    33 N    1.364    30 C    1.159
    30   6 C    3.837 --    31 C    1.701    29 C    1.159    62 H    0.999
    31   6 C    3.864 --    30 C    1.701    32 C    1.148    63 H    0.995
    32   6 C    3.960 --    33 N    1.384     1 C    1.373    31 C    1.148
    33   7 N    2.528 --    32 C    1.384    29 C    1.364
    34   7 N    3.206 --    17 C    1.239    14 C    1.179    64 H    0.952
    35   6 C    3.842 --    36 C    1.406    42 C    1.354     7 C    1.055
    36   6 C    3.920 --    35 C    1.406    39 C    1.401    37 O    1.071
    37   8 O    2.069 --    36 C    1.071    38 C    0.967
    38   6 C    3.903 --    67 H    0.999    65 H    0.994    66 H    0.989
                            37 O    0.967
    39   6 C    3.891 --    40 C    1.445    36 C    1.401    68 H    0.987
    40   6 C    3.914 --    39 C    1.445    41 C    1.431    69 H    0.985
    41   6 C    3.836 --    40 C    1.431    42 C    1.401    70 H    0.988
    42   6 C    3.925 --    41 C    1.401    35 C    1.354    43 O    1.124
    43   8 O    2.202 --    42 C    1.124    44 C    0.982
    44   6 C    3.909 --    73 H    0.996    71 H    0.996    72 H    0.986
                            43 O    0.982
    45   1 H    1.034 --     1 C    0.996
    46   1 H    1.016 --     3 C    0.993
    47   1 H    1.036 --     4 C    1.000
    48   1 H    1.078 --     6 N    0.959
    49   1 H    1.044 --     9 C    0.999
    50   1 H    1.011 --   147 C    0.925
    51   1 H    1.026 --    15 C    0.994
    52   1 H    1.031 --    16 C    0.997
    53   1 H    1.046 --    22 C    0.999
    54   1 H    1.041 --    22 C    0.984
    55   1 H    1.041 --    22 C    1.003
    56   1 H    1.026 --    23 C    0.984
    57   1 H    1.021 --    24 C    0.985
    58   1 H    1.020 --    25 C    0.988
    59   1 H    1.040 --    28 C    0.986
    60   1 H    1.028 --    28 C    0.996
    61   1 H    1.029 --    28 C    0.996
    62   1 H    1.033 --    30 C    0.999
    63   1 H    1.015 --    31 C    0.995
    64   1 H    1.078 --    34 N    0.952
    65   1 H    1.033 --    38 C    0.994
    66   1 H    1.050 --    38 C    0.989
    67   1 H    1.049 --    38 C    0.999
    68   1 H    1.026 --    39 C    0.987
    69   1 H    1.019 --    40 C    0.985
    70   1 H    1.020 --    41 C    0.988
    71   1 H    1.027 --    44 C    0.996
    72   1 H    1.041 --    44 C    0.986
    73   1 H    1.028 --    44 C    0.996
    74   6 C    3.824 --   105 C    1.385    75 C    1.377   118 H    0.996
    75   6 C    3.924 --    74 C    1.377    76 C    1.239    79 N    1.230
    76   6 C    3.844 --    77 C    1.604    75 C    1.239   119 H    0.993
    77   6 C    3.827 --    76 C    1.604    78 C    1.248   120 H    0.998
    78   6 C    3.900 --    80 C    1.350    77 C    1.248    79 N    1.228
    79   7 N    3.227 --    75 C    1.230    78 C    1.228   121 H    0.962
    80   6 C    3.820 --    81 C    1.376    78 C    1.350   108 C    1.028
    81   6 C    3.920 --    80 C    1.376    84 N    1.353    82 C    1.160
    82   6 C    3.834 --    83 C    1.695    81 C    1.160   122 H    0.998
    83   6 C    3.852 --    82 C    1.695    85 C    1.165   123 H    1.000
    84   7 N    2.528 --    85 C    1.410    81 C    1.353
    85   6 C    3.942 --    84 N    1.410    86 C    1.290    83 C    1.165
    86   6 C    3.860 --    87 C    1.293    85 C    1.290   202 C    1.216
    87   6 C    3.903 --    86 C    1.293    88 C    1.263   107 N    1.249
    88   6 C    3.839 --    89 C    1.592    87 C    1.263   124 H    0.999
    89   6 C    3.821 --    88 C    1.592    90 C    1.254   125 H    0.997
    90   6 C    3.895 --    91 C    1.357    89 C    1.254   107 N    1.218
    91   6 C    3.807 --   102 C    1.362    90 C    1.357    92 C    1.027
    92   6 C    3.813 --    93 C    1.409    99 C    1.354    91 C    1.027
    93   6 C    3.921 --    92 C    1.409    96 C    1.360    94 O    1.115
    94   8 O    2.175 --    93 C    1.115    95 C    0.976
    95   6 C    3.890 --   128 H    1.003   126 H    0.999   127 H    0.983
                            94 O    0.976
    96   6 C    3.899 --    97 C    1.469    93 C    1.360   129 H    0.984
    97   6 C    3.919 --    96 C    1.469    98 C    1.414   130 H    0.985
    98   6 C    3.827 --    97 C    1.414    99 C    1.408   131 H    0.987
    99   6 C    3.921 --    98 C    1.408    92 C    1.354   100 O    1.118
   100   8 O    2.193 --    99 C    1.118   101 C    0.983
   101   6 C    3.912 --   133 H    0.996   134 H    0.996   132 H    0.986
                           100 O    0.983
   102   6 C    3.939 --   106 N    1.379    91 C    1.362   103 C    1.153
   103   6 C    3.839 --   104 C    1.707   102 C    1.153   135 H    0.999
   104   6 C    3.862 --   103 C    1.707   105 C    1.148   136 H    0.994
   105   6 C    3.966 --    74 C    1.385   106 N    1.373   104 C    1.148
   106   7 N    2.516 --   102 C    1.379   105 C    1.373
   107   7 N    3.236 --    87 C    1.249    90 C    1.218   137 H    0.960
   108   6 C    3.814 --   109 C    1.409   115 C    1.355    80 C    1.028
   109   6 C    3.921 --   108 C    1.409   112 C    1.362   110 O    1.113
   110   8 O    2.170 --   109 C    1.113   111 C    0.976
   111   6 C    3.890 --   138 H    1.003   140 H    0.999   139 H    0.983
                           110 O    0.976
   112   6 C    3.899 --   113 C    1.468   109 C    1.362   141 H    0.984
   113   6 C    3.919 --   112 C    1.468   114 C    1.415   142 H    0.985
   114   6 C    3.827 --   113 C    1.415   115 C    1.407   143 H    0.987
   115   6 C    3.921 --   114 C    1.407   108 C    1.355   116 O    1.119
   116   8 O    2.193 --   115 C    1.119   117 C    0.982
   117   6 C    3.911 --   146 H    0.996   144 H    0.996   145 H    0.986
                           116 O    0.982
   118   1 H    1.028 --    74 C    0.996
   119   1 H    1.013 --    76 C    0.993
   120   1 H    1.030 --    77 C    0.998
   121   1 H    1.080 --    79 N    0.962
   122   1 H    1.034 --    82 C    0.998
   123   1 H    1.027 --    83 C    1.000
   124   1 H    1.025 --    88 C    0.999
   125   1 H    1.030 --    89 C    0.997
   126   1 H    1.046 --    95 C    0.999
   127   1 H    1.041 --    95 C    0.983
   128   1 H    1.044 --    95 C    1.003
   129   1 H    1.024 --    96 C    0.984
   130   1 H    1.020 --    97 C    0.985
   131   1 H    1.019 --    98 C    0.987
   132   1 H    1.037 --   101 C    0.986
   133   1 H    1.027 --   101 C    0.996
   134   1 H    1.027 --   101 C    0.996
   135   1 H    1.034 --   103 C    0.999
   136   1 H    1.014 --   104 C    0.994
   137   1 H    1.081 --   107 N    0.960
   138   1 H    1.043 --   111 C    1.003
   139   1 H    1.041 --   111 C    0.983
   140   1 H    1.046 --   111 C    0.999
   141   1 H    1.024 --   112 C    0.984
   142   1 H    1.020 --   113 C    0.985
   143   1 H    1.019 --   114 C    0.987
   144   1 H    1.028 --   117 C    0.996
   145   1 H    1.037 --   117 C    0.986
   146   1 H    1.027 --   117 C    0.996
   147   6 C    3.763 --   148 C    2.677    50 H    0.925   150 C    0.194
   148   6 C    3.933 --   147 C    2.677   149 C    1.295
   149   6 C    3.807 --   150 C    2.422   148 C    1.295   152 C    0.172
   150   6 C    3.909 --   149 C    2.422   151 C    1.358   147 C    0.194
   151   6 C    3.846 --   152 C    2.381   150 C    1.358   154 C    0.173
   152   6 C    3.832 --   151 C    2.381   153 C    1.348   149 C    0.172
   153   6 C    3.813 --   154 C    2.481   152 C    1.348
   154   6 C    3.771 --   153 C    2.481   203 C    1.216   151 C    0.173
   155   6 C    3.757 --   156 C    2.459   215 C    1.226   158 C    0.168
   156   6 C    3.811 --   155 C    2.459   157 C    1.367
   157   6 C    3.804 --   158 C    2.341   156 C    1.367   160 C    0.163
   158   6 C    3.840 --   157 C    2.341   159 C    1.394   155 C    0.168
   159   6 C    3.839 --   160 C    2.340   158 C    1.394   162 C    0.168
   160   6 C    3.805 --   159 C    2.340   161 C    1.368   157 C    0.163
   161   6 C    3.809 --   162 C    2.457   160 C    1.368
   162   6 C    3.757 --   161 C    2.457   275 C    1.228   159 C    0.168
   163   6 C    3.757 --   164 C    2.456   287 C    1.228   166 C    0.167
   164   6 C    3.809 --   163 C    2.456   165 C    1.369
   165   6 C    3.803 --   166 C    2.338   164 C    1.369   168 C    0.162
   166   6 C    3.838 --   165 C    2.338   167 C    1.396   163 C    0.167
   167   6 C    3.838 --   168 C    2.338   166 C    1.396   170 C    0.167
   168   6 C    3.803 --   167 C    2.338   169 C    1.369   165 C    0.162
   169   6 C    3.808 --   170 C    2.455   168 C    1.369
   170   6 C    3.757 --   169 C    2.455   347 C    1.229   167 C    0.167
   171   6 C    3.757 --   172 C    2.456   359 C    1.228   174 C    0.167
   172   6 C    3.808 --   171 C    2.456   173 C    1.369
   173   6 C    3.803 --   174 C    2.338   172 C    1.369   176 C    0.162
   174   6 C    3.838 --   173 C    2.338   175 C    1.396   171 C    0.167
   175   6 C    3.838 --   176 C    2.338   174 C    1.396   178 C    0.167
   176   6 C    3.803 --   175 C    2.338   177 C    1.369   173 C    0.162
   177   6 C    3.808 --   178 C    2.455   176 C    1.369
   178   6 C    3.757 --   177 C    2.455   419 C    1.229   175 C    0.167
   179   6 C    3.757 --   180 C    2.455   431 C    1.229   182 C    0.167
   180   6 C    3.808 --   179 C    2.455   181 C    1.369
   181   6 C    3.803 --   182 C    2.338   180 C    1.369   184 C    0.162
   182   6 C    3.838 --   181 C    2.338   183 C    1.396   179 C    0.167
   183   6 C    3.838 --   184 C    2.338   182 C    1.396   186 C    0.167
   184   6 C    3.803 --   183 C    2.338   185 C    1.370   181 C    0.162
   185   6 C    3.808 --   186 C    2.455   184 C    1.370
   186   6 C    3.756 --   185 C    2.455   491 C    1.229   183 C    0.167
   187   6 C    3.757 --   188 C    2.455   503 C    1.229   190 C    0.167
   188   6 C    3.808 --   187 C    2.455   189 C    1.370
   189   6 C    3.803 --   190 C    2.337   188 C    1.370   192 C    0.162
   190   6 C    3.838 --   189 C    2.337   191 C    1.396   187 C    0.167
   191   6 C    3.838 --   192 C    2.338   190 C    1.396   194 C    0.167
   192   6 C    3.803 --   191 C    2.338   193 C    1.369   189 C    0.162
   193   6 C    3.808 --   194 C    2.455   192 C    1.369
   194   6 C    3.756 --   193 C    2.455   563 C    1.229   191 C    0.167
   195   6 C    3.759 --   196 C    2.464   575 C    1.221   198 C    0.168
   196   6 C    3.809 --   195 C    2.464   197 C    1.361
   197   6 C    3.806 --   198 C    2.349   196 C    1.361   200 C    0.163
   198   6 C    3.838 --   197 C    2.349   199 C    1.387   195 C    0.168
   199   6 C    3.842 --   200 C    2.351   198 C    1.387   202 C    0.169
   200   6 C    3.803 --   199 C    2.351   201 C    1.358   197 C    0.163
   201   6 C    3.815 --   202 C    2.471   200 C    1.358
   202   6 C    3.756 --   201 C    2.471    86 C    1.216   199 C    0.169
   203   6 C    3.847 --   234 C    1.291   204 C    1.290   154 C    1.216
   204   6 C    3.907 --   203 C    1.290   205 C    1.266   208 N    1.251
   205   6 C    3.836 --   206 C    1.586   204 C    1.266   247 H    0.999
   206   6 C    3.826 --   205 C    1.586   207 C    1.257   248 H    0.999
   207   6 C    3.902 --   209 C    1.344   206 C    1.257   208 N    1.225
   208   7 N    3.249 --   204 C    1.251   207 C    1.225   249 H    0.961
   209   6 C    3.837 --   210 C    1.377   207 C    1.344   237 C    1.038
   210   6 C    3.934 --   209 C    1.377   213 N    1.351   211 C    1.158
   211   6 C    3.844 --   212 C    1.695   210 C    1.158   250 H    0.999
   212   6 C    3.854 --   211 C    1.695   214 C    1.165   251 H    1.000
   213   7 N    2.557 --   214 C    1.417   210 C    1.351
   214   6 C    3.942 --   213 N    1.417   215 C    1.285   212 C    1.165
   215   6 C    3.847 --   216 C    1.285   214 C    1.285   155 C    1.226
   216   6 C    3.903 --   215 C    1.285   217 C    1.269   236 N    1.250
   217   6 C    3.835 --   218 C    1.585   216 C    1.269   252 H    0.999
   218   6 C    3.821 --   217 C    1.585   219 C    1.260   253 H    0.998
   219   6 C    3.889 --   220 C    1.348   218 C    1.260   236 N    1.219
   220   6 C    3.809 --   231 C    1.377   219 C    1.348   221 C    1.026
   221   6 C    3.811 --   228 C    1.410   222 C    1.354   220 C    1.026
   222   6 C    3.920 --   225 C    1.408   221 C    1.354   223 O    1.118
   223   8 O    2.193 --   222 C    1.118   224 C    0.983
   224   6 C    3.913 --   256 H    0.996   255 H    0.996   254 H    0.986
                           223 O    0.983
   225   6 C    3.826 --   226 C    1.413   222 C    1.408   257 H    0.987
   226   6 C    3.920 --   227 C    1.470   225 C    1.413   258 H    0.985
   227   6 C    3.899 --   226 C    1.470   228 C    1.358   259 H    0.984
   228   6 C    3.921 --   221 C    1.410   227 C    1.358   229 O    1.117
   229   8 O    2.179 --   228 C    1.117   230 C    0.977
   230   6 C    3.888 --   261 H    1.002   262 H    0.999   260 H    0.983
                           229 O    0.977
   231   6 C    3.920 --   220 C    1.377   235 N    1.352   232 C    1.160
   232   6 C    3.837 --   233 C    1.694   231 C    1.160   263 H    0.998
   233   6 C    3.852 --   232 C    1.694   234 C    1.166   264 H    1.000
   234   6 C    3.945 --   235 N    1.410   203 C    1.291   233 C    1.166
   235   7 N    2.515 --   234 C    1.410   231 C    1.352
   236   7 N    3.232 --   216 C    1.250   219 C    1.219   265 H    0.961
   237   6 C    3.863 --   238 C    1.377   244 C    1.376   209 C    1.038
   238   6 C    3.915 --   241 C    1.388   237 C    1.377   239 O    1.118
   239   8 O    2.188 --   238 C    1.118   240 C    0.981
   240   6 C    3.911 --   267 H    0.996   266 H    0.996   268 H    0.986
                           239 O    0.981
   241   6 C    3.831 --   242 C    1.439   238 C    1.388   269 H    0.989
   242   6 C    3.919 --   243 C    1.440   241 C    1.439   270 H    0.985
   243   6 C    3.830 --   242 C    1.440   244 C    1.388   271 H    0.989
   244   6 C    3.918 --   243 C    1.388   237 C    1.376   245 O    1.121
   245   8 O    2.194 --   244 C    1.121   246 C    0.982
   246   6 C    3.911 --   272 H    0.996   274 H    0.996   273 H    0.986
                           245 O    0.982
   247   1 H    1.024 --   205 C    0.999
   248   1 H    1.028 --   206 C    0.999
   249   1 H    1.077 --   208 N    0.961
   250   1 H    1.031 --   211 C    0.999
   251   1 H    1.029 --   212 C    1.000
   252   1 H    1.026 --   217 C    0.999
   253   1 H    1.032 --   218 C    0.998
   254   1 H    1.038 --   224 C    0.986
   255   1 H    1.028 --   224 C    0.996
   256   1 H    1.027 --   224 C    0.996
   257   1 H    1.019 --   225 C    0.987
   258   1 H    1.020 --   226 C    0.985
   259   1 H    1.025 --   227 C    0.984
   260   1 H    1.041 --   230 C    0.983
   261   1 H    1.044 --   230 C    1.002
   262   1 H    1.046 --   230 C    0.999
   263   1 H    1.034 --   232 C    0.998
   264   1 H    1.028 --   233 C    1.000
   265   1 H    1.080 --   236 N    0.961
   266   1 H    1.028 --   240 C    0.996
   267   1 H    1.026 --   240 C    0.996
   268   1 H    1.039 --   240 C    0.986
   269   1 H    1.020 --   241 C    0.989
   270   1 H    1.024 --   242 C    0.985
   271   1 H    1.020 --   243 C    0.989
   272   1 H    1.028 --   246 C    0.996
   273   1 H    1.040 --   246 C    0.986
   274   1 H    1.028 --   246 C    0.996
   275   6 C    3.839 --   306 C    1.283   276 C    1.283   162 C    1.228
   276   6 C    3.904 --   275 C    1.283   277 C    1.269   280 N    1.253
   277   6 C    3.833 --   278 C    1.582   276 C    1.269   319 H    0.999
   278   6 C    3.824 --   277 C    1.582   279 C    1.259   320 H    0.999
   279   6 C    3.900 --   281 C    1.343   278 C    1.259   280 N    1.223
   280   7 N    3.248 --   276 C    1.253   279 C    1.223   321 H    0.962
   281   6 C    3.836 --   282 C    1.378   279 C    1.343   309 C    1.039
   282   6 C    3.933 --   281 C    1.378   285 N    1.349   283 C    1.159
   283   6 C    3.844 --   284 C    1.694   282 C    1.159   322 H    0.999
   284   6 C    3.853 --   283 C    1.694   286 C    1.166   323 H    1.000
   285   7 N    2.553 --   286 C    1.418   282 C    1.349
   286   6 C    3.941 --   285 N    1.418   287 C    1.283   284 C    1.166
   287   6 C    3.840 --   286 C    1.283   288 C    1.282   163 C    1.228
   288   6 C    3.903 --   287 C    1.282   289 C    1.270   308 N    1.251
   289   6 C    3.832 --   290 C    1.582   288 C    1.270   324 H    0.999
   290   6 C    3.820 --   289 C    1.582   291 C    1.262   325 H    0.998
   291   6 C    3.887 --   292 C    1.345   290 C    1.262   308 N    1.219
   292   6 C    3.809 --   303 C    1.381   291 C    1.345   293 C    1.025
   293   6 C    3.811 --   300 C    1.410   294 C    1.355   292 C    1.025
   294   6 C    3.920 --   297 C    1.408   293 C    1.355   295 O    1.118
   295   8 O    2.193 --   294 C    1.118   296 C    0.983
   296   6 C    3.913 --   328 H    0.996   327 H    0.996   326 H    0.986
                           295 O    0.983
   297   6 C    3.826 --   298 C    1.413   294 C    1.408   329 H    0.987
   298   6 C    3.920 --   299 C    1.471   297 C    1.413   330 H    0.985
   299   6 C    3.899 --   298 C    1.471   300 C    1.358   331 H    0.984
   300   6 C    3.921 --   293 C    1.410   299 C    1.358   301 O    1.118
   301   8 O    2.181 --   300 C    1.118   302 C    0.977
   302   6 C    3.888 --   333 H    1.002   334 H    0.999   332 H    0.983
                           301 O    0.977
   303   6 C    3.916 --   292 C    1.381   307 N    1.347   304 C    1.161
   304   6 C    3.836 --   305 C    1.693   303 C    1.161   335 H    0.998
   305   6 C    3.849 --   304 C    1.693   306 C    1.168   336 H    1.000
   306   6 C    3.942 --   307 N    1.415   275 C    1.283   305 C    1.168
   307   7 N    2.511 --   306 C    1.415   303 C    1.347
   308   7 N    3.231 --   288 C    1.251   291 C    1.219   337 H    0.961
   309   6 C    3.863 --   310 C    1.377   316 C    1.376   281 C    1.039
   310   6 C    3.914 --   313 C    1.388   309 C    1.377   311 O    1.117
   311   8 O    2.188 --   310 C    1.117   312 C    0.982
   312   6 C    3.911 --   339 H    0.996   338 H    0.996   340 H    0.986
                           311 O    0.982
   313   6 C    3.830 --   314 C    1.439   310 C    1.388   341 H    0.989
   314   6 C    3.919 --   315 C    1.439   313 C    1.439   342 H    0.985
   315   6 C    3.830 --   314 C    1.439   316 C    1.388   343 H    0.989
   316   6 C    3.919 --   315 C    1.388   309 C    1.376   317 O    1.121
   317   8 O    2.194 --   316 C    1.121   318 C    0.982
   318   6 C    3.911 --   344 H    0.996   346 H    0.996   345 H    0.986
                           317 O    0.982
   319   1 H    1.024 --   277 C    0.999
   320   1 H    1.028 --   278 C    0.999
   321   1 H    1.077 --   280 N    0.962
   322   1 H    1.031 --   283 C    0.999
   323   1 H    1.029 --   284 C    1.000
   324   1 H    1.026 --   289 C    0.999
   325   1 H    1.032 --   290 C    0.998
   326   1 H    1.039 --   296 C    0.986
   327   1 H    1.028 --   296 C    0.996
   328   1 H    1.027 --   296 C    0.996
   329   1 H    1.018 --   297 C    0.987
   330   1 H    1.021 --   298 C    0.985
   331   1 H    1.025 --   299 C    0.984
   332   1 H    1.041 --   302 C    0.983
   333   1 H    1.045 --   302 C    1.002
   334   1 H    1.046 --   302 C    0.999
   335   1 H    1.035 --   304 C    0.998
   336   1 H    1.028 --   305 C    1.000
   337   1 H    1.080 --   308 N    0.961
   338   1 H    1.028 --   312 C    0.996
   339   1 H    1.026 --   312 C    0.996
   340   1 H    1.039 --   312 C    0.986
   341   1 H    1.021 --   313 C    0.989
   342   1 H    1.024 --   314 C    0.985
   343   1 H    1.020 --   315 C    0.989
   344   1 H    1.028 --   318 C    0.996
   345   1 H    1.040 --   318 C    0.986
   346   1 H    1.028 --   318 C    0.996
   347   6 C    3.838 --   348 C    1.283   378 C    1.282   170 C    1.229
   348   6 C    3.904 --   347 C    1.283   349 C    1.269   352 N    1.253
   349   6 C    3.833 --   350 C    1.581   348 C    1.269   391 H    0.999
   350   6 C    3.823 --   349 C    1.581   351 C    1.259   392 H    0.999
   351   6 C    3.900 --   353 C    1.342   350 C    1.259   352 N    1.223
   352   7 N    3.248 --   348 C    1.253   351 C    1.223   393 H    0.962
   353   6 C    3.836 --   354 C    1.378   351 C    1.342   381 C    1.038
   354   6 C    3.933 --   353 C    1.378   357 N    1.349   355 C    1.159
   355   6 C    3.844 --   356 C    1.694   354 C    1.159   394 H    0.999
   356   6 C    3.853 --   355 C    1.694   358 C    1.166   395 H    1.000
   357   7 N    2.552 --   358 C    1.418   354 C    1.349
   358   6 C    3.942 --   357 N    1.418   359 C    1.283   356 C    1.166
   359   6 C    3.839 --   358 C    1.283   360 C    1.282   171 C    1.228
   360   6 C    3.903 --   359 C    1.282   361 C    1.270   380 N    1.251
   361   6 C    3.831 --   362 C    1.582   360 C    1.270   396 H    0.999
   362   6 C    3.821 --   361 C    1.582   363 C    1.262   397 H    0.998
   363   6 C    3.887 --   364 C    1.345   362 C    1.262   380 N    1.218
   364   6 C    3.809 --   375 C    1.381   363 C    1.345   365 C    1.025
   365   6 C    3.811 --   372 C    1.410   366 C    1.354   364 C    1.025
   366   6 C    3.920 --   369 C    1.409   365 C    1.354   367 O    1.118
   367   8 O    2.193 --   366 C    1.118   368 C    0.983
   368   6 C    3.913 --   400 H    0.996   399 H    0.996   398 H    0.986
                           367 O    0.983
   369   6 C    3.826 --   370 C    1.412   366 C    1.409   401 H    0.987
   370   6 C    3.920 --   371 C    1.471   369 C    1.412   402 H    0.985
   371   6 C    3.900 --   370 C    1.471   372 C    1.357   403 H    0.984
   372   6 C    3.921 --   365 C    1.410   371 C    1.357   373 O    1.118
   373   8 O    2.183 --   372 C    1.118   374 C    0.977
   374   6 C    3.888 --   405 H    1.002   406 H    0.999   404 H    0.983
                           373 O    0.977
   375   6 C    3.916 --   364 C    1.381   379 N    1.347   376 C    1.162
   376   6 C    3.836 --   377 C    1.692   375 C    1.162   407 H    0.998
   377   6 C    3.849 --   376 C    1.692   378 C    1.168   408 H    1.000
   378   6 C    3.942 --   379 N    1.415   347 C    1.282   377 C    1.168
   379   7 N    2.511 --   378 C    1.415   375 C    1.347
   380   7 N    3.231 --   360 C    1.251   363 C    1.218   409 H    0.961
   381   6 C    3.863 --   382 C    1.377   388 C    1.376   353 C    1.038
   382   6 C    3.914 --   385 C    1.388   381 C    1.377   383 O    1.117
   383   8 O    2.188 --   382 C    1.117   384 C    0.982
   384   6 C    3.911 --   411 H    0.996   410 H    0.996   412 H    0.986
                           383 O    0.982
   385   6 C    3.830 --   386 C    1.439   382 C    1.388   413 H    0.989
   386   6 C    3.919 --   387 C    1.439   385 C    1.439   414 H    0.985
   387   6 C    3.830 --   386 C    1.439   388 C    1.388   415 H    0.989
   388   6 C    3.919 --   387 C    1.388   381 C    1.376   389 O    1.121
   389   8 O    2.194 --   388 C    1.121   390 C    0.982
   390   6 C    3.911 --   416 H    0.996   418 H    0.996   417 H    0.986
                           389 O    0.982
   391   1 H    1.024 --   349 C    0.999
   392   1 H    1.028 --   350 C    0.999
   393   1 H    1.077 --   352 N    0.962
   394   1 H    1.031 --   355 C    0.999
   395   1 H    1.029 --   356 C    1.000
   396   1 H    1.026 --   361 C    0.999
   397   1 H    1.032 --   362 C    0.998
   398   1 H    1.039 --   368 C    0.986
   399   1 H    1.028 --   368 C    0.996
   400   1 H    1.027 --   368 C    0.996
   401   1 H    1.019 --   369 C    0.987
   402   1 H    1.021 --   370 C    0.985
   403   1 H    1.025 --   371 C    0.984
   404   1 H    1.041 --   374 C    0.983
   405   1 H    1.045 --   374 C    1.002
   406   1 H    1.046 --   374 C    0.999
   407   1 H    1.035 --   376 C    0.998
   408   1 H    1.028 --   377 C    1.000
   409   1 H    1.080 --   380 N    0.961
   410   1 H    1.028 --   384 C    0.996
   411   1 H    1.026 --   384 C    0.996
   412   1 H    1.039 --   384 C    0.986
   413   1 H    1.021 --   385 C    0.989
   414   1 H    1.024 --   386 C    0.985
   415   1 H    1.021 --   387 C    0.989
   416   1 H    1.028 --   390 C    0.996
   417   1 H    1.040 --   390 C    0.986
   418   1 H    1.028 --   390 C    0.996
   419   6 C    3.838 --   420 C    1.283   450 C    1.282   178 C    1.229
   420   6 C    3.904 --   419 C    1.283   421 C    1.269   424 N    1.253
   421   6 C    3.833 --   422 C    1.581   420 C    1.269   463 H    0.999
   422   6 C    3.823 --   421 C    1.581   423 C    1.259   464 H    0.999
   423   6 C    3.900 --   425 C    1.342   422 C    1.259   424 N    1.223
   424   7 N    3.248 --   420 C    1.253   423 C    1.223   465 H    0.962
   425   6 C    3.836 --   426 C    1.378   423 C    1.342   453 C    1.038
   426   6 C    3.933 --   425 C    1.378   429 N    1.349   427 C    1.159
   427   6 C    3.844 --   428 C    1.694   426 C    1.159   466 H    0.999
   428   6 C    3.853 --   427 C    1.694   430 C    1.166   467 H    1.000
   429   7 N    2.552 --   430 C    1.418   426 C    1.349
   430   6 C    3.942 --   429 N    1.418   431 C    1.283   428 C    1.166
   431   6 C    3.839 --   430 C    1.283   432 C    1.282   179 C    1.229
   432   6 C    3.903 --   431 C    1.282   433 C    1.270   452 N    1.251
   433   6 C    3.831 --   434 C    1.582   432 C    1.270   468 H    0.999
   434   6 C    3.821 --   433 C    1.582   435 C    1.262   469 H    0.998
   435   6 C    3.887 --   436 C    1.345   434 C    1.262   452 N    1.219
   436   6 C    3.809 --   447 C    1.381   435 C    1.345   437 C    1.025
   437   6 C    3.810 --   444 C    1.410   438 C    1.354   436 C    1.025
   438   6 C    3.920 --   441 C    1.409   437 C    1.354   439 O    1.118
   439   8 O    2.193 --   438 C    1.118   440 C    0.983
   440   6 C    3.913 --   472 H    0.996   471 H    0.996   470 H    0.986
                           439 O    0.983
   441   6 C    3.826 --   442 C    1.412   438 C    1.409   473 H    0.987
   442   6 C    3.920 --   443 C    1.472   441 C    1.412   474 H    0.985
   443   6 C    3.900 --   442 C    1.472   444 C    1.356   475 H    0.984
   444   6 C    3.921 --   437 C    1.410   443 C    1.356   445 O    1.119
   445   8 O    2.185 --   444 C    1.119   446 C    0.977
   446   6 C    3.887 --   477 H    1.001   478 H    0.999   476 H    0.984
                           445 O    0.977
   447   6 C    3.916 --   436 C    1.381   451 N    1.347   448 C    1.162
   448   6 C    3.837 --   449 C    1.692   447 C    1.162   479 H    0.998
   449   6 C    3.849 --   448 C    1.692   450 C    1.168   480 H    1.000
   450   6 C    3.942 --   451 N    1.415   419 C    1.282   449 C    1.168
   451   7 N    2.510 --   450 C    1.415   447 C    1.347
   452   7 N    3.231 --   432 C    1.251   435 C    1.219   481 H    0.961
   453   6 C    3.863 --   454 C    1.377   460 C    1.376   425 C    1.038
   454   6 C    3.914 --   457 C    1.388   453 C    1.377   455 O    1.117
   455   8 O    2.188 --   454 C    1.117   456 C    0.982
   456   6 C    3.911 --   483 H    0.996   482 H    0.996   484 H    0.986
                           455 O    0.982
   457   6 C    3.830 --   458 C    1.439   454 C    1.388   485 H    0.989
   458   6 C    3.919 --   459 C    1.439   457 C    1.439   486 H    0.985
   459   6 C    3.830 --   458 C    1.439   460 C    1.388   487 H    0.989
   460   6 C    3.919 --   459 C    1.388   453 C    1.376   461 O    1.121
   461   8 O    2.194 --   460 C    1.121   462 C    0.982
   462   6 C    3.911 --   488 H    0.996   490 H    0.996   489 H    0.986
                           461 O    0.982
   463   1 H    1.024 --   421 C    0.999
   464   1 H    1.028 --   422 C    0.999
   465   1 H    1.077 --   424 N    0.962
   466   1 H    1.031 --   427 C    0.999
   467   1 H    1.029 --   428 C    1.000
   468   1 H    1.026 --   433 C    0.999
   469   1 H    1.032 --   434 C    0.998
   470   1 H    1.039 --   440 C    0.986
   471   1 H    1.028 --   440 C    0.996
   472   1 H    1.027 --   440 C    0.996
   473   1 H    1.019 --   441 C    0.987
   474   1 H    1.021 --   442 C    0.985
   475   1 H    1.025 --   443 C    0.984
   476   1 H    1.041 --   446 C    0.984
   477   1 H    1.045 --   446 C    1.001
   478   1 H    1.046 --   446 C    0.999
   479   1 H    1.035 --   448 C    0.998
   480   1 H    1.028 --   449 C    1.000
   481   1 H    1.080 --   452 N    0.961
   482   1 H    1.028 --   456 C    0.996
   483   1 H    1.026 --   456 C    0.996
   484   1 H    1.039 --   456 C    0.986
   485   1 H    1.021 --   457 C    0.989
   486   1 H    1.024 --   458 C    0.985
   487   1 H    1.021 --   459 C    0.989
   488   1 H    1.028 --   462 C    0.996
   489   1 H    1.040 --   462 C    0.986
   490   1 H    1.028 --   462 C    0.996
   491   6 C    3.837 --   492 C    1.282   522 C    1.282   186 C    1.229
   492   6 C    3.904 --   491 C    1.282   493 C    1.269   496 N    1.253
   493   6 C    3.832 --   494 C    1.581   492 C    1.269   535 H    0.999
   494   6 C    3.823 --   493 C    1.581   495 C    1.260   536 H    0.999
   495   6 C    3.899 --   497 C    1.341   494 C    1.260   496 N    1.223
   496   7 N    3.248 --   492 C    1.253   495 C    1.223   537 H    0.962
   497   6 C    3.835 --   498 C    1.379   495 C    1.341   525 C    1.038
   498   6 C    3.933 --   497 C    1.379   501 N    1.348   499 C    1.159
   499   6 C    3.844 --   500 C    1.693   498 C    1.159   538 H    0.999
   500   6 C    3.852 --   499 C    1.693   502 C    1.166   539 H    1.000
   501   7 N    2.552 --   502 C    1.419   498 C    1.348
   502   6 C    3.941 --   501 N    1.419   503 C    1.282   500 C    1.166
   503   6 C    3.838 --   502 C    1.282   504 C    1.282   187 C    1.229
   504   6 C    3.903 --   503 C    1.282   505 C    1.271   524 N    1.252
   505   6 C    3.830 --   506 C    1.581   504 C    1.271   540 H    0.999
   506   6 C    3.821 --   505 C    1.581   507 C    1.262   541 H    0.998
   507   6 C    3.887 --   508 C    1.345   506 C    1.262   524 N    1.218
   508   6 C    3.808 --   519 C    1.381   507 C    1.345   509 C    1.025
   509   6 C    3.810 --   516 C    1.410   510 C    1.354   508 C    1.025
   510   6 C    3.920 --   513 C    1.409   509 C    1.354   511 O    1.117
   511   8 O    2.193 --   510 C    1.117   512 C    0.983
   512   6 C    3.913 --   543 H    0.996   544 H    0.996   542 H    0.986
                           511 O    0.983
   513   6 C    3.826 --   514 C    1.412   510 C    1.409   545 H    0.987
   514   6 C    3.920 --   515 C    1.472   513 C    1.412   546 H    0.985
   515   6 C    3.900 --   514 C    1.472   516 C    1.355   547 H    0.984
   516   6 C    3.921 --   509 C    1.410   515 C    1.355   517 O    1.120
   517   8 O    2.186 --   516 C    1.120   518 C    0.978
   518   6 C    3.887 --   549 H    1.001   550 H    0.999   548 H    0.984
                           517 O    0.978
   519   6 C    3.915 --   508 C    1.381   523 N    1.347   520 C    1.162
   520   6 C    3.837 --   521 C    1.692   519 C    1.162   551 H    0.998
   521   6 C    3.849 --   520 C    1.692   522 C    1.168   552 H    1.000
   522   6 C    3.942 --   523 N    1.415   491 C    1.282   521 C    1.168
   523   7 N    2.512 --   522 C    1.415   519 C    1.347
   524   7 N    3.231 --   504 C    1.252   507 C    1.218   553 H    0.961
   525   6 C    3.863 --   526 C    1.377   532 C    1.376   497 C    1.038
   526   6 C    3.915 --   529 C    1.388   525 C    1.377   527 O    1.117
   527   8 O    2.188 --   526 C    1.117   528 C    0.982
   528   6 C    3.911 --   555 H    0.996   554 H    0.996   556 H    0.986
                           527 O    0.982
   529   6 C    3.830 --   530 C    1.439   526 C    1.388   557 H    0.989
   530   6 C    3.919 --   531 C    1.439   529 C    1.439   558 H    0.985
   531   6 C    3.830 --   530 C    1.439   532 C    1.388   559 H    0.989
   532   6 C    3.919 --   531 C    1.388   525 C    1.376   533 O    1.121
   533   8 O    2.194 --   532 C    1.121   534 C    0.982
   534   6 C    3.911 --   560 H    0.996   562 H    0.996   561 H    0.986
                           533 O    0.982
   535   1 H    1.024 --   493 C    0.999
   536   1 H    1.028 --   494 C    0.999
   537   1 H    1.077 --   496 N    0.962
   538   1 H    1.031 --   499 C    0.999
   539   1 H    1.029 --   500 C    1.000
   540   1 H    1.026 --   505 C    0.999
   541   1 H    1.032 --   506 C    0.998
   542   1 H    1.041 --   512 C    0.986
   543   1 H    1.026 --   512 C    0.996
   544   1 H    1.027 --   512 C    0.996
   545   1 H    1.019 --   513 C    0.987
   546   1 H    1.021 --   514 C    0.985
   547   1 H    1.025 --   515 C    0.984
   548   1 H    1.041 --   518 C    0.984
   549   1 H    1.046 --   518 C    1.001
   550   1 H    1.045 --   518 C    0.999
   551   1 H    1.035 --   520 C    0.998
   552   1 H    1.029 --   521 C    1.000
   553   1 H    1.080 --   524 N    0.961
   554   1 H    1.028 --   528 C    0.996
   555   1 H    1.026 --   528 C    0.996
   556   1 H    1.040 --   528 C    0.986
   557   1 H    1.021 --   529 C    0.989
   558   1 H    1.024 --   530 C    0.985
   559   1 H    1.021 --   531 C    0.989
   560   1 H    1.028 --   534 C    0.996
   561   1 H    1.040 --   534 C    0.986
   562   1 H    1.028 --   534 C    0.996
   563   6 C    3.838 --   564 C    1.283   594 C    1.283   194 C    1.229
   564   6 C    3.903 --   563 C    1.283   565 C    1.269   568 N    1.253
   565   6 C    3.833 --   566 C    1.581   564 C    1.269   607 H    0.999
   566   6 C    3.823 --   565 C    1.581   567 C    1.259   608 H    0.999
   567   6 C    3.899 --   569 C    1.341   566 C    1.259   568 N    1.223
   568   7 N    3.249 --   564 C    1.253   567 C    1.223   609 H    0.962
   569   6 C    3.835 --   570 C    1.379   567 C    1.341   597 C    1.038
   570   6 C    3.934 --   569 C    1.379   573 N    1.349   571 C    1.158
   571   6 C    3.845 --   572 C    1.695   570 C    1.158   610 H    0.999
   572   6 C    3.853 --   571 C    1.695   574 C    1.164   611 H    1.000
   573   7 N    2.551 --   574 C    1.417   570 C    1.349
   574   6 C    3.943 --   573 N    1.417   575 C    1.286   572 C    1.164
   575   6 C    3.839 --   574 C    1.286   576 C    1.285   195 C    1.221
   576   6 C    3.904 --   575 C    1.285   577 C    1.268   596 N    1.251
   577   6 C    3.830 --   578 C    1.583   576 C    1.268   612 H    0.999
   578   6 C    3.822 --   577 C    1.583   579 C    1.261   613 H    0.998
   579   6 C    3.888 --   580 C    1.347   578 C    1.261   596 N    1.218
   580   6 C    3.810 --   591 C    1.379   579 C    1.347   581 C    1.024
   581   6 C    3.810 --   588 C    1.410   582 C    1.354   580 C    1.024
   582   6 C    3.920 --   585 C    1.409   581 C    1.354   583 O    1.117
   583   8 O    2.193 --   582 C    1.117   584 C    0.983
   584   6 C    3.913 --   615 H    0.996   616 H    0.996   614 H    0.986
                           583 O    0.983
   585   6 C    3.826 --   586 C    1.411   582 C    1.409   617 H    0.987
   586   6 C    3.920 --   587 C    1.472   585 C    1.411   618 H    0.985
   587   6 C    3.900 --   586 C    1.472   588 C    1.355   619 H    0.984
   588   6 C    3.921 --   581 C    1.410   587 C    1.355   589 O    1.120
   589   8 O    2.187 --   588 C    1.120   590 C    0.978
   590   6 C    3.887 --   621 H    1.001   622 H    0.999   620 H    0.984
                           589 O    0.978
   591   6 C    3.914 --   580 C    1.379   595 N    1.348   592 C    1.162
   592   6 C    3.836 --   593 C    1.692   591 C    1.162   623 H    0.998
   593   6 C    3.849 --   592 C    1.692   594 C    1.168   624 H    1.000
   594   6 C    3.941 --   595 N    1.415   563 C    1.283   593 C    1.168
   595   7 N    2.513 --   594 C    1.415   591 C    1.348
   596   7 N    3.230 --   576 C    1.251   579 C    1.218   625 H    0.961
   597   6 C    3.863 --   598 C    1.377   604 C    1.376   569 C    1.038
   598   6 C    3.914 --   601 C    1.388   597 C    1.377   599 O    1.117
   599   8 O    2.188 --   598 C    1.117   600 C    0.981
   600   6 C    3.911 --   627 H    0.996   626 H    0.996   628 H    0.986
                           599 O    0.981
   601   6 C    3.830 --   602 C    1.439   598 C    1.388   629 H    0.989
   602   6 C    3.919 --   603 C    1.439   601 C    1.439   630 H    0.985
   603   6 C    3.830 --   602 C    1.439   604 C    1.388   631 H    0.989
   604   6 C    3.918 --   603 C    1.388   597 C    1.376   605 O    1.120
   605   8 O    2.194 --   604 C    1.120   606 C    0.982
   606   6 C    3.911 --   632 H    0.997   634 H    0.996   633 H    0.986
                           605 O    0.982
   607   1 H    1.024 --   565 C    0.999
   608   1 H    1.028 --   566 C    0.999
   609   1 H    1.077 --   568 N    0.962
   610   1 H    1.031 --   571 C    0.999
   611   1 H    1.029 --   572 C    1.000
   612   1 H    1.026 --   577 C    0.999
   613   1 H    1.032 --   578 C    0.998
   614   1 H    1.041 --   584 C    0.986
   615   1 H    1.026 --   584 C    0.996
   616   1 H    1.026 --   584 C    0.996
   617   1 H    1.021 --   585 C    0.987
   618   1 H    1.021 --   586 C    0.985
   619   1 H    1.025 --   587 C    0.984
   620   1 H    1.041 --   590 C    0.984
   621   1 H    1.046 --   590 C    1.001
   622   1 H    1.045 --   590 C    0.999
   623   1 H    1.035 --   592 C    0.998
   624   1 H    1.029 --   593 C    1.000
   625   1 H    1.080 --   596 N    0.961
   626   1 H    1.028 --   600 C    0.996
   627   1 H    1.026 --   600 C    0.996
   628   1 H    1.039 --   600 C    0.986
   629   1 H    1.021 --   601 C    0.989
   630   1 H    1.024 --   602 C    0.985
   631   1 H    1.020 --   603 C    0.989
   632   1 H    1.028 --   606 C    0.997
   633   1 H    1.040 --   606 C    0.986
   634   1 H    1.028 --   606 C    0.996
 ---------------------------------------------------------------------------

Topologies differ in total number of bonds
Writing topology from bond orders to xtbtopo.mol

 dipole moment from electron density (au)
     X       Y       Z   
-274.0291   4.4622   5.4766  total (Debye):  696.744


           -------------------------------------------------
          | TOTAL ENERGY            -1229.269710904648 Eh   |
          | GRADIENT NORM               0.125466811881 Eh/α |
          | HOMO-LUMO GAP               0.027937247119 eV   |
           -------------------------------------------------
########################################################################
[WARNING] Runtime exception occurred
-1- restart_readRestart: Dimension missmatch in restart file.
########################################################################

------------------------------------------------------------------------
 * finished run on 2022/07/31 at 08:09:50.197     
------------------------------------------------------------------------
 total:
 * wall-time:     0 d,  0 h,  5 min, 53.964 sec
 *  cpu-time:     0 d,  0 h,  5 min, 51.833 sec
 * ratio c/w:     0.994 speedup
 SCF:
 * wall-time:     0 d,  0 h,  5 min, 52.021 sec
 *  cpu-time:     0 d,  0 h,  5 min, 49.903 sec
 * ratio c/w:     0.994 speedup

