634
 energy: -1099.843647793902 gnorm: 0.000857921410 xtb: 6.5.1 (b24c23e)
C           85.84453392431041        0.52225814871003        0.15977200449326
C           86.60403288973467        0.33582700119818        1.30639572933489
C           86.09937177055374        0.31191253188485        2.64126713921314
C           87.14911694787519        0.12552815963761        3.49145393400005
C           88.33931599019475        0.03164868681040        2.71105103965522
N           87.95626035592707        0.15223767189761        1.40004965028107
C           89.65151138203619       -0.12389034851360        3.16318853410622
C           90.76952872157915       -0.17943661607331        2.31275205907795
C           92.15581077246284       -0.05767154384216        2.68321537426402
C           92.81828572767853       -0.02987795737259        1.51436843396719
N           90.67683080411636       -0.24309209404694        0.96364291465599
C           91.93275050938705       -0.15518750042827        0.38498112379497
C           92.14355911590602       -0.22541070630596       -0.92807823746250
C           91.48689120318822       -0.22694784621064       -2.11940315077921
C           91.94539133332114       -0.47323386260887       -3.44575586516580
C           90.89574640598850       -0.28144082918625       -4.30273464228866
C           89.75354653356123        0.07071926365090       -3.52985080320209
C           88.43013735790018        0.29403571339163       -3.93030263128194
C           88.14972102946822        0.25831415685337       -5.39299810416535
C           88.52482620322134        1.26979274870887       -6.28239600512967
O           89.13153141733808        2.43689270195785       -5.93451912039518
C           88.96826925811328        3.03651285841166       -4.66128931356434
C           88.30018232642463        1.11629848647068       -7.65543036251542
C           87.69529265748162       -0.02607137238350       -8.13961227427784
C           87.29193013061196       -1.03503194839570       -7.27318551767471
C           87.52189783055353       -0.89259983712904       -5.90926114435623
O           87.19050173114161       -1.83767875160783       -4.98939128588808
C           86.55987627472071       -3.03735281601705       -5.38979826586191
C           87.37487509536922        0.45164931388965       -3.02774626529762
C           85.99029788808200        0.66723641641724       -3.40956715511006
C           85.28312100055074        0.73284918439086       -2.26275675883878
C           86.23497882186722        0.55515883668956       -1.17719401767270
N           87.48332844993234        0.40728153102927       -1.67345985633555
N           90.15707020276319        0.11959889715572       -2.23111430456518
C           89.88678336022510       -0.18283872413612        4.62817598525056
C           89.53447460274921        0.86366974149085        5.48824182812518
O           88.93991490281893        2.01380611558284        5.03122008832735
C           89.66523920199982        2.84272716849856        4.13634678574894
C           89.73733792024265        0.75545188250775        6.86319497694668
C           90.30382558093947       -0.39276407436223        7.38787286654915
C           90.68299065538801       -1.43716449137915        6.55519312093324
C           90.47675964983816       -1.33475446539295        5.18195061823858
O           90.79225005536598       -2.31935039667729        4.30118150448908
C           91.40556043424851       -3.51329597639386        4.74501771511846
H           84.78141761825225        0.65322590678052        0.34070249448773
H           85.05851540502415        0.42673781809467        2.89951628895363
H           87.11484318158740        0.06184581783540        4.56644734860711
H           88.59893611535225        0.10274637787409        0.61708307131561
H           92.55140905140183        0.00958648727881        3.68196985343145
H           94.66868362535057        0.05924342948092        1.36616123389582
H           92.95559129924362       -0.75457847631079       -3.69600648716213
H           90.90041799755842       -0.38806367482437       -5.37569573747823
H           89.67369984782481        2.62497194330603       -3.93098996906331
H           89.17673305504857        4.10127704379660       -4.79461556694887
H           87.94634896805364        2.91331346750240       -4.28809550907107
H           88.60928657594016        1.91354578887533       -8.31942114639916
H           87.52449577875078       -0.13705059517835       -9.20444754844386
H           86.81384676464572       -1.92160912936887       -7.66745409244772
H           86.39889644425762       -3.61455132627006       -4.47737487346549
H           85.59229258812579       -2.84254767028968       -5.86796640959411
H           87.19289288372849       -3.61498236997838       -6.07431629211936
H           85.63744913259417        0.74877647221733       -4.42539824029283
H           84.22200676021687        0.87878305739770       -2.13209426871736
H           89.51617341702298        0.26169399531747       -1.45624387165482
H           90.61811153720328        3.15495628350046        4.58111568297961
H           89.04307828112050        3.72124452721412        3.95715891243400
H           89.86317152117005        2.33975096613167        3.18294463187359
H           89.44474380469056        1.58032449630851        7.50024486678912
H           90.46175816969648       -0.47879351366336        8.45698069298225
H           91.12919580704857       -2.32547390444533        6.98228473246273
H           90.75892720229642       -4.06294905314330        5.43959925833703
H           91.56988282795317       -4.11916149835107        3.85211070214235
H           92.36979506141986       -3.31345049364892        5.22748603940568
C          224.60380033476559        0.07092342568725       -0.18136702008756
C          223.99165265876553       -0.05792924893660       -1.42142508963372
C          224.63227040561833       -0.19319210291975       -2.68565336386546
C          223.66099897622018       -0.28408251016572       -3.64247773593206
C          222.39578877987290       -0.21024011848842       -2.99320537310923
N          222.64575353084723       -0.07131187718259       -1.65699736714150
C          221.13185157683219       -0.27087226652393       -3.58702499531240
C          219.91475752131052       -0.23702205170095       -2.90661271332903
C          218.62530453197900       -0.34230444072536       -3.56481545403388
C          217.69255966126121       -0.25398866786265       -2.59382142509730
N          219.74463904793780       -0.07885991799210       -1.56478434809409
C          218.41441567156645       -0.08810884778646       -1.34662942868707
C          217.76797434860387        0.05504714808907       -0.10157811199020
C          218.40562908421293        0.22916501871458        1.14104471130861
C          217.77107020828370        0.39197422167898        2.40155606056033
C          218.74630317980305        0.53403969106385        3.34934103267148
C          220.00735468392818        0.45983651591828        2.69528083581765
C          221.26974364594136        0.55028422094815        3.28632552988210
C          221.29462865492357        0.70917557880452        4.77220859801868
C          221.12591151114950        1.92193820736926        5.44547258175155
O          220.94525048548834        3.13772299458496        4.86494474519492
C          221.32077735030157        3.42831187204740        3.53112831959832
C          221.10867149553187        1.94691778529351        6.84606450365731
C          221.26902094312467        0.78274133783518        7.56905533272595
C          221.45658172983261       -0.43268515910954        6.92145005673484
C          221.46568504391021       -0.46507804191259        5.53177957720276
O          221.62157214305407       -1.60550182670807        4.80661974384821
C          221.82267788404209       -2.84423868719833        5.45660160713273
C          222.48838158798688        0.43225477211711        2.61359105658763
C          223.78420846553786        0.49240899451473        3.27066024585223
C          224.71090073723673        0.35720849290262        2.30035220579643
C          223.98132198091756        0.22087327686581        1.05150846759378
N          222.64579124680012        0.27352624812636        1.27791308518954
N          219.74944188358373        0.27824787684000        1.36154464461813
C          221.10878327578087       -0.46196735001680       -5.06925080952358
C          221.28597154905637        0.56319230544433       -6.00212745520178
O          221.47252148225152        1.87820936431488       -5.71006470166019
C          221.03654585277687        2.47169745412607       -4.50037789400519
C          221.31001776167645        0.26659477651050       -7.37069651801457
C          221.14682810333710       -1.03214288400875       -7.80775628523140
C          220.94976440478877       -2.06544709755714       -6.89943140458180
C          220.93481253972013       -1.77846219682170       -5.53920973099789
O          220.77174151849817       -2.72167441788219       -4.57270558313033
C          220.54794994976828       -4.07264452319290       -4.92253728636237
H          225.68889672616007        0.05549887457274       -0.18577155218705
H          225.70079191889670       -0.21587145937913       -2.82964553827343
H          223.79720833989774       -0.39601821674909       -4.70603201556212
H          221.93006433807173       -0.01138340434695       -0.94070421658362
H          218.48240705125357       -0.47205940464733       -4.62560720693564
H          216.61878046678186       -0.29268348009104       -2.68510509906357
H          216.70351261817186        0.39804731137857        2.55211668837934
H          218.61338629152081        0.67470173226725        4.40974944871687
H          220.60636109211313        3.01481981518208        2.81093042115950
H          221.31856957393416        4.51792687062001        3.44752531824935
H          222.32419681064047        3.05200456797172        3.30577874115521
H          220.96856068693751        2.90015807859231        7.33983014457558
H          221.25482568300754        0.81376260720611        8.65265766153476
H          221.58554575517709       -1.33658788415609        7.50131333195185
H          221.93438737176814       -3.58770591645385        4.66515913959363
H          222.73140169152487       -2.83262846757267        6.07054250773785
H          220.96438630486946       -3.11295060395188        6.08434933250222
H          223.93215250215812        0.61593171776254        4.33172707086578
H          225.78614127585379        0.34771826725984        2.38866385736271
H          220.46240119005648        0.17196043170217        0.64761159321493
H          220.02344997716108        2.14894291204504       -4.23827719198134
H          221.03639491441129        3.55045492983274       -4.67522019429983
H          221.71631891629437        2.24578051997651       -3.67151374399444
H          221.45687714186550        1.08039675197323       -8.06942967929701
H          221.16572047104449       -1.25098816340582       -8.86940922055576
H          220.81857508071408       -3.07777860384518       -7.25708107562649
H          221.40064056935165       -4.49312065433210       -5.46944983612925
H          220.42380586941141       -4.61309143594284       -3.98227947702084
H          219.63899290262557       -4.18558800638673       -5.52564748401591
C           95.74079316501155        0.07216032131235        1.25232770318076
C           96.94395721312813        0.07927922382399        1.10787733914981
C           98.29059470981606        0.08570128932517        0.95473240969773
C           99.50851882584517        0.08771746535761        0.81489228699458
C          100.84334951638645        0.09120245404287        0.66782256996639
C          102.06485719820226        0.08880862927473        0.53607859269609
C          103.40231159906818        0.08966658122007        0.39761906775291
C          104.62044837075473        0.08856648458946        0.27822345923380
C          114.29962955815698        0.00054395900025       -0.20935876710893
C          115.52468741841165       -0.01842339047966       -0.22947101331278
C          116.86597274863591       -0.03347285229655       -0.24734837628147
C          118.09726440779779       -0.04477254360745       -0.26100190391955
C          119.43401808246040       -0.05263454765948       -0.27430047088190
C          120.66543744073580       -0.05743370944926       -0.28323975286412
C          122.00684795799503       -0.06059950642115       -0.28981393495715
C          123.23227740216585       -0.06135959676715       -0.29423172376082
C          132.92567714749316       -0.04449806362293       -0.24001023800609
C          134.15107980953380       -0.04394811266616       -0.23535727900739
C          135.49241271355513       -0.04000526461726       -0.23237829465737
C          136.72379453034912       -0.03955982802166       -0.23513746001412
C          138.06049762771900       -0.03617690716952       -0.23825150667391
C          139.29195993605606       -0.03316013213749       -0.24569248614584
C          140.63328783379654       -0.02966557496707       -0.25269603706775
C          141.85870929397274       -0.02831098499355       -0.26231143874504
C          151.55169316480314       -0.03557065868073       -0.23700898278014
C          152.77710447011444       -0.03845578929100       -0.23396782047397
C          154.11841985297900       -0.03728669902794       -0.23311970673031
C          155.34985363479126       -0.03771813174081       -0.23553340538403
C          156.68652937527014       -0.03752922994182       -0.23816735073216
C          157.91798932342189       -0.03574565161249       -0.24330648459846
C          159.25926781506232       -0.03071242353099       -0.25375117290939
C          160.48467519169395       -0.03022785605984       -0.26342182721936
C          170.17727651609792       -0.03232647807239       -0.23753333779529
C          171.40267457405216       -0.03631743772649       -0.23272858436161
C          172.74398986082068       -0.03706175283919       -0.23069591338678
C          173.97544364168095       -0.03325054224929       -0.23238075610199
C          175.31211689525318       -0.03166373994667       -0.23869639938558
C          176.54355513789341       -0.03090450524804       -0.24658337799433
C          177.88483231595998       -0.02889117239323       -0.25413534338445
C          179.11021309436063       -0.02745960742126       -0.26447038896694
C          188.80316461970187       -0.03831059545662       -0.24565803182227
C          190.02856439008158       -0.04258335062223       -0.24250575251514
C          191.36995656031866       -0.04310229161241       -0.24071088661631
C          192.60135274418749       -0.04311881411332       -0.24207125952233
C          193.93807172250348       -0.04307857165404       -0.24441071331525
C          195.16944434379943       -0.04130592515304       -0.24925583143880
C          196.51085425029538       -0.03835390212926       -0.25350800951726
C          197.73623282019983       -0.03707760344810       -0.25924333625901
C          207.42942183831832       -0.04730811105315       -0.13766317601209
C          208.65411632283914       -0.04811986713485       -0.11742333646055
C          209.99655257219416       -0.04315674427408       -0.09993843220695
C          211.22727319666836       -0.03405246755432       -0.08698989325764
C          212.56519415094803       -0.02057024498485       -0.07602540362255
C          213.79576599138602       -0.00695891311101       -0.07607971487656
C          215.13845038719919        0.01191388359999       -0.07957212921148
C          216.36287971951862        0.02978782836147       -0.08785230445386
C          106.02035206011206        0.08966172676773        0.15671644450665
C          106.67546113786351        1.30058503332600        0.45064925996459
C          106.06111655758281        2.51905834884379        0.84233306587811
C          107.04888592887771        3.44687256571484        1.02619492886256
C          108.29557180024248        2.82152135247192        0.75135358440046
N          108.01877914195067        1.52516349225189        0.40917596585146
C          109.56555471771374        3.40074184094074        0.83915934136486
C          110.77665128845702        2.74847450279451        0.61370905883619
C          112.07152280981441        3.39868485528600        0.70637973801751
C          112.99500698452675        2.45468042504901        0.43284815145005
N          110.93478724265965        1.43899707110338        0.27282960687662
C          112.26186078492348        1.23294776785577        0.16213858578131
C          112.89688340357280        0.02041012549169       -0.17735349140339
C          112.24166664371711       -1.18361440139928       -0.50194236367478
C          112.85486984553692       -2.40666197091235       -0.87908681073219
C          111.86232664034219       -3.31348460371142       -1.13380186506110
C          110.61453863243509       -2.66955586380222       -0.91449432748174
C          109.34174862393792       -3.23081697356118       -1.05731746962963
C          109.30220986014719       -4.67123558778865       -1.45723519635818
C          109.21193970387677       -5.61272539765855       -0.41291328893508
O          109.14350314255420       -5.08291121935284        0.83828249917061
C          109.01449983904845       -5.92587491900885        1.96529154860785
C          109.20834668233114       -6.97848403497471       -0.67113126086241
C          109.30185624594850       -7.41843165527621       -1.98630842647407
C          109.38425810866904       -6.51478529273871       -3.02549208200210
C          109.38003730611933       -5.13659950338162       -2.77239938956343
O          109.47978613182718       -4.36825121108606       -3.88853820824421
C          109.13877804147637       -2.99480310744041       -3.92765264297657
C          108.13281651082089       -2.59246417453800       -0.78579103367362
C          106.83961865293119       -3.24182689028863       -0.89934425872319
C          105.91736645436490       -2.31855014395883       -0.55562407152886
C          106.64944528796657       -1.10658692265404       -0.24303976781474
N          107.97517126896098       -1.29812326142026       -0.39386203244534
N          110.89462346500299       -1.38352985697301       -0.53472883776538
C          109.60644426251167        4.84321058049135        1.21408995058087
C          109.14357560227816        5.81868657744851        0.32093501796066
O          108.67430289789225        5.35891673294728       -0.86944926821859
C          108.20378284295637        6.26238555520396       -1.84981815421769
C          109.18867815140797        7.16880692408739        0.66643729356290
C          109.68918795326044        7.53699230123763        1.90609490709706
C          110.14576170189710        6.58893816940067        2.80903899007607
C          110.10595981654299        5.23882798280805        2.46231289687356
O          110.51784828650045        4.23643679088298        3.28138114950404
C          111.06949954835271        4.52818554747874        4.54981615923227
H          104.99897209544046        2.65708664583563        0.96549931268582
H          106.92978571888510        4.47454437967195        1.32820795499769
H          108.71791807600042        0.83002512790561        0.17035397157591
H          112.22771620424565        4.43730032275262        0.94888599139609
H          114.06877459814034        2.54970952109581        0.40291760782386
H          113.91954366585266       -2.56227721102252       -0.94656837489561
H          111.97688417070930       -4.33959571036713       -1.44339966814750
H          108.95755742575327       -5.26601981813463        2.83302075010885
H          109.88181206465956       -6.58851051968834        2.07336601053137
H          108.10089105064731       -6.53024155190193        1.91189171682796
H          109.14080931629069       -7.69827868526738        0.13336503440391
H          109.30505456877601       -8.48239200272961       -2.19448659679941
H          109.45221626259750       -6.84608683921202       -4.05395468916662
H          109.09768886151738       -2.72529601545503       -4.98582319941100
H          108.16042568671216       -2.81119581717787       -3.47114525867931
H          109.89446960149628       -2.37590154002880       -3.43184382439955
H          106.68769907782689       -4.26744096764221       -1.19536064171379
H          104.84468187880988       -2.42027605750246       -0.51211969732828
H          110.19717973373506       -0.68635423856171       -0.29657400866261
H          108.99264003960040        6.95348563364806       -2.17016037932003
H          107.34336003145992        6.83712943130621       -1.48633930199784
H          107.89377352631895        5.65274051245227       -2.70054385188053
H          108.83877605980270        7.93002016631061       -0.01782002542233
H          109.72253222263937        8.58694834342134        2.17527543097758
H          110.52634341985703        6.90467240687221        3.77110857656552
H          111.96895408512540        5.14945047104972        4.46264074964853
H          111.33877689294121        3.56713673774892        4.99172498072513
H          110.34217709289882        5.03162920905750        5.19814812021599
C          124.63530687316828       -0.05483601875662       -0.30081920802212
C          125.26075200899308        1.15937096610690        0.04410896348593
C          124.61192312077083        2.36926047344580        0.40414641433407
C          125.57792103269287        3.30135782348738        0.66699012438488
C          126.84489088349409        2.68796110786123        0.47065904402702
N          126.60185070515186        1.39307282579951        0.09785257751253
C          128.10192268983630        3.27706705992396        0.64231372145611
C          129.33074734125074        2.64102183219189        0.47410454130429
C          130.61091326725162        3.30694906483065        0.63455771187412
C          131.55892664177799        2.37990076674373        0.38819389140301
N          129.52247682941314        1.33796042693279        0.12557597641907
C          130.85593244095878        1.15166877361690        0.07121265734868
C          131.52264222921758       -0.04866744994639       -0.25032208151041
C          130.89946233004505       -1.26431067850985       -0.59504883906375
C          131.54615700010172       -2.48095931024246       -0.93477542313958
C          130.57869541056536       -3.40575565635969       -1.22007994213384
C          129.31359575669677       -2.77866911525815       -1.06058843020268
C          128.05659599825202       -3.35818936333376       -1.26008128830138
C          128.05501074792775       -4.80505869199260       -1.63876731779280
C          127.94938232889446       -5.73002695112524       -0.58114112272714
O          127.83628578204403       -5.17972794826842        0.65799017295183
C          127.68952888010669       -6.00519020317717        1.79573750826436
C          127.97373615204678       -7.09986507000421       -0.81513849679700
C          128.11132915868143       -7.56060501067021       -2.11929696382138
C          128.21091363143620       -6.67360011002386       -3.17112778780070
C          128.17909749955456       -5.29132193723184       -2.94273268091692
O          128.30228740722697       -4.54232806054954       -4.06940384557132
C          127.96405733253302       -3.16966514433254       -4.14123355911871
C          126.82774142492730       -2.73039680260800       -1.06650430210793
C          125.55028844202887       -3.39357781181868       -1.25257676665022
C          124.59995834286359       -2.47273416515073       -0.98706337896819
C          125.30018359070385       -1.25037007877364       -0.64436178849736
N          126.63388524538155       -1.43178656742269       -0.70380993231084
N          129.55818221245164       -1.48516687419170       -0.68171559374652
C          128.10747492032354        4.71413195266573        1.03946012836928
C          127.68568952559740        5.69966707216892        0.13705420528758
O          127.28725936388211        5.25501773765085       -1.08448782668797
C          126.86373852681263        6.16995894816900       -2.07556056945099
C          127.69922854858436        7.04452332113608        0.50509881012898
C          128.12748300358450        7.39744590811024        1.77586762195283
C          128.54277898977429        6.43921565891009        2.68794922190739
C          128.53459121475393        5.09445336553252        2.31898297780872
O          128.91070757030067        4.08290725456718        3.14394431904406
C          129.39240670663025        4.35950520286069        4.44386071991621
H          123.54283044334419        2.49884659193580        0.45532371214814
H          125.43038993866418        4.32464689984945        0.97123857240584
H          127.32096271192609        0.70558233971034       -0.10041231048305
H          130.74143764514517        4.34418195819776        0.89738529360281
H          132.63152307545599        2.48988887401614        0.40712763622385
H          132.61490543681379       -2.62089273323997       -0.95640685710524
H          130.72134061211966       -4.43289038141005       -1.51425152491252
H          127.59809315422575       -5.33155068619573        2.64982355382033
H          128.56396511388988       -6.65154769840578        1.93921857862674
H          126.78749892514521       -6.62529780264019        1.72799904632428
H          127.89367895155918       -7.80674871250411       -0.00041876184670
H          128.13612369300108       -8.62776360575494       -2.30879928164070
H          128.31413720431351       -7.02128752470734       -4.19121531339528
H          127.97169287597916       -2.91393856835558       -5.20354826470328
H          126.96566930592762       -2.98064440317731       -3.73271692312712
H          128.69621952093783       -2.54412749872054       -3.61919447703862
H          125.42649449979220       -4.42521957025929       -1.54066390123141
H          123.52759328304150       -2.58348586420183       -1.01258673480152
H          128.84099393123680       -0.79624947385065       -0.48112631615879
H          127.66286459314763        6.87248780919425       -2.34086465544124
H          125.97927274363806        6.73182649227627       -1.75180323699221
H          126.60698767727814        5.57130075996946       -2.95145432652226
H          127.38051210868643        7.81343232907879       -0.18576375372952
H          128.13626063846442        8.44329818452449        2.06240685957200
H          128.86728416199483        6.74298323628712        3.67412262480275
H          130.28930298441645        4.98977856098647        4.41343665844592
H          129.64722395066053        3.39401149263203        4.88465755111264
H          128.62746532739203        4.84646289306440        5.06074089586895
C          143.26163894365683       -0.02393600788211       -0.27471339045421
C          143.89109542086126        1.18918608563256        0.06647743027758
C          143.24642374639078        2.40113019866983        0.42702825246062
C          144.21558835671138        3.33114166994220        0.68565954210568
C          145.48037699467372        2.71417867539554        0.48649778010922
N          145.23293180324796        1.41958932295613        0.11562608865795
C          146.73944898293308        3.29960608948420        0.65558155313137
C          147.96604365894527        2.65979482837245        0.48573065841559
C          149.24846179420629        3.32145188701600        0.64577339539954
C          150.19327910670330        2.39165029204026        0.39751151174022
N          148.15328040565635        1.35647504931968        0.13567130756539
C          149.48606448201809        1.16608063801502        0.07955866610508
C          150.14869405042455       -0.03557565390225       -0.24549173632291
C          149.52151017491224       -1.24853162349305       -0.59240218517875
C          150.16412817489623       -2.46562434942727       -0.93826599329311
C          149.19344640739729       -3.38696621503273       -1.22388883867867
C          147.93048110023500       -2.75735809537273       -1.05787138569483
C          146.67144533233471       -3.33322166861219       -1.25475808828651
C          146.66450695613497       -4.77978702324000       -1.63516609998601
C          146.59093991339520       -5.70460780118691       -0.57455968180713
O          146.51400227403633       -5.15354650927283        0.66708017048799
C          146.40141553672436       -5.97845116882111        1.80911436661086
C          146.60792589626513       -7.07449836930689       -0.80837450054650
C          146.70564607966682       -7.53565629612500       -2.11601487814954
C          146.77482681255813       -6.64899063448515       -3.17042433811694
C          146.75081454928088       -5.26637115871633       -2.94199969100327
O          146.84224306085804       -4.51993001448126       -4.07309252031947
C          146.53633750768066       -3.13934186109351       -4.13324402782640
C          145.44490140464205       -2.70320095805942       -1.05413699999537
C          144.16523116689160       -3.36413872957797       -1.23275209063034
C          143.21812246397928       -2.44186870678668       -0.96069350609918
C          143.92247761720787       -1.22086215774672       -0.62161864935828
N          145.25544813968568       -1.40455488622425       -0.68903751225664
N          148.17945289866759       -1.46568298785734       -0.67577958306330
C          146.74995142522496        4.73671891528232        1.05255932025948
C          146.33245328706460        5.72359388371179        0.14967808369263
O          145.93320100293644        5.28012355269446       -1.07201397870153