242
 energy: -426.439266354950 gnorm: 0.762732472040 xtb: 6.5.1 (b24c23e)
Zn          44.79285200000000        0.02787600000000       -0.03230500000000
C           41.46256700000000       -0.12285400000000       -0.18210200000000
C           42.12868900000000       -1.27991700000000       -0.14892400000000
C           41.47959900000000       -2.58520400000000       -0.13758600000000
C           42.41933399999999       -3.50552300000000       -0.03436100000000
C           43.72390900000000       -2.83038000000000        0.01835500000000
N           43.54612200000000       -1.41535800000000       -0.05737400000000
C           44.91259700000000       -3.45078200000000        0.16607200000000
C           44.94757200000000       -4.92585600000000        0.27907200000000
C           44.75495299999999       -5.72699700000000       -0.85696000000000
C           44.78070899999999       -7.12032000000000       -0.74625200000000
C           45.00346700000000       -7.72328500000000        0.49962800000000
O           45.02926300000000       -9.11035100000000        0.62226700000000
C           45.20076800000000       -6.92574600000000        1.63229600000000
C           45.17157499999999       -5.53213200000000        1.52459100000000
C           46.20802200000000       -2.72215100000000        0.22920800000000
C           47.50201200000000       -3.37763900000000        0.45623900000000
C           48.43713300000000       -2.45137400000000        0.41301300000000
N           46.34751700000000       -1.44374600000000        0.04665200000000
C           47.74999999999999       -1.19274800000000        0.15062300000000
C           48.34676400000000       -0.00181600000000       -0.02843600000000
C           47.59157700000000        1.24351100000000       -0.30546300000000
C           48.14809700000000        2.37054100000000       -0.73003200000000
C           47.10374100000000        3.37271700000000       -0.79305500000000
C           45.97560600000000        2.79439200000000       -0.40096800000000
N           46.19216899999999        1.41937700000000       -0.07550700000000
C           44.67795700000000        3.50576500000000       -0.26751600000000
C           44.68721400000000        4.98722100000000       -0.21735600000000
C           45.30221499999999        5.64927500000000        0.85717500000000
C           45.31999700000000        7.04593100000000        0.90673500000000
C           44.73284900000000        7.79258400000000       -0.11884800000000
O           44.75248900000000        9.18331600000000       -0.05248000000000
C           44.13180699999999        7.13562400000000       -1.20259200000000
C           44.11033399999999        5.73921300000000       -1.25259900000000
C           43.50934800000000        2.84269000000000       -0.18145400000000
C           42.18681800000000        3.44443200000000       -0.01990200000000
C           41.32726000000000        2.44461400000000       -0.00842700000000
C           42.09108200000000        1.20674300000000       -0.14883400000000
N           43.36443100000000        1.42576100000000       -0.25113200000000
H           40.37940799999999       -0.15530400000000       -0.20848000000000
H           40.41620499999999       -2.78145400000000       -0.18673000000000
H           42.23140599999999       -4.57035500000000        0.01330900000000
H           44.58185600000000       -5.27149000000000       -1.82448900000000
H           44.62716899999999       -7.72983700000000       -1.62778500000000
H           44.88340700000000       -9.71519100000000       -0.17820100000000
H           45.37479600000000       -7.38668100000000        2.59669000000000
H           45.32359500000000       -4.92554000000000        2.40911300000000
H           47.68251200000000       -4.43153500000000        0.62315300000000
H           49.49781400000000       -2.62572400000000        0.53859200000000
H           49.19111300000000        2.53137600000000       -0.96615100000000
H           47.23073600000000        4.40548100000000       -1.08909800000000
H           45.75836399999999        5.08308500000000        1.65918000000000
H           45.78574500000000        7.54855100000000        1.74588300000000
H           44.32913700000000        9.75272600000000       -0.77685600000000
H           43.68289900000000        7.70595000000000       -2.00552800000000
H           43.64736800000000        5.24303400000000       -2.09794400000000
H           41.93432300000000        4.49196200000000        0.07714200000000
H           40.25428400000000        2.53823600000000        0.09746800000000
Zn          88.95180999999999       -0.03175600000000       -0.02800500000000
C           92.28209500000000        0.09592400000000       -0.19787800000000
C           91.61597300000000        1.24577500000000       -0.33105300000000
C           92.26506299999998        2.53918400000000       -0.50710800000000
C           91.32532900000000        3.46479300000000       -0.53699200000000
C           90.02075300000000        2.80419800000000       -0.38795700000000
N           90.19853999999998        1.39295100000000       -0.25988200000000
C           88.83206500000000        3.43937400000000       -0.33077900000000
C           88.79709099999998        4.91540000000000       -0.43058400000000
C           88.98970899999999        5.54526100000000       -1.66980600000000
C           88.96395400000000        6.94005200000000       -1.76014900000000
C           88.74119500000000        7.71553100000000       -0.61367000000000
O           88.71539900000001        9.10584300000000       -0.69130800000000
C           88.54389500000001        7.08875200000000        0.62170600000000
C           88.57308800000000        5.69410400000000        0.71506300000000
C           87.53664000000001        2.72734000000000       -0.16375600000000
C           86.24265000000000        3.40862000000000       -0.03312000000000
C           85.30752900000000        2.48573600000000        0.05699700000000
N           87.39714499999999        1.43596900000000       -0.16100500000000
C           85.99466200000001        1.20248600000000       -0.02209800000000
C           85.39789800000000       -0.00181600000000       -0.02843600000000
C           86.15308500000000       -1.27400500000000       -0.12392400000000
C           85.59656600000000       -2.45028900000000       -0.38240100000000
C           86.64092100000001       -3.45113900000000       -0.30098500000000
C           87.76905599999999       -2.82254200000000        0.00407100000000
N           87.55249300000000       -1.41505800000000        0.12888500000000
C           89.06670600000000       -3.50740800000000        0.23820600000000
C           89.05744799999999       -4.96634100000000        0.50039900000000
C           88.44244699999999       -5.46737800000000        1.65880000000000
C           88.42466600000000       -6.84247300000000        1.90823200000000
C           89.01181400000000       -7.72854600000000        1.00038600000000
O           88.99217400000001       -9.09536800000000        1.26560100000000
C           89.61285499999998       -7.23387300000000       -0.16640300000000
C           89.63432899999999       -5.85908400000000       -0.41624200000000
C           90.23531399999999       -2.83884600000000        0.22824300000000
C           91.55784500000000       -3.41118500000000        0.47445900000000
C           92.41740199999998       -2.42006400000000        0.34236600000000
C           91.65358099999999       -1.21514400000000        0.02580900000000
N           90.38023099999999       -1.44657400000000       -0.04400700000000
H           93.36525399999998        0.12425300000000       -0.22863900000000
H           93.32845700000000        2.72635400000000       -0.58389900000000
H           91.51325699999998        4.52544700000000       -0.64259200000000
H           89.16280600000000        4.95565100000000       -2.56197200000000
H           89.11749399999999        7.41678500000000       -2.72001300000000
H           88.86125600000000        9.58957800000000       -1.57027300000000
H           88.36986600000000        7.68328400000000        1.50999000000000
H           88.42106800000001        5.22069400000000        1.67746500000000
H           86.06215000000000        4.47556000000000       -0.01914000000000
H           84.24684900000000        2.67630000000000        0.15626100000000
H           84.55355000000000       -2.64333700000000       -0.59300100000000
H           86.51392600000000       -4.51569300000000       -0.44578900000000
H           87.98629800000001       -4.79197800000000        2.37127400000000
H           87.95891700000000       -7.21949600000000        2.81081100000000
H           89.41552599999999       -9.76281600000000        0.63041500000000
H           90.06176300000000       -7.91349900000000       -0.87920500000000
H           90.09729400000001       -5.48932400000000       -1.32403100000000
H           91.81034000000000       -4.43395300000000        0.72079200000000
H           93.49037800000001       -2.49752400000000        0.46059800000000
C           52.14099599999999        0.01091600000000       -0.02591100000000
C           50.88872599999999       -0.00826500000000       -0.03025900000000
C           53.45466499999999        0.01015000000000       -0.02397800000000
C           54.95779800000000       -0.00826500000000       -0.03025900000000
C           66.13310000000000        0.01091600000000       -0.02591100000000
C           64.88083000000000       -0.00826500000000       -0.03025900000000
C           67.44676900000000        0.01015000000000       -0.02397800000000
C           68.94990199999999       -0.00826500000000       -0.03025900000000
C           80.12520499999999        0.01091600000000       -0.02591100000000
C           78.87293400000000       -0.00826500000000       -0.03025900000000
C           81.43887300000000        0.01015000000000       -0.02397800000000
C           82.94200600000001       -0.00826500000000       -0.03025900000000
Zn          59.85218400000000        0.02176100000000       -0.04178400000000
C           56.43058900000000        0.00271800000000        0.03212000000000
C           57.08752999999999        0.98309600000000        0.67974100000000
C           56.44811300000000        2.03731900000000        1.47022500000000
C           57.38785200000000        2.84371400000000        1.92341600000000
C           58.68468800000000        2.35406100000000        1.44876300000000
N           58.50461700000000        1.17285500000000        0.66386400000000
C           59.86931100000000        2.94956000000000        1.69641400000000
C           59.90008400000000        4.20789400000000        2.47102900000000
C           60.20238400000000        4.18373300000000        3.84414600000000
C           60.24489600000000        5.37691400000000        4.57325200000000
C           59.99348400000000        6.59990300000000        3.93475100000000
O           60.04251099999999        7.78152900000000        4.67173800000000
C           59.69478800000000        6.62535300000000        2.56144400000000
C           59.64804600000000        5.43348200000000        1.83192100000000
C           61.16804299999999        2.40936400000000        1.22496700000000
C           62.43806200000000        3.13992300000000        1.31930600000000
C           63.39157500000000        2.35088400000000        0.86689900000000
N           61.33572600000000        1.21966300000000        0.73575600000000
C           62.73617400000000        1.10733300000000        0.48142700000000
C           63.35228000000000        0.00271800000000        0.03212000000000
C           62.60289100000000       -1.21216300000000       -0.35584300000000
C           63.14202400000000       -2.41858500000000       -0.48104500000000
C           62.10849399999999       -3.29876200000000       -0.99163600000000
C           61.00927299999999       -2.56843300000000       -1.14689700000000
N           61.23106900000000       -1.21602700000000       -0.75032600000000
C           59.75104000000000       -3.06405200000000       -1.75715900000000
C           59.81388300000000       -4.26085700000000       -2.63145000000000
C           59.13676000000000       -5.44153900000000       -2.27734100000000
C           59.20289200000000       -6.56622900000000       -3.10656200000000
C           59.94645499999999       -6.52218400000000       -4.29469800000000
O           60.01537500000000       -7.63402100000000       -5.13102300000000
C           60.62751400000000       -5.35100200000000       -4.64526500000000
C           60.56649199999999       -4.22590000000000       -3.81604300000000
C           58.57579800000000       -2.43333500000000       -1.56345000000000
C           57.29894900000000       -2.78803000000000       -2.17818300000000
C           56.41068400000000       -1.94658100000000       -1.68987600000000
C           57.10841400000000       -1.04621100000000       -0.76393300000000
N           58.37446700000000       -1.32284600000000       -0.68783500000000
H           55.39191700000000        2.16290200000000        1.66551800000000
H           57.20579499999999        3.71410300000000        2.54159900000000
H           60.40157700000000        3.24317900000000        4.34747700000000
H           60.47521099999999        5.35191700000000        5.63367100000000
H           59.85496700000000        8.68296900000000        4.23555400000000
H           59.50138799999999        7.56689100000000        2.05899100000000
H           59.42074000000000        5.46373500000000        0.77120600000000
H           62.58690800000000        4.14544800000000        1.69260700000000
H           64.44236900000000        2.60326500000000        0.80977000000000
H           64.16885700000000       -2.69337200000000       -0.27708000000000
H           62.22648299999999       -4.34600000000000       -1.23894400000000
H           58.56057600000000       -5.48838900000000       -1.36050100000000
H           58.67537100000000       -7.46982800000000       -2.82554300000000
H           59.54820500000000       -8.50243100000000       -4.89527200000000
H           61.20479200000000       -5.31247700000000       -5.56056900000000
H           61.09706700000000       -3.32526300000000       -4.10117100000000
H           57.09512600000000       -3.56964000000000       -2.89956500000000
H           55.36009700000000       -1.93569400000000       -1.95005600000000
Zn          73.84428800000001        0.02176100000000       -0.04178400000000
C           70.42269300000000        0.00271800000000        0.03212000000000
C           71.07963400000000        0.98309600000000        0.67974100000000
C           70.44021699999999        2.03731900000000        1.47022500000000
C           71.37995600000001        2.84371400000000        1.92341600000000
C           72.67679200000001        2.35406100000000        1.44876300000000
N           72.49672099999999        1.17285500000000        0.66386400000000
C           73.86141499999999        2.94956000000000        1.69641400000000
C           73.89218800000000        4.20789400000000        2.47102900000000
C           74.19448799999999        4.18373300000000        3.84414600000000
C           74.23699999999999        5.37691400000000        4.57325200000000
C           73.98558900000000        6.59990300000000        3.93475100000000
O           74.03461500000000        7.78152900000000        4.67173800000000
C           73.68689200000000        6.62535300000000        2.56144400000000
C           73.64014999999999        5.43348200000000        1.83192100000000
C           75.16014699999999        2.40936400000000        1.22496700000000
C           76.43016599999999        3.13992300000000        1.31930600000000
C           77.38367900000000        2.35088400000000        0.86689900000000
N           75.32783000000001        1.21966300000000        0.73575600000000
C           76.72827800000000        1.10733300000000        0.48142700000000
C           77.34438399999999        0.00271800000000        0.03212000000000
C           76.59499500000000       -1.21216300000000       -0.35584300000000
C           77.13412799999999       -2.41858500000000       -0.48104500000000
C           76.10059900000000       -3.29876200000000       -0.99163600000000
C           75.00137700000001       -2.56843300000000       -1.14689700000000
N           75.22317299999999       -1.21602700000000       -0.75032600000000
C           73.74314399999999       -3.06405200000000       -1.75715900000000
C           73.80598699999999       -4.26085700000000       -2.63145000000000
C           73.12886399999999       -5.44153900000000       -2.27734100000000
C           73.19499599999999       -6.56622900000000       -3.10656200000000
C           73.93855900000000       -6.52218400000000       -4.29469800000000
O           74.00747900000000       -7.63402100000000       -5.13102300000000
C           74.61961800000000       -5.35100200000000       -4.64526500000000
C           74.55859599999999       -4.22590000000000       -3.81604300000000
C           72.56790200000000       -2.43333500000000       -1.56345000000000
C           71.29105299999999       -2.78803000000000       -2.17818300000000
C           70.40278800000000       -1.94658100000000       -1.68987600000000
C           71.10051799999998       -1.04621100000000       -0.76393300000000
N           72.36657099999999       -1.32284600000000       -0.68783500000000
H           69.38402099999999        2.16290200000000        1.66551800000000
H           71.19789900000001        3.71410300000000        2.54159900000000
H           74.39368100000000        3.24317900000000        4.34747700000000
H           74.46731500000000        5.35191700000000        5.63367100000000
H           73.84707100000000        8.68296900000000        4.23555400000000
H           73.49349200000000        7.56689100000000        2.05899100000000
H           73.41284400000001        5.46373500000000        0.77120600000000
H           76.57901300000000        4.14544800000000        1.69260700000000
H           78.43447300000000        2.60326500000000        0.80977000000000
H           78.16096100000000       -2.69337200000000       -0.27708000000000
H           76.21858700000000       -4.34600000000000       -1.23894400000000
H           72.55268000000000       -5.48838900000000       -1.36050100000000
H           72.66747500000000       -7.46982800000000       -2.82554300000000
H           73.54030899999999       -8.50243100000000       -4.89527200000000
H           75.19689600000000       -5.31247700000000       -5.56056900000000
H           75.08917099999999       -3.32526300000000       -4.10117100000000
H           71.08723000000001       -3.56964000000000       -2.89956500000000
H           69.35220099999999       -1.93569400000000       -1.95005600000000
242
 energy: -426.732865519512 gnorm: 0.490302134000 xtb: 6.5.1 (b24c23e)
Zn          44.79702266294915        0.02475927086874       -0.03472574483028
C           41.46232457771807       -0.10541788856413       -0.18182922287211
C           42.13358245886694       -1.28112023869497       -0.14804075053873
C           41.47915607061200       -2.57885305875065       -0.13781744561997
C           42.42955495586514       -3.50800290987432       -0.03367706074674
C           43.72322495428311       -2.82540893933330        0.01802519818847
N           43.52506075691283       -1.43638001935401       -0.05869156771171
C           44.92910645593580       -3.44653216526789        0.16748989441930
C           44.95271220785988       -4.92860216982004        0.27918752146919
C           44.75500669748289       -5.73042979108260       -0.85141162213320
C           44.78053727901072       -7.11954214924616       -0.74474105315548
C           45.00233508433661       -7.72922770421557        0.49374206220125
O           45.02948145877971       -9.10639808015151        0.62374141364392
C           45.19967951220271       -6.92962829662796        1.62717687657151
C           45.17261954791021       -5.53958537659051        1.51900492227020
C           46.20400909111531       -2.73856672486786        0.23064469314830
C           47.49090639950685       -3.38915313088600        0.45604304029924
C           48.43834250536618       -2.44602908268979        0.41249187955874
N           46.36421958017981       -1.44377055585139        0.04878279593789
C           47.76432994616609       -1.18870121300293        0.15050064988456
C           48.34470868197803        0.01376016015282       -0.03371838534949
C           47.59312171483998        1.23165432748772       -0.29600454073251
C           48.15307702223544        2.39435419736858       -0.73565804243131
C           47.12774299708380        3.37543608731730       -0.79491890115703
C           45.96797039320428        2.78229274044672       -0.39085095795455
N           46.20345499787185        1.42442477195875       -0.07828266204922
C           44.69272342582769        3.49627955546182       -0.26673676532899
C           44.69598062537583        4.98549254081161       -0.22088769396887
C           45.30116058820619        5.65486807150219        0.85117985668382
C           45.31650925324297        7.04841747566701        0.90243434608277
C           44.72948308069850        7.79816030835948       -0.12445160125652
O           44.75314517938467        9.17902545743421       -0.05147733570253
C           44.13214212160636        7.13416642069742       -1.20084441150652
C           44.11209160263916        5.74133427346732       -1.24726930885331
C           43.50781377435843        2.84185102157884       -0.18037790181077
C           42.19367840564805        3.44385227869290       -0.02112945412295
C           41.31644805661073        2.43374417544735       -0.00913576491853
C           42.07046429303661        1.19905620106265       -0.14927700128394
N           43.36031281402548        1.43833339376895       -0.24667328096213
H           40.37949868930774       -0.14893591674377       -0.20806758877591
H           40.41639650453753       -2.77285330870081       -0.18747939950947
H           42.24249224125786       -4.57145530052624        0.01378604379483
H           44.58279314597903       -5.27207132944702       -1.82092575762528
H           44.62732690318371       -7.72987177947008       -1.62737904281289
H           44.88548971654982       -9.68745981193203       -0.16724414381688
H           45.37410911339928       -7.38836254558538        2.59419711013535
H           45.32295838135232       -4.92863990101474        2.40531568951471
H           47.67386326720223       -4.43746030111476        0.62318182489384
H           49.49784642803762       -2.61573418784559        0.53724623563257
H           49.19376428057549        2.53827048332017       -0.96893895712990
H           47.23740278925781        4.40620378675947       -1.09122287129422
H           45.75693756492977        5.08541900992118        1.65598815994001
H           45.78429417059028        7.54949811091860        1.74331414513544
H           44.33570534662950        9.72562983825581       -0.76643717909500
H           43.68309119482784        7.70572118377837       -2.00506446239329
H           43.64927852501216        5.24366341757218       -2.09476257635761
H           41.94441836076912        4.49143694072184        0.07619200023576
H           40.24910592693417        2.53105197546889        0.09718737275719
Zn          88.94763768323281       -0.02904630084328       -0.03087690897611
C           92.28232300760590        0.07873585150253       -0.19510755012718
C           91.61110036561217        1.24709090425622       -0.33035753006407
C           92.26550397821440        2.53287044644325       -0.50642552960420
C           91.31509342075670        3.46732919788276       -0.53667127394793
C           90.02142405196579        2.79915327786114       -0.38756219643045
N           90.21956002163130        1.41357474041199       -0.26418203746877
C           88.81538936358709        3.43525274281802       -0.32874780065039
C           88.79190449029770        4.91810791232030       -0.43085965053277
C           88.98965745989511        5.54944273007980       -1.66480896109063
C           88.96412919478713        6.93948731155329       -1.75854161249793
C           88.74232282231834        7.72058734957459       -0.62035369665104
O           88.71519749724537        9.10209166044597       -0.68928056410447
C           88.54498730985912        7.09185610017258        0.61608272604977
C           88.57203733883813        5.70067359275298        0.70847263785659
C           87.54054729233377        2.74357009877237       -0.16469990808196
C           86.25370372402620        3.41997068478881       -0.03497304719092
C           85.30611409495681        2.48060324834678        0.05728695786061
N           87.37971766921821        1.43578564323595       -0.15885212791969
C           85.97919013792631        1.19847096356052       -0.02162885669838
C           85.39648895683692       -0.01777066424569       -0.03108970919267
C           86.15034128041152       -1.26081932924633       -0.11613429832837
C           85.59130740729749       -2.47478972595599       -0.38458519855653
C           86.61686011126504       -3.45400121029878       -0.30244756839988
C           87.77652529418661       -2.80889416323724        0.01234795761616
N           87.54059032378680       -1.42001548509790        0.12680038467280
C           89.05186982294097       -3.49784594757684        0.23762191241431
C           89.04865338007737       -4.96512131416289        0.49665058434407
C           88.44347745972472       -5.47377531628786        1.65367672234546
C           88.42815710838634       -6.84554373215834        1.90433876588113
C           89.01516900290579       -7.73489727961724        0.99563843767147
O           88.99155784117120       -9.09090600375203        1.26597338164022
C           89.61252321449378       -7.23216884632124       -0.16488466994957
C           89.63258771713586       -5.86041120368739       -0.41066371591992
C           90.23682208722754       -2.83784642540508        0.22918711250169
C           91.55097277720132       -3.41078349265262        0.47315320167444
C           92.42820203544812       -2.40941694111801        0.34010726114636
C           91.67417857503230       -1.20762233651301        0.02427083598820
N           90.38433928303795       -1.45835509415752       -0.03778657846389
H           93.36515104011852        0.11801720865150       -0.22732035120445
H           93.32825739508175        2.71773761543818       -0.58340696741117
H           91.50215472882371        4.52659010431449       -0.64227649709022
H           89.16186524310130        4.95673463527392       -2.55853175169126
H           89.11733426933982        7.41686312096253       -2.71961274909532
H           88.85915896705234        9.56370992894038       -1.55544511108108
H           88.37055324807346        7.68458372950988        1.50728035830580
H           88.42170337849015        5.22321617182157        1.67326830261053
H           86.07082327998691        4.48140942141278       -0.01996791580560
H           84.24664697860015        2.66623842246699        0.15636691788134
H           84.55072921279003       -2.65064759958311       -0.59477621327579
H           86.50728299685484       -4.51664163546008       -0.44778314869585
H           87.98771984256942       -4.79474691259489        2.36845805190115
H           87.96036670445422       -7.22079326964053        2.80840181157299
H           89.40892848688107       -9.73451193011097        0.63684262205219
H           90.06156739768916       -7.91319105476035       -0.87878244892162
H           90.09538145561484       -5.48948792148971       -1.32079942079082
H           91.80023529750919       -4.43356071309137        0.71977291037963
H           93.49554310120767       -2.49045263802278        0.45928949338961
C           52.15763226672355        0.01096392397380       -0.02773895416643
C           50.89694081724835       -0.00748680459696       -0.02945933461223
C           53.52824147811349        0.00899995488151       -0.02152253633762
C           54.89033539018209       -0.00852745654584       -0.02726648407418
C           66.15194972046973        0.00824908146246       -0.02627955518166
C           64.88391010044613       -0.01401923826872       -0.02958605449162
C           67.51648823905255        0.00941821473689       -0.02222285128751
C           68.88356613345978       -0.00755065557743       -0.02733301411956
C           80.14024069232752        0.00824046587568       -0.02557398245068
C           78.87611738072877       -0.01392617548022       -0.02963774666443
C           81.50843968813474        0.00892847361291       -0.02431551942758
C           82.85757231896586       -0.00734581529141       -0.03063041043708
Zn          59.85172011695948        0.01887091680400       -0.03940222594280
C           56.37680185083821       -0.00678007863243        0.01451860031147
C           57.07767532505002        0.98467680617589        0.68016221427437
C           56.44509589273245        2.03045365028189        1.46546827715718
C           57.39805339050453        2.84565023344829        1.92347664432489
C           58.68114357287720        2.34811130845013        1.44532553543513
N           58.47450316021531        1.18340832777581        0.67760731268774
C           59.88452381132795        2.94651971120641        1.69230039215714
C           59.90511151617896        4.21144766704130        2.47194853153138
C           60.20185058662012        4.19351074118679        3.84152054974271
C           60.24333086721811        5.38326919678229        4.56936514652160
C           59.99183927262811        6.60767798901449        3.93190612958004