242
 energy: -441.313968654735 gnorm: 0.797421284447 xtb: 6.5.1 (b24c23e)
Cu          48.32331199999999       -0.38620500000000       -0.26172200000000
C           44.93760600000000       -0.24388200000000       -0.21384600000000
C           45.60310199999999        0.54592100000000        0.63367500000000
C           44.95549600000000        1.43145000000000        1.59440900000000
C           45.90000799999999        2.07942400000000        2.25109700000000
C           47.20452999999999        1.64086100000000        1.73570900000000
N           47.02288500000000        0.66334400000000        0.71105100000000
C           48.39790200000000        2.11429000000000        2.14197800000000
C           48.43931500000000        3.12816700000000        3.17218600000000
C           48.47634400000000        3.97338500000000        4.03092700000000
C           48.52125300000000        4.98169700000000        5.05570800000000
C           49.72684599999999        5.62685700000000        5.35498600000000
C           49.74869700000000        6.60343600000000        6.35433300000000
N           48.60765199999999        6.91865000000000        7.02518600000000
C           47.42514100000000        6.30412900000000        6.75072100000000
C           47.35971400000000        5.32211900000000        5.75866000000000
C           49.69280300000000        1.65936200000000        1.57620500000000
C           50.98411800000000        2.27907300000000        1.89712700000000
C           51.92046800000000        1.61701000000000        1.24917300000000
N           49.83321800000000        0.65545700000000        0.76473100000000
C           51.23503200000000        0.56393100000000        0.50880900000000
C           51.83106400000000       -0.37415900000000       -0.24668000000000
C           51.07407599999999       -1.42140100000000       -0.97283200000000
C           51.62695800000000       -2.50227700000000       -1.50956700000000
C           50.58051100000000       -3.22449200000000       -2.20470300000000
C           49.45393500000000       -2.53861800000000       -2.04739700000000
N           49.67568299999999       -1.36599900000000       -1.26038600000000
C           48.15646900000000       -2.90970200000000       -2.66655100000000
C           48.14977199999999       -3.91991800000000       -3.70278000000000
C           48.14463500000000       -4.76165400000000       -4.56580700000000
C           48.13833700000000       -5.76599600000000       -5.59550700000000
C           49.33141400000000       -6.39023100000000       -5.97614300000000
C           49.30354700000000       -7.36284800000000       -6.97924400000000
N           48.12662700000000       -7.69476300000000       -7.57505200000000
C           46.95527800000000       -7.10103400000000       -7.22058800000000
C           46.93914200000000       -6.12342800000000       -6.22199600000000
C           46.99340599999999       -2.34713000000000       -2.29540100000000
C           45.67371300000000       -2.66362500000000       -2.83953400000000
C           44.81156599999999       -1.93588600000000       -2.15640900000000
C           45.57102399999999       -1.15263400000000       -1.18280700000000
N           46.84399300000000       -1.38522200000000       -1.25371300000000
H           43.85416200000000       -0.22030000000000       -0.19477600000000
H           43.89114700000000        1.55030400000000        1.75183600000000
H           45.71761200000000        2.81115700000000        3.02772200000000
H           50.63757800000000        5.37801100000000        4.82250200000000
H           50.67324600000000        7.11084700000000        6.59670200000000
H           46.53547099999999        6.57788900000000        7.30261400000000
H           46.41618299999999        4.83474400000000        5.54233500000000
H           51.15879000000000        3.12719800000000        2.54629800000000
H           52.97967499999999        1.83401300000000        1.28520900000000
H           52.66877300000000       -2.78938600000000       -1.46379700000000
H           50.70619600000000       -4.14074800000000       -2.76702400000000
H           50.27053800000000       -6.12833700000000       -5.50351100000000
H           50.21809099999999       -7.85398400000000       -7.28405800000000
H           46.03610200000000       -7.38774300000000       -7.71390200000000
H           46.00428600000000       -5.65255800000000       -5.94216700000000
H           45.42639400000000       -3.35734200000000       -3.63283300000000
H           43.73886499999999       -1.93246600000000       -2.29861200000000
Cu          88.99654099999999       -0.35506700000000       -0.24406500000000
C           92.38224700000001       -0.46921600000000       -0.34162500000000
C           91.71675200000000       -1.60199000000000       -0.58432600000000
C           92.36435700000000       -2.88106200000000       -0.85105800000000
C           91.41984500000000       -3.77725900000000       -1.07001300000000
C           90.11532300000000       -3.10982600000000       -0.95823000000000
N           90.29696799999999       -1.72867200000000       -0.64537400000000
C           88.92195100000001       -3.70151500000000       -1.15595100000000
C           88.88053800000000       -5.10609600000000       -1.49716300000000
C           88.84350900000000       -6.27694700000000       -1.78166000000000
C           88.79859999999998       -7.67401500000000       -2.12088200000000
C           87.59300700000000       -8.26204700000000       -2.52090200000000
C           87.57115599999999       -9.62099800000000       -2.84594800000000
N           88.71220200000000      -10.35852500000000       -2.77206500000000
C           89.89471199999998       -9.80751400000000       -2.38560000000000
C           89.96014000000000       -8.45202800000000       -2.05215300000000
C           87.62704999999998       -2.98244200000000       -1.05599200000000
C           86.33573499999999       -3.57598400000000       -1.42306100000000
C           85.39938499999998       -2.68005000000000       -1.18753200000000
N           87.48663500000001       -1.77069000000000       -0.61104700000000
C           86.08482200000000       -1.50407900000000       -0.66388400000000
C           85.48878900000000       -0.37415900000000       -0.24668000000000
C           86.24577700000000        0.78661800000000        0.27925400000000
C           85.69289499999999        1.80210900000000        0.93129300000000
C           86.73934199999998        2.76941400000000        1.19422000000000
C           87.86591900000001        2.28231600000000        0.68637800000000
N           87.64417000000000        1.00494700000000        0.08409100000000
C           89.16338399999998        3.00415800000000        0.68698100000000
C           89.17008100000000        4.41202800000000        1.02196000000000
C           89.17521799999999        5.58476800000000        1.30126900000000
C           89.18151599999999        6.98401900000000        1.63455800000000
C           87.98844000000000        7.63112900000000        1.97485600000000
C           88.01630600000000        8.99126700000000        2.29457400000000
N           89.19322699999999        9.67296500000000        2.27354900000000
C           90.36457600000000        9.06397600000000        1.94599600000000
C           90.38071100000001        7.70514600000000        1.61968100000000
C           90.32644800000000        2.39684400000000        0.39473200000000
C           91.64613999999999        3.02628100000000        0.38700300000000
C           92.50828700000000        2.06644800000000        0.11316700000000
C           91.74883000000000        0.82883700000000       -0.05918700000000
N           90.47585999999998        1.00908900000000        0.10401300000000
H           93.46569100000001       -0.49768800000000       -0.35207200000000
H           93.42870600000001       -3.07717700000000       -0.87223800000000
H           91.60224099999999       -4.81938000000000       -1.29927600000000
H           86.68227600000000       -7.67733700000000       -2.58070600000000
H           86.64660700000000      -10.08947800000000       -3.15697100000000
H           90.78438199999999      -10.42167100000000       -2.33721200000000
H           90.90367000000001       -8.01618400000000       -1.74495500000000
H           86.16106299999998       -4.56848000000000       -1.81763800000000
H           84.34017799999999       -2.82237600000000       -1.35525800000000
H           84.65107999999998        1.91022200000000        1.20117800000000
H           86.61365699999999        3.72235300000000        1.69185200000000
H           87.04931500000001        7.09108300000000        1.99273700000000
H           87.10176199999998        9.50498000000000        2.55957300000000
H           91.28375099999998        9.63451000000000        1.93879300000000
H           91.31556700000000        7.22327800000000        1.35924700000000
H           91.89345899999998        4.06319600000000        0.57508100000000
H           93.58098800000000        2.18672700000000        0.03723100000000
C           54.99138200000000       -0.36172300000000       -0.24423900000000
C           53.73911100000000       -0.38090400000000       -0.24858700000000
C           56.30505000000000       -0.36248900000000       -0.24230600000000
C           57.80818299999999       -0.38090400000000       -0.24858700000000
C           67.92266399999998       -0.36172300000000       -0.24423900000000
C           66.67039300000000       -0.38090400000000       -0.24858700000000
C           69.23633199999999       -0.36248900000000       -0.24230600000000
C           70.73946599999999       -0.38090400000000       -0.24858700000000
C           80.85394599999999       -0.36172300000000       -0.24423900000000
C           79.60167600000000       -0.38090400000000       -0.24858700000000
C           82.16761400000000       -0.36248900000000       -0.24230600000000
C           83.67074800000000       -0.38090400000000       -0.24858700000000
Cu          62.26134200000000        0.29374300000000        0.27604100000000
C           58.77972999999999        0.42081900000000        0.27717500000000
C           59.43487499999999        0.97100200000000       -0.75879100000000
C           58.78177800000000        1.53134800000000       -1.93903600000000
C           59.70947500000000        1.80168700000000       -2.83125300000000
C           61.01673099999999        1.48648500000000       -2.25039100000000
N           60.85159899999999        0.94585900000000       -0.94249900000000
C           62.19644100000000        1.67309700000000       -2.87135500000000
C           62.20332899999999        2.07047300000000       -4.26055500000000
C           62.19814199999999        2.35650600000000       -5.43369200000000
C           62.17963200000000        2.65938900000000       -6.83760400000000
C           63.12416600000000        2.08328100000000       -7.69207900000000
C           63.07612499999999        2.37357900000000       -9.05839100000000
N           62.11372100000000        3.20244000000000       -9.54544100000000
C           61.17778800000000        3.76278800000000       -8.73242600000000
C           61.19477400000000        3.50540700000000       -7.35975200000000
C           63.50830600000000        1.46692400000000       -2.21225300000000
C           64.77989300000000        1.95171400000000       -2.75670200000000
C           65.73113100000000        1.62751800000000       -1.90420200000000
N           63.67446300000000        0.86693200000000       -1.07911800000000
C           65.07410000000000        0.92451500000000       -0.81226800000000
C           65.67952500000000        0.42081900000000        0.27717500000000
C           64.95294300000000       -0.34800100000000        1.31405300000000
C           65.54319200000000       -0.98631000000000        2.32126500000000
C           64.51750600000000       -1.71985900000000        3.03816800000000
C           63.36483100000000       -1.47991500000000        2.42495600000000
N           63.54859199999999       -0.60000300000000        1.31291400000000
C           62.06608899999999       -2.07374700000000        2.83103000000000
C           62.08689600000000       -3.27164000000000        3.63910200000000
C           62.12056600000000       -4.30942700000000        4.25191500000000
C           62.18448200000000       -5.58611200000000        4.90670300000000
C           61.01487300000000       -6.21979200000000        5.33362400000000
C           61.08113800000000       -7.54342700000000        5.77107400000000
N           62.27357200000000       -8.19526200000000        5.79715400000000
C           63.42753999999999       -7.58779200000000        5.42470400000000
C           63.40495300000000       -6.27002700000000        4.97507400000000
C           60.88581400000000       -1.58432700000000        2.41572200000000
C           59.57135199999999       -2.06885800000000        2.82667200000000
C           58.69038599999999       -1.34710600000000        2.16307800000000
C           59.43073500000000       -0.41372100000000        1.30826400000000
N           60.71549900000000       -0.54653300000000        1.45095000000000
H           57.72814300000000        1.69519500000000       -2.08422900000000
H           59.52232600000000        2.23531400000000       -3.79621000000000
H           63.88616699999999        1.41669600000000       -7.31042100000000
H           63.80830000000000        1.94580600000000       -9.72715800000000
H           60.42235900000000        4.41032000000000       -9.15265200000000
H           60.44180099999999        3.94643300000000       -6.72055800000000
H           64.92907700000001        2.49104400000000       -3.68066400000000
H           66.78002499999999        1.84861900000000       -2.02638700000000
H           66.60011000000000       -1.00702900000000        2.55181900000000
H           64.67409600000001       -2.36017500000000        3.90333200000000
H           60.05537100000000       -5.71332200000000        5.26708500000000
H           60.17833300000000       -8.06362800000000        6.05826100000000
H           64.35651000000000       -8.13621800000000        5.44313700000000
H           64.31904800000000       -5.80599100000000        4.62915400000000
H           59.33674500000000       -2.85614800000000        3.53205900000000
H           57.61494900000000       -1.45356000000000        2.24110900000000
Cu          75.19262500000001        0.29374300000000        0.27604100000000
C           71.71101200000000        0.42081900000000        0.27717500000000
C           72.36615800000000        0.97100200000000       -0.75879100000000
C           71.71306100000000        1.53134800000000       -1.93903600000000
C           72.64075800000001        1.80168700000000       -2.83125300000000
C           73.94801400000000        1.48648500000000       -2.25039100000000
N           73.78288100000000        0.94585900000000       -0.94249900000000
C           75.12772300000000        1.67309700000000       -2.87135500000000
C           75.13461100000001        2.07047300000000       -4.26055500000000
C           75.12942400000000        2.35650600000000       -5.43369200000000
C           75.11091399999998        2.65938900000000       -6.83760400000000
C           76.05544899999998        2.08328100000000       -7.69207900000000
C           76.00740700000000        2.37357900000000       -9.05839100000000
N           75.04500299999999        3.20244000000000       -9.54544100000000
C           74.10906999999999        3.76278800000000       -8.73242600000000
C           74.12605700000000        3.50540700000000       -7.35975200000000
C           76.43958799999999        1.46692400000000       -2.21225300000000
C           77.71117500000000        1.95171400000000       -2.75670200000000
C           78.66241399999998        1.62751800000000       -1.90420200000000
N           76.60574600000000        0.86693200000000       -1.07911800000000
C           78.00538299999998        0.92451500000000       -0.81226800000000
C           78.61080699999998        0.42081900000000        0.27717500000000
C           77.88422600000000       -0.34800100000000        1.31405300000000
C           78.47447400000000       -0.98631000000000        2.32126500000000
C           77.44878900000000       -1.71985900000000        3.03816800000000
C           76.29611300000001       -1.47991500000000        2.42495600000000
N           76.47987400000000       -0.60000300000000        1.31291400000000
C           74.99737100000000       -2.07374700000000        2.83103000000000
C           75.01817900000000       -3.27164000000000        3.63910200000000
C           75.05184799999999       -4.30942700000000        4.25191500000000
C           75.11576400000000       -5.58611200000000        4.90670300000000
C           73.94615499999999       -6.21979200000000        5.33362400000000
C           74.01241999999999       -7.54342700000000        5.77107400000000
N           75.20485400000000       -8.19526200000000        5.79715400000000
C           76.35882300000000       -7.58779200000000        5.42470400000000
C           76.33623600000000       -6.27002700000000        4.97507400000000
C           73.81709600000001       -1.58432700000000        2.41572200000000
C           72.50263400000000       -2.06885800000000        2.82667200000000
C           71.62166900000000       -1.34710600000000        2.16307800000000
C           72.36201799999999       -0.41372100000000        1.30826400000000
N           73.64678199999999       -0.54653300000000        1.45095000000000
H           70.65942500000000        1.69519500000000       -2.08422900000000
H           72.45360899999999        2.23531400000000       -3.79621000000000
H           76.81744900000000        1.41669600000000       -7.31042100000000
H           76.73958199999998        1.94580600000000       -9.72715800000000
H           73.35364199999999        4.41032000000000       -9.15265200000000
H           73.37308400000001        3.94643300000000       -6.72055800000000
H           77.86035999999999        2.49104400000000       -3.68066400000000
H           79.71130800000000        1.84861900000000       -2.02638700000000
H           79.53139299999999       -1.00702900000000        2.55181900000000
H           77.60537799999999       -2.36017500000000        3.90333200000000
H           72.98665300000000       -5.71332200000000        5.26708500000000
H           73.10961600000000       -8.06362800000000        6.05826100000000
H           77.28779200000000       -8.13621800000000        5.44313700000000
H           77.25033100000000       -5.80599100000000        4.62915400000000
H           72.26802700000000       -2.85614800000000        3.53205900000000
H           70.54623100000001       -1.45356000000000        2.24110900000000
242
 energy: -441.663550252341 gnorm: 0.535609336751 xtb: 6.5.1 (b24c23e)
Cu          48.32576015825890       -0.38239489999539       -0.26017749416795
C           44.93865842606426       -0.25518330695597       -0.22609881946427
C           45.60888543611915        0.54682568064132        0.63487713930925
C           44.95477565282467        1.42703059115108        1.58960053307967
C           45.90911642094913        2.08101928519701        2.25242157325631
C           47.20081259657697        1.63655499571137        1.73229689306872
N           47.00486652797844        0.67667965198279        0.72594479824836
C           48.41427596981818        2.11691190687234        2.14348565226961
C           48.44446547980529        3.12359016703631        3.16555101772090
C           48.47700734432335        3.97444535020071        4.03250077108565
C           48.52086006872121        4.97780565869501        5.05167765418148
C           49.72337269457232        5.62742373521537        5.35678414315229
C           49.73322381192325        6.59789159523075        6.35332972513792
N           48.60762037088246        6.91779610015413        7.02431083490236
C           47.44027415145514        6.30258560301791        6.74449817327423
C           47.36310913213478        5.32380736582771        5.75912165459140
C           49.68928641054067        1.67022007341483        1.58710253464779
C           50.97219516232116        2.28601170481539        1.90468836569222
C           51.92095502689687        1.61230490105499        1.24608843821405
N           49.85120962578740        0.65583289282921        0.75946278851002
C           51.25130018489530        0.56121837786530        0.50613129453518
C           51.86735136102710       -0.38730011977540       -0.25179399733587
C           51.08039703703385       -1.40444407640731       -0.96959705769207
C           51.63146648910267       -2.52053141120909       -1.52293249137146
C           50.60283422020883       -3.22762789300940       -2.20403824028554
C           49.44680173007505       -2.52484940058975       -2.04447311337078
N           49.68837527510168       -1.37123132310880       -1.25928399392282
C           48.17242949164253       -2.90724446090727       -2.66420804407852
C           48.15672895846386       -3.91389371385948       -3.69330300425980
C           48.14610266995641       -4.76141133925843       -4.56572345613403
C           48.13818912727412       -5.76169000383025       -5.59116498933428
C           49.32789171912438       -6.39075269295821       -5.97746513985964
C           49.28819619523476       -7.35758551573895       -6.97713176147006
N           48.12661684566378       -7.69373643995407       -7.57399110331196
C           46.97064096855262       -7.09917960701838       -7.21533648129006
C           46.94251431517937       -6.12476744989832       -6.22258688300454
C           46.99069539349767       -2.34525083601096       -2.29503073258110
C           45.68096410536614       -2.66354957017795       -2.83796861108194
C           44.80199974135272       -1.92764912862472       -2.14823464098959
C           45.55213862390466       -1.14696671358620       -1.17666606982698
N           46.84297402462791       -1.39255266358346       -1.26335837784212
H           43.85502159647230       -0.22369253733545       -0.19927635066216
H           43.89129215461466        1.54482140216280        1.74614243262489
H           45.72742094996007        2.81171961071073        3.02813622247317
H           50.63565375005486        5.37850064999578        4.82360630288396
H           50.66288995767211        7.11037532411860        6.59934269000947
H           46.54589750719339        6.58009014889599        7.30174010943215
H           46.41804828670886        4.83570366800015        5.54277540411559
H           51.15049920397963        3.13028034061799        2.54998264606579
H           52.97916896984137        1.82748864975011        1.27995520956482
H           52.67064776272439       -2.79559250879930       -1.46685371094812
H           50.71151607922481       -4.14209101693829       -2.76578034570781
H           50.26876170938574       -6.12880474879740       -5.50440041555551
H           50.20769993240289       -7.85368194537360       -7.28600921657602
H           46.04644739050551       -7.38976424307959       -7.71373410432335
H           46.00597253376010       -5.65339596469184       -5.94268841784352
H           45.43578695428096       -3.35691793599047       -3.63158813891018
H           43.73472323984141       -1.92752362625217       -2.29380768284088
Cu          88.99397319637941       -0.35837511890726       -0.24652549051842
C           92.38120748638967       -0.45285975628627       -0.33820615445649
C           91.71093670195715       -1.60349351826386       -0.58447489983610
C           92.36505674570149       -2.87464810153763       -0.84972980533252
C           91.41068948244018       -3.77921232561712       -1.07068928300673
C           90.11900315349983       -3.10471459888345       -0.95628838950666
N           90.31498630486016       -1.74820640542390       -0.64919347836640
C           88.90548997447199       -3.70403128560114       -1.15740590925878
C           88.87537016138791       -5.09801285095036       -1.49662979492723
C           88.84284933603031       -6.27881446700619       -1.78175461637427
C           88.79898994948906       -7.66856175799189       -2.11961356649297
C           87.59647980989811       -8.26387488271091       -2.52046401626952
C           87.58662601378785       -9.61729347926573       -2.84170491346330
N           88.71223675389021      -10.35732276702800       -2.77178130322067
C           89.87957759705556       -9.80138254551732       -2.38746873669387
C           89.95674464340507       -8.45328471213758       -2.05336373773406
C           87.63032991716585       -2.99713468898265       -1.05963865908408
C           86.34789623080395       -3.58604336386140       -1.42508062435349
C           85.39888208490629       -2.67492550823516       -1.18505941589685
N           87.46736202784317       -1.76548063855318       -0.61397800741929
C           86.06692950366077       -1.50029158184345       -0.66273710593336
C           85.44220180335022       -0.36221976097980       -0.23671514790859
C           86.23819647101995        0.77540986285768        0.26630438464021
C           85.68831549019252        1.82303755585611        0.94018897129102
C           86.71717337580772        2.77048547697285        1.19721866080748
C           87.87294589221969        2.27261991033703        0.67600174715862
N           87.63070826663741        1.00633786240745        0.08907907099823
C           89.14744657810796        3.00085047295581        0.68606394302000
C           89.16312832572612        4.40077989964834        1.02164483573104
C           89.17374718342916        5.58456308055871        1.30110488763210
C           89.18166775947368        6.97806713129596        1.63308667835474
C           87.99196486391097        7.63253430237971        1.97462416018348
C           88.03166067977295        8.98674749237889        2.29114232667459
N           89.19323464535053        9.67153974585538        2.27321148791533
C           90.34921342699140        9.05851473732151        1.94710048390431
C           90.37733757951627        7.70634318392173        1.62052706856301
C           90.32913455651031        2.39555622586074        0.39331863497268
C           91.63889254528870        3.02489494726744        0.38773211703087
C           92.51784261299005        2.05520662690909        0.11029971829712
C           91.76770901210304        0.82062065747413       -0.06090566776973
N           90.47683591766439        1.02107849985554        0.10534371142995
H           93.46483563377380       -0.49207342283191       -0.35147309148090
H           93.42854877962934       -3.06946710677949       -0.87045398245645
H           91.59242038852811       -4.82001836466906       -1.29954411110146
H           86.68420180948927       -7.67853625858460       -2.58055807162144
H           86.65696481008568      -10.09150146976992       -3.15520905878159
H           90.77395591749119      -10.42205039510106       -2.33954879793280
H           90.90180726000459       -8.01705243376774       -1.74555056111759
H           86.16944565029000       -4.57319586704643       -1.81838164516436
H           84.34062005756643       -2.81444406011682       -1.35234921990905
H           84.64909788315352        1.91604011196731        1.20497757012765
H           86.60840191439360        3.72198134850251        1.69363717915187
H           87.05109082757453        7.09208607047966        1.99268309173532
H           87.11215215976796        9.50649945893424        2.55831279187514
H           91.27340532074447        9.63540389389805        1.94061387087429
H           91.31387854006039        7.22415749643188        1.35969938323324
H           91.88406765899229        4.06190884452652        0.57535530522649
H           93.58512420765628        2.18006792006422        0.03545655584448
C           54.97450908135636       -0.36793840961345       -0.25219710236545
C           53.70484685947822       -0.38751566704756       -0.25264308091592
C           56.32942124605586       -0.35365544450367       -0.23389977616494
C           57.68932599550279       -0.36127485618032       -0.23420634692303
C           67.97229028341864       -0.36599791238885       -0.24805744120305
C           66.70992537962752       -0.37479495392060       -0.23026726282826
C           69.28059848407369       -0.36558739938642       -0.24159328379406
C           70.63960862670757       -0.36242826110090       -0.23625653475512
C           80.92105508866754       -0.35863377299279       -0.24023307966344
C           79.65777793977607       -0.37193656993871       -0.22888736256898
C           82.26511657742276       -0.36793067703444       -0.24832854032666
C           83.64386530534374       -0.37799216346814       -0.24890500491119
Cu          62.25110040316394        0.28654127177946        0.26748038964530
C           58.77435373779928        0.37565129316695        0.27239489865276
C           59.44891572196005        0.97744269150937       -0.76930647392863
C           58.78219687823812        1.52803874671618       -1.92998308965621
C           59.72267638230333        1.80667789862844       -2.83369051954200
C           61.01328493541855        1.48477451999788       -2.24919507229687
N           60.83601937457883        0.96400343556486       -0.95667387903145
C           62.21318213484326        1.67167595945094       -2.87929208617335
C           62.20687139840751        2.07015986749630       -4.25488127208945
C           62.19866449894890        2.35694416764327       -5.43485743047618
C           62.17868680629740        2.65747724327394       -6.83259212808915
C           63.12186598096074        2.08633261726708       -7.69331177932662