      -----------------------------------------------------------      
     |                   =====================                   |     
     |                           x T B                           |     
     |                   =====================                   |     
     |                         S. Grimme                         |     
     |          Mulliken Center for Theoretical Chemistry        |     
     |                    University of Bonn                     |     
      -----------------------------------------------------------      

   * xtb version 6.5.1 (b24c23e) compiled by 'conda@728c89f4b128' on 2022-07-12

   xtb is free software: you can redistribute it and/or modify it under
   the terms of the GNU Lesser General Public License as published by
   the Free Software Foundation, either version 3 of the License, or
   (at your option) any later version.
   
   xtb is distributed in the hope that it will be useful,
   but WITHOUT ANY WARRANTY; without even the implied warranty of
   MERCHANTABILITY or FITNESS FOR A PARTICULAR PURPOSE.  See the
   GNU Lesser General Public License for more details.
   
   Cite this work as:
   * C. Bannwarth, E. Caldeweyher, S. Ehlert, A. Hansen, P. Pracht,
     J. Seibert, S. Spicher, S. Grimme, WIREs Comput. Mol. Sci., 2020, 11,
     e01493. DOI: 10.1002/wcms.1493
   
   for GFN2-xTB:
   * C. Bannwarth, S. Ehlert and S. Grimme., J. Chem. Theory Comput., 2019,
     15, 1652-1671. DOI: 10.1021/acs.jctc.8b01176
   for GFN1-xTB:
   * S. Grimme, C. Bannwarth, P. Shushkov, J. Chem. Theory Comput., 2017,
     13, 1989-2009. DOI: 10.1021/acs.jctc.7b00118
   for GFN0-xTB:
   * P. Pracht, E. Caldeweyher, S. Ehlert, S. Grimme, ChemRxiv, 2019, preprint.
     DOI: 10.26434/chemrxiv.8326202.v1
   for GFN-FF:
   * S. Spicher and S. Grimme, Angew. Chem. Int. Ed., 2020, 59, 15665-15673.
     DOI: 10.1002/anie.202004239
   
   for ALPB and GBSA implicit solvation:
   * S. Ehlert, M. Stahn, S. Spicher, S. Grimme, J. Chem. Theory Comput.,
     2021, 17, 4250-4261. DOI: 10.1021/acs.jctc.1c00471
   
   for DFT-D4:
   * E. Caldeweyher, C. Bannwarth and S. Grimme, J. Chem. Phys., 2017,
     147, 034112. DOI: 10.1063/1.4993215
   * E. Caldeweyher, S. Ehlert, A. Hansen, H. Neugebauer, S. Spicher,
     C. Bannwarth and S. Grimme, J. Chem. Phys., 2019, 150, 154122.
     DOI: 10.1063/1.5090222
   * E. Caldeweyher, J.-M. Mewes, S. Ehlert and S. Grimme, Phys. Chem. Chem. Phys.
     2020, 22, 8499-8512. DOI: 10.1039/D0CP00502A
   
   for sTDA-xTB:
   * S. Grimme and C. Bannwarth, J. Chem. Phys., 2016, 145, 054103.
     DOI: 10.1063/1.4959605
   
   in the mass-spec context:
   * V. Asgeirsson, C. Bauer and S. Grimme, Chem. Sci., 2017, 8, 4879.
     DOI: 10.1039/c7sc00601b
   * J. Koopman and S. Grimme, ACS Omega 2019, 4, 12, 15120-15133.
     DOI: 10.1021/acsomega.9b02011
   
   for metadynamics refer to:
   * S. Grimme, J. Chem. Theory Comput., 2019, 155, 2847-2862
     DOI: 10.1021/acs.jctc.9b00143
   
   for SPH calculations refer to:
   * S. Spicher and S. Grimme, J. Chem. Theory Comput., 2021, 17, 1701-1714
     DOI: 10.1021/acs.jctc.0c01306
   
   with help from (in alphabetical order)
   P. Atkinson, C. Bannwarth, F. Bohle, G. Brandenburg, E. Caldeweyher
   M. Checinski, S. Dohm, S. Ehlert, S. Ehrlich, I. Gerasimov, C. Hölzer
   A. Katbashev, J. Koopman, C. Lavigne, S. Lehtola, F. März, M. Müller,
   F. Musil, H. Neugebauer, J. Pisarek, C. Plett, P. Pracht, F. Pultar,
   J. Seibert, P. Shushkov, S. Spicher, M. Stahn, M. Steiner, T. Strunk,
   J. Stückrath, T. Rose, and J. Unsleber
   
 * started run on 2022/07/28 at 14:31:14.486     

           -------------------------------------------------
          |                Calculation Setup                |
           -------------------------------------------------

          program call               : xtb xtbopt.xyz --gfn 1 --vipea
          hostname                   : cx3-2-25.cx3.hpc.ic.ac.uk
          coordinate file            : xtbopt.xyz
          omp threads                :                     1

   ID    Z sym.   atoms
    1    6 C      1-5, 7-19, 21-26, 28-41, 76-80, 82-94, 96-101, 103-116,
                  151-161, 163-175, 177-182, 184-197, 231-235, 237-249,
                  251-256, 258-271
    2    7 N      6, 20, 27, 42, 81, 95, 102, 117, 162, 176, 183, 198, 236,
                  250, 257, 272
    3    1 H      43-75, 118-150, 199-230, 273-304

           -------------------------------------------------
          |                 I P E A - x T B                 |
           -------------------------------------------------

        Reference                      10.1039/c7sc00601b
      * Hamiltonian:
        H0-scaling (s, p, d)           2.150000    2.300000    2.000000
        zeta-weighting                 0.000000
      * Dispersion:
        s8                             2.400000
        a1                             0.630000
        a2                             5.000000
        s9                             0.000000
      * Repulsion:
        kExp                           1.500000
        rExp                           1.000000
      * Coulomb:
        alpha                          1.000000
        third order                    atomic
        anisotropic                    false
      * Halogen bond correction:
        rad-scale                      1.300000
        damping                        0.440000


          ...................................................
          :                      SETUP                      :
          :.................................................:
          :  # basis functions                1130          :
          :  # atomic orbitals                1130          :
          :  # shells                          782          :
          :  # electrons                       842          :
          :  # halogen bonds                     0          :
          :  max. iterations                   250          :
          :  Hamiltonian                  GFN1-xTB          :
          :  restarted?                      false          :
          :  GBSA solvation                  false          :
          :  PC potential                    false          :
          :  electronic temp.          300.0000000     K    :
          :  accuracy                    1.0000000          :
          :  -> integral cutoff          0.2500000E+02      :
          :  -> integral neglect         0.1000000E-07      :
          :  -> SCF convergence          0.1000000E-05 Eh   :
          :  -> wf. convergence          0.2000000E-04 e    :
          :  Broyden damping             0.4000000          :
          ...................................................

 iter      E             dE          RMSdq      gap      omega  full diag
   1   -523.1030676 -0.523103E+03  0.951E+00    0.13       0.0  T
   2   -524.3325509 -0.122948E+01  0.604E+00    1.21       1.0  T
   3   -515.9592607  0.837329E+01  0.435E+00    0.24       1.0  T
   4   -525.2514873 -0.929223E+01  0.116E+00    1.03       1.0  T
   5   -526.2523980 -0.100091E+01  0.266E-01    0.96       1.0  T
   6   -526.2995641 -0.471661E-01  0.983E-02    1.02       1.0  T
   7   -526.3047468 -0.518267E-02  0.438E-02    1.00       1.0  T
   8   -526.3051753 -0.428557E-03  0.321E-02    1.00       1.0  T
   9   -526.3054851 -0.309724E-03  0.199E-02    1.00       1.0  T
  10   -526.3056492 -0.164176E-03  0.500E-03    1.00       1.1  T
  11   -526.3056615 -0.123078E-04  0.202E-03    1.00       2.8  T
  12   -526.3056639 -0.237151E-05  0.787E-04    1.00       7.3  T
  13   -526.3056641 -0.175535E-06  0.519E-04    1.00      11.1  T
  14   -526.3056642 -0.145180E-06  0.169E-04    1.00      33.9  T
  15   -526.3056643 -0.188760E-07  0.505E-05    1.00     113.6  T

   *** convergence criteria satisfied after 15 iterations ***

         #    Occupation            Energy/Eh            Energy/eV
      -------------------------------------------------------------
         1        2.0000           -1.0430613             -28.3831
       ...           ...                  ...                  ...
       415        2.0000           -0.3894895             -10.5985
       416        2.0000           -0.3888458             -10.5810
       417        2.0000           -0.3886283             -10.5751
       418        2.0000           -0.3872485             -10.5376
       419        2.0000           -0.3788739             -10.3097
       420        2.0000           -0.3695521             -10.0560
       421        2.0000           -0.3598124              -9.7910 (HOMO)
       422                         -0.3230063              -8.7894 (LUMO)
       423                         -0.3118104              -8.4848
       424                         -0.3029878              -8.2447
       425                         -0.3025565              -8.2330
       426                         -0.3022417              -8.2244
       ...                                ...                  ...
      1130                        729.5509868           19852.0928
      -------------------------------------------------------------
                  HL-Gap            0.0368062 Eh            1.0015 eV
             Fermi-level           -0.3414093 Eh           -9.2902 eV

 SCC (total)                   0 d,  0 h,  0 min, 12.841 sec
 SCC setup                      ...        0 min,  0.014 sec (  0.107%)
 Dispersion                     ...        0 min,  0.020 sec (  0.154%)
 classical contributions        ...        0 min,  0.007 sec (  0.051%)
 integral evaluation            ...        0 min,  1.165 sec (  9.072%)
 iterations                     ...        0 min,  9.021 sec ( 70.248%)
 molecular gradient             ...        0 min,  2.476 sec ( 19.281%)
 printout                       ...        0 min,  0.140 sec (  1.087%)

         :::::::::::::::::::::::::::::::::::::::::::::::::::::
         ::                     SUMMARY                     ::
         :::::::::::::::::::::::::::::::::::::::::::::::::::::
         :: total energy            -515.784861371362 Eh    ::
         :: gradient norm              0.085771949735 Eh/a0 ::
         :: HOMO-LUMO gap              1.001546825773 eV    ::
         ::.................................................::
         :: SCC energy              -526.305664256059 Eh    ::
         :: -> electrostatic           0.245609803317 Eh    ::
         :: repulsion energy          10.792484875171 Eh    ::
         :: dispersion energy         -0.271681990473 Eh    ::
         :: halogen bond corr.         0.000000000000 Eh    ::
         :: add. restraining           0.000000000000 Eh    ::
         :: total charge              -0.000000000000 e     ::
         :::::::::::::::::::::::::::::::::::::::::::::::::::::

           ------------------------------------------------- 
          |        vertical delta SCC IP calculation        |
           ------------------------------------------------- 
   1   -525.9103210 -0.525910E+03  0.875E-02    1.00       0.0  T
   2   -525.9129749 -0.265391E-02  0.805E-02    0.98       1.0  T
   3   -525.9187607 -0.578575E-02  0.433E-02    1.00       1.0  T
   4   -525.9195486 -0.787960E-03  0.261E-02    0.99       1.0  T
   5   -525.9196298 -0.811369E-04  0.150E-02    0.99       1.0  T
   6   -525.9196444 -0.146810E-04  0.939E-03    0.99       1.0  T
   7   -525.9196687 -0.242852E-04  0.557E-03    0.99       1.0  T
   8   -525.9196917 -0.229241E-04  0.373E-03    0.99       1.5  T
   9   -525.9197118 -0.201200E-04  0.149E-03    0.99       3.9  T
  10   -525.9197138 -0.198806E-05  0.550E-04    0.99      10.4  T
  11   -525.9197140 -0.205150E-06  0.153E-04    0.99      37.5  T
  12   -525.9197140 -0.142973E-07  0.706E-05    0.99      81.2  T
     SCC iter.                  ...        0 min,  7.146 sec
     gradient                   ...        0 min,  2.451 sec
------------------------------------------------------------------------
empirical IP shift (eV):    4.8455
delta SCC IP (eV):    5.6567
------------------------------------------------------------------------
           ------------------------------------------------- 
          |        vertical delta SCC EA calculation        |
           ------------------------------------------------- 
   1   -526.5698047 -0.526570E+03  0.151E-01    0.36       0.0  T
   2   -526.5873691 -0.175644E-01  0.128E-01    0.16       1.0  T
   3   -526.5999151 -0.125460E-01  0.731E-02    0.25       1.0  T
   4   -526.6016126 -0.169757E-02  0.477E-02    0.22       1.0  T
   5   -526.6017503 -0.137639E-03  0.296E-02    0.22       1.0  T
   6   -526.6020169 -0.266603E-03  0.131E-02    0.22       1.0  T
   7   -526.6021169 -0.100058E-03  0.530E-03    0.22       1.1  T
   8   -526.6021128  0.418840E-05  0.439E-03    0.22       1.3  T
   9   -526.6021300 -0.172907E-04  0.255E-03    0.22       2.2  T
  10   -526.6021399 -0.984188E-05  0.726E-04    0.22       7.9  T
  11   -526.6021404 -0.471139E-06  0.261E-04    0.22      22.0  T
  12   -526.6021404 -0.373509E-07  0.103E-04    0.22      55.5  T
  13   -526.6021404 -0.692728E-08  0.406E-05    0.22     141.3  T
     SCC iter.                  ...        0 min,  7.668 sec
     gradient                   ...        0 min,  2.478 sec
------------------------------------------------------------------------
empirical EA shift (eV):    4.8455
delta SCC EA (eV):    3.2220
------------------------------------------------------------------------
           -------------------------------------------------
          |                Property Printout                |
           -------------------------------------------------

    * Orbital Energies and Occupations

         #    Occupation            Energy/Eh            Energy/eV
      -------------------------------------------------------------
         1        2.0000           -0.9957557             -27.0959
       ...           ...                  ...                  ...
       410        2.0000           -0.3676394             -10.0040
       411        2.0000           -0.3668750              -9.9832
       412        2.0000           -0.3653569              -9.9419
       413        2.0000           -0.3645979              -9.9212
       414        2.0000           -0.3424785              -9.3193
       415        2.0000           -0.3424264              -9.3179
       416        2.0000           -0.3364639              -9.1556
       417        2.0000           -0.3353313              -9.1248
       418        2.0000           -0.3351367              -9.1195
       419        2.0000           -0.3300530              -8.9812
       420        2.0000           -0.3196597              -8.6984
       421        2.0000           -0.3071866              -8.3590
       422        0.9863           -0.2704664              -7.3598 (HOMO)
       423        0.0137           -0.2623397              -7.1386 (LUMO)
       424        0.0000           -0.2565442              -6.9809
       425        0.0000           -0.2562463              -6.9728
       426        0.0000           -0.2517866              -6.8515
       427                         -0.2493883              -6.7862
       428                         -0.2490423              -6.7768
       429                         -0.2396868              -6.5222
       430                         -0.2137140              -5.8155
       431                         -0.2085834              -5.6758
       432                         -0.2077839              -5.6541
       433                         -0.2014280              -5.4811
       ...                                ...                  ...
      1130                        729.6025276           19853.4953
      -------------------------------------------------------------
                  HL-Gap            0.0081267 Eh            0.2211 eV
             Fermi-level           -0.2776158 Eh           -7.5543 eV

  Mulliken/CM5 charges         n(s)   n(p)   n(d)
     1C    -0.02909 -0.06984   1.084  2.945  0.000
     2C     0.06004  0.12051   1.107  2.832  0.000
     3C    -0.03851 -0.08381   1.081  2.957  0.000
     4C    -0.03393 -0.07898   1.076  2.958  0.000
     5C     0.06103  0.12432   1.095  2.844  0.000
     6N    -0.16002 -0.51339   1.307  3.853  0.000
     7C     0.01300  0.01782   1.076  2.911  0.000
     8C     0.00265 -0.00219   1.057  2.940  0.000
     9C     0.00201 -0.01278   1.088  2.910  0.000
    10C    -0.05608 -0.20005   1.064  2.992  0.000
    11C    -0.03225 -0.08403   1.063  2.970  0.000
    12C    -0.00451 -0.02219   1.098  2.906  0.000
    13C    -0.06226 -0.20695   1.076  2.987  0.000
    14C    -0.03231 -0.08408   1.063  2.970  0.000
    15C     0.00188 -0.01292   1.087  2.911  0.000
    16C    -0.05614 -0.20010   1.064  2.992  0.000
    17C     0.05845  0.12589   1.110  2.831  0.000
    18C    -0.03776 -0.08392   1.082  2.956  0.000
    19C    -0.03763 -0.08330   1.087  2.950  0.000
    20N    -0.28439 -0.47127   1.286  3.998  0.000
    21C     0.06261  0.13334   1.131  2.807  0.000
    22C     0.01459  0.02184   1.085  2.901  0.000
    23C     0.06491  0.12973   1.112  2.823  0.000
    24C    -0.03260 -0.07728   1.077  2.956  0.000
    25C    -0.03287 -0.07796   1.072  2.961  0.000
    26C     0.06127  0.12404   1.094  2.845  0.000
    27N    -0.15658 -0.50921   1.310  3.847  0.000
    28C     0.01197  0.01684   1.075  2.913  0.000
    29C     0.00266 -0.00217   1.057  2.940  0.000
    30C     0.00199 -0.01281   1.088  2.910  0.000
    31C    -0.05606 -0.20003   1.064  2.992  0.000
    32C    -0.03224 -0.08402   1.063  2.970  0.000
    33C    -0.00452 -0.02220   1.098  2.906  0.000
    34C    -0.06223 -0.20693   1.076  2.987  0.000
    35C    -0.03230 -0.08407   1.063  2.970  0.000
    36C     0.00196 -0.01282   1.088  2.910  0.000
    37C    -0.05610 -0.20006   1.064  2.992  0.000
    38C     0.05972  0.12834   1.114  2.826  0.000
    39C    -0.03859 -0.08468   1.086  2.952  0.000
    40C    -0.04242 -0.08878   1.093  2.949  0.000
    41C     0.05711  0.12297   1.127  2.816  0.000
    42N    -0.28880 -0.47604   1.285  4.004  0.000
    43H     0.02306  0.08196   0.977  0.000  0.000
    44H     0.03296  0.08961   0.967  0.000  0.000
    45H     0.02304  0.08145   0.977  0.000  0.000
    46H     0.15980  0.36810   0.840  0.000  0.000
    47H     0.01569  0.06942   0.984  0.000  0.000
    48H     0.01638  0.06906   0.984  0.000  0.000
    49H     0.01808  0.07195   0.982  0.000  0.000
    50H     0.02960  0.08711   0.970  0.000  0.000
    51H     0.02250  0.07438   0.978  0.000  0.000
    52H     0.02036  0.07274   0.980  0.000  0.000
    53H     0.02006  0.07247   0.980  0.000  0.000
    54H     0.02947  0.08697   0.971  0.000  0.000
    55H     0.01579  0.06949   0.984  0.000  0.000
    56H     0.01641  0.06910   0.984  0.000  0.000
    57H     0.01780  0.07163   0.982  0.000  0.000
    58H     0.01520  0.07368   0.985  0.000  0.000
    59H     0.01725  0.07551   0.983  0.000  0.000
    60H     0.02705  0.08533   0.973  0.000  0.000
    61H     0.02451  0.08298   0.975  0.000  0.000
    62H     0.15752  0.36579   0.842  0.000  0.000
    63H     0.01628  0.06897   0.984  0.000  0.000
    64H     0.01831  0.07198   0.982  0.000  0.000
    65H     0.01553  0.06939   0.984  0.000  0.000
    66H     0.02945  0.08695   0.971  0.000  0.000
    67H     0.02005  0.07244   0.980  0.000  0.000
    68H     0.02271  0.07459   0.977  0.000  0.000
    69H     0.01990  0.07230   0.980  0.000  0.000
    70H     0.02942  0.08692   0.971  0.000  0.000
    71H     0.01616  0.06885   0.984  0.000  0.000
    72H     0.01558  0.06944   0.984  0.000  0.000
    73H     0.01793  0.07166   0.982  0.000  0.000
    74H     0.01410  0.07248   0.986  0.000  0.000
    75H     0.02327  0.07967   0.977  0.000  0.000
    76C    -0.02908 -0.06982   1.085  2.945  0.000
    77C     0.06004  0.12050   1.107  2.832  0.000
    78C    -0.03853 -0.08382   1.081  2.957  0.000
    79C    -0.03394 -0.07899   1.076  2.958  0.000
    80C     0.06101  0.12430   1.095  2.844  0.000
    81N    -0.16003 -0.51340   1.307  3.853  0.000
    82C     0.01301  0.01782   1.076  2.911  0.000
    83C     0.00265 -0.00219   1.057  2.940  0.000
    84C     0.00189 -0.01291   1.088  2.911  0.000
    85C    -0.05612 -0.20009   1.064  2.992  0.000
    86C    -0.03230 -0.08408   1.063  2.970  0.000
    87C    -0.00452 -0.02220   1.098  2.906  0.000
    88C    -0.06226 -0.20696   1.076  2.987  0.000
    89C    -0.03228 -0.08405   1.063  2.970  0.000
    90C     0.00199 -0.01280   1.088  2.910  0.000
    91C    -0.05611 -0.20007   1.064  2.992  0.000
    92C     0.05842  0.12581   1.110  2.831  0.000
    93C    -0.03778 -0.08393   1.082  2.956  0.000
    94C    -0.03768 -0.08334   1.088  2.950  0.000
    95N    -0.28442 -0.47130   1.286  3.998  0.000
    96C     0.06259  0.13333   1.131  2.807  0.000
    97C     0.01458  0.02182   1.085  2.901  0.000
    98C     0.06492  0.12971   1.112  2.823  0.000
    99C    -0.03257 -0.07727   1.077  2.956  0.000
   100C    -0.03286 -0.07795   1.072  2.961  0.000
   101C     0.06130  0.12407   1.094  2.845  0.000
   102N    -0.15659 -0.50920   1.310  3.847  0.000
   103C     0.01193  0.01680   1.075  2.913  0.000
   104C     0.00266 -0.00217   1.057  2.940  0.000
   105C     0.00197 -0.01281   1.088  2.910  0.000
   106C    -0.05609 -0.20006   1.064  2.992  0.000
   107C    -0.03230 -0.08407   1.063  2.970  0.000
   108C    -0.00452 -0.02220   1.098  2.906  0.000
   109C    -0.06223 -0.20693   1.076  2.987  0.000
   110C    -0.03224 -0.08402   1.063  2.970  0.000
   111C     0.00197 -0.01282   1.088  2.910  0.000
   112C    -0.05607 -0.20004   1.064  2.992  0.000
   113C     0.05975  0.12840   1.114  2.826  0.000
   114C    -0.03859 -0.08469   1.086  2.952  0.000
   115C    -0.04241 -0.08876   1.093  2.949  0.000
   116C     0.05709  0.12292   1.127  2.816  0.000
   117N    -0.28880 -0.47602   1.285  4.004  0.000
   118H     0.02306  0.08196   0.977  0.000  0.000
   119H     0.03296  0.08960   0.967  0.000  0.000
   120H     0.02304  0.08145   0.977  0.000  0.000
   121H     0.15981  0.36810   0.840  0.000  0.000
   122H     0.01578  0.06947   0.984  0.000  0.000
   123H     0.01638  0.06906   0.984  0.000  0.000
   124H     0.01779  0.07164   0.982  0.000  0.000
   125H     0.02945  0.08695   0.971  0.000  0.000
   126H     0.02250  0.07438   0.978  0.000  0.000
   127H     0.01990  0.07233   0.980  0.000  0.000
   128H     0.02051  0.07289   0.979  0.000  0.000
   129H     0.02961  0.08712   0.970  0.000  0.000
   130H     0.01573  0.06946   0.984  0.000  0.000
   131H     0.01638  0.06907   0.984  0.000  0.000
   132H     0.01802  0.07188   0.982  0.000  0.000
   133H     0.01527  0.07374   0.985  0.000  0.000
   134H     0.01733  0.07558   0.983  0.000  0.000
   135H     0.02698  0.08527   0.973  0.000  0.000
   136H     0.02453  0.08301   0.975  0.000  0.000
   137H     0.15751  0.36578   0.842  0.000  0.000
   138H     0.01615  0.06883   0.984  0.000  0.000
   139H     0.01792  0.07165   0.982  0.000  0.000
   140H     0.01556  0.06942   0.984  0.000  0.000
   141H     0.02944  0.08695   0.971  0.000  0.000
   142H     0.01979  0.07220   0.980  0.000  0.000
   143H     0.02269  0.07458   0.977  0.000  0.000
   144H     0.02019  0.07257   0.980  0.000  0.000
   145H     0.02943  0.08693   0.971  0.000  0.000
   146H     0.01628  0.06896   0.984  0.000  0.000
   147H     0.01550  0.06935   0.984  0.000  0.000
   148H     0.01830  0.07197   0.982  0.000  0.000
   149H     0.01411  0.07248   0.986  0.000  0.000
   150H     0.02328  0.07968   0.977  0.000  0.000
   151C    -0.03045 -0.03264   1.066  2.965  0.000
   152C    -0.02590 -0.02807   1.071  2.955  0.000
   153C    -0.02877 -0.03084   1.069  2.960  0.000
   154C    -0.02879 -0.03085   1.068  2.960  0.000
   155C    -0.02590 -0.02805   1.071  2.955  0.000
   156C    -0.03041 -0.03260   1.066  2.965  0.000
   157C     0.00858  0.01589   1.079  2.913  0.000
   158C     0.06412  0.12895   1.112  2.824  0.000
   159C    -0.03618 -0.08089   1.074  2.962  0.000
   160C    -0.03372 -0.07881   1.073  2.961  0.000
   161C     0.05876  0.12159   1.091  2.850  0.000
   162N    -0.15692 -0.50976   1.309  3.848  0.000
   163C     0.01559  0.02028   1.078  2.906  0.000
   164C     0.00353 -0.00142   1.058  2.939  0.000
   165C     0.00239 -0.01248   1.087  2.911  0.000
   166C    -0.05558 -0.19958   1.063  2.992  0.000
   167C    -0.03217 -0.08396   1.062  2.970  0.000
   168C    -0.00462 -0.02231   1.098  2.907  0.000
   169C    -0.06212 -0.20682   1.075  2.987  0.000
   170C    -0.03214 -0.08392   1.062  2.970  0.000
   171C     0.00245 -0.01236   1.087  2.910  0.000
   172C    -0.05569 -0.19965   1.064  2.992  0.000
   173C     0.05673  0.12394   1.108  2.835  0.000
   174C    -0.03822 -0.08441   1.081  2.957  0.000
   175C    -0.03941 -0.08530   1.085  2.954  0.000
   176N    -0.28456 -0.47121   1.286  3.999  0.000
   177C     0.06206  0.13284   1.131  2.807  0.000
   178C     0.01121  0.01848   1.082  2.907  0.000
   179C     0.06427  0.12907   1.112  2.824  0.000
   180C    -0.03508 -0.07999   1.074  2.961  0.000
   181C    -0.03370 -0.07881   1.071  2.962  0.000
   182C     0.05903  0.12173   1.091  2.850  0.000
   183N    -0.15639 -0.50901   1.310  3.847  0.000
   184C     0.01514  0.01983   1.078  2.907  0.000
   185C     0.00351 -0.00144   1.058  2.939  0.000
   186C     0.00241 -0.01241   1.087  2.910  0.000
   187C    -0.05564 -0.19962   1.064  2.992  0.000
   188C    -0.03214 -0.08392   1.062  2.970  0.000
   189C    -0.00462 -0.02230   1.098  2.907  0.000
   190C    -0.06211 -0.20681   1.075  2.987  0.000
   191C    -0.03217 -0.08395   1.062  2.970  0.000
   192C     0.00241 -0.01244   1.087  2.910  0.000
   193C    -0.05561 -0.19960   1.064  2.992  0.000
   194C     0.05703  0.12445   1.108  2.834  0.000
   195C    -0.03820 -0.08436   1.083  2.955  0.000
   196C    -0.04019 -0.08586   1.086  2.954  0.000
   197C     0.06175  0.13247   1.131  2.807  0.000
   198N    -0.28549 -0.47217   1.285  4.001  0.000
   199H     0.02342  0.08166   0.977  0.000  0.000
   200H     0.02180  0.08036   0.978  0.000  0.000
   201H     0.15739  0.36553   0.843  0.000  0.000
   202H     0.01717  0.07087   0.983  0.000  0.000
   203H     0.01689  0.07076   0.983  0.000  0.000
   204H     0.01600  0.06869   0.984  0.000  0.000
   205H     0.02875  0.08625   0.971  0.000  0.000
   206H     0.01889  0.07129   0.981  0.000  0.000
   207H     0.01879  0.07119   0.981  0.000  0.000
   208H     0.02344  0.07533   0.977  0.000  0.000
   209H     0.02893  0.08644   0.971  0.000  0.000
   210H     0.01634  0.07009   0.984  0.000  0.000
   211H     0.01574  0.06843   0.984  0.000  0.000
   212H     0.01698  0.07087   0.983  0.000  0.000
   213H     0.01377  0.07237   0.986  0.000  0.000
   214H     0.01492  0.07338   0.985  0.000  0.000
   215H     0.02438  0.08287   0.976  0.000  0.000
   216H     0.02262  0.08122   0.977  0.000  0.000
   217H     0.15713  0.36531   0.843  0.000  0.000
   218H     0.01591  0.06860   0.984  0.000  0.000
   219H     0.01627  0.07016   0.984  0.000  0.000
   220H     0.01762  0.07135   0.982  0.000  0.000
   221H     0.02890  0.08641   0.971  0.000  0.000
   222H     0.01909  0.07148   0.981  0.000  0.000
   223H     0.02323  0.07511   0.977  0.000  0.000
   224H     0.01873  0.07115   0.981  0.000  0.000
   225H     0.02873  0.08623   0.971  0.000  0.000
   226H     0.01689  0.07062   0.983  0.000  0.000
   227H     0.01576  0.06845   0.984  0.000  0.000
   228H     0.01652  0.07038   0.983  0.000  0.000
   229H     0.01298  0.07155   0.987  0.000  0.000
   230H     0.01411  0.07228   0.986  0.000  0.000
   231C     0.01119  0.01846   1.082  2.907  0.000
   232C     0.06425  0.12903   1.112  2.824  0.000
   233C    -0.03506 -0.07997   1.074  2.961  0.000
   234C    -0.03368 -0.07880   1.071  2.962  0.000
   235C     0.05908  0.12179   1.091  2.850  0.000
   236N    -0.15639 -0.50905   1.310  3.847  0.000
   237C     0.01511  0.01980   1.078  2.907  0.000
   238C     0.00349 -0.00146   1.058  2.939  0.000
   239C     0.00229 -0.01253   1.087  2.911  0.000
   240C    -0.05570 -0.19967   1.064  2.992  0.000
   241C    -0.03220 -0.08397   1.062  2.970  0.000
   242C    -0.00463 -0.02231   1.098  2.907  0.000
   243C    -0.06212 -0.20681   1.075  2.987  0.000
   244C    -0.03212 -0.08392   1.062  2.970  0.000
   245C     0.00253 -0.01233   1.087  2.910  0.000
   246C    -0.05554 -0.19953   1.064  2.992  0.000
   247C     0.05701  0.12443   1.109  2.834  0.000
   248C    -0.03821 -0.08438   1.083  2.956  0.000
   249C    -0.04018 -0.08586   1.086  2.954  0.000
   250N    -0.28550 -0.47222   1.285  4.001  0.000
   251C     0.06174  0.13244   1.131  2.807  0.000
   252C     0.00861  0.01593   1.079  2.913  0.000
   253C     0.06406  0.12888   1.112  2.824  0.000
   254C    -0.03625 -0.08095   1.075  2.962  0.000
   255C    -0.03378 -0.07886   1.073  2.961  0.000
   256C     0.05873  0.12157   1.091  2.850  0.000
   257N    -0.15694 -0.50977   1.309  3.848  0.000
   258C     0.01560  0.02030   1.078  2.906  0.000
   259C     0.00353 -0.00141   1.058  2.939  0.000
   260C     0.00237 -0.01248   1.087  2.911  0.000
   261C    -0.05564 -0.19963   1.064  2.992  0.000
   262C    -0.03220 -0.08399   1.062  2.970  0.000
   263C    -0.00462 -0.02230   1.098  2.907  0.000
   264C    -0.06212 -0.20681   1.075  2.987  0.000
   265C    -0.03211 -0.08389   1.062  2.970  0.000
   266C     0.00246 -0.01236   1.087  2.910  0.000
   267C    -0.05565 -0.19962   1.064  2.992  0.000
   268C     0.05669  0.12387   1.108  2.835  0.000
   269C    -0.03817 -0.08437   1.081  2.957  0.000
   270C    -0.03938 -0.08528   1.085  2.954  0.000
   271C     0.06213  0.13293   1.131  2.807  0.000
   272N    -0.28456 -0.47125   1.286  3.999  0.000
   273H     0.02439  0.08284   0.976  0.000  0.000
   274H     0.02251  0.08112   0.977  0.000  0.000
   275H     0.15714  0.36535   0.843  0.000  0.000
   276H     0.01775  0.07144   0.982  0.000  0.000
   277H     0.01603  0.06991   0.984  0.000  0.000
   278H     0.01596  0.06864   0.984  0.000  0.000
   279H     0.02884  0.08635   0.971  0.000  0.000
   280H     0.01889  0.07131   0.981  0.000  0.000
   281H     0.01932  0.07170   0.981  0.000  0.000
   282H     0.02281  0.07470   0.977  0.000  0.000
   283H     0.02878  0.08629   0.971  0.000  0.000
   284H     0.01672  0.07050   0.983  0.000  0.000
   285H     0.01573  0.06842   0.984  0.000  0.000
   286H     0.01673  0.07061   0.983  0.000  0.000
   287H     0.01309  0.07166   0.987  0.000  0.000
   288H     0.01416  0.07234   0.986  0.000  0.000
   289H     0.02353  0.08177   0.976  0.000  0.000
   290H     0.02196  0.08052   0.978  0.000  0.000
   291H     0.15740  0.36558   0.843  0.000  0.000
   292H     0.01588  0.06857   0.984  0.000  0.000
   293H     0.01692  0.07081   0.983  0.000  0.000
   294H     0.01690  0.07062   0.983  0.000  0.000
   295H     0.02873  0.08623   0.971  0.000  0.000
   296H     0.01903  0.07145   0.981  0.000  0.000
   297H     0.02264  0.07452   0.977  0.000  0.000
   298H     0.01942  0.07180   0.981  0.000  0.000
   299H     0.02896  0.08647   0.971  0.000  0.000
   300H     0.01659  0.07029   0.983  0.000  0.000
   301H     0.01586  0.06855   0.984  0.000  0.000
   302H     0.01696  0.07082   0.983  0.000  0.000
   303H     0.01363  0.07223   0.986  0.000  0.000
   304H     0.01489  0.07335   0.985  0.000  0.000

Wiberg/Mayer (AO) data.
largest (>0.10) Wiberg bond orders for each atom

 ---------------------------------------------------------------------------
     #   Z sym  total        # sym  WBO       # sym  WBO       # sym  WBO
 ---------------------------------------------------------------------------
     1   6 C    3.801 --    41 C    1.380     2 C    1.373    43 H    0.997
     2   6 C    3.924 --     1 C    1.373     3 C    1.240     6 N    1.230
     3   6 C    3.835 --     4 C    1.597     2 C    1.240    44 H    0.994
     4   6 C    3.823 --     3 C    1.597     5 C    1.252    45 H    1.002
     5   6 C    3.885 --     7 C    1.357     4 C    1.252     6 N    1.222
     6   7 N    3.222 --     2 C    1.230     5 C    1.222    46 H    0.962
     7   6 C    3.796 --    17 C    1.378     5 C    1.357     8 C    1.028
     8   6 C    3.817 --    15 C    1.421     9 C    1.420     7 C    1.028
     9   6 C    3.889 --    11 C    1.436     8 C    1.420    10 C    1.018
    10   6 C    3.890 --     9 C    1.018    48 H    0.997    47 H    0.993
                            49 H    0.992
    11   6 C    3.835 --     9 C    1.436    12 C    1.432    50 H    0.994
    12   6 C    3.929 --    14 C    1.433    11 C    1.432    13 C    1.009
    13   6 C    3.920 --    12 C    1.009    53 H    0.998    52 H    0.998
                            51 H    0.988
    14   6 C    3.835 --    15 C    1.435    12 C    1.433    54 H    0.994
    15   6 C    3.889 --    14 C    1.435     8 C    1.421    16 C    1.018
    16   6 C    3.890 --    15 C    1.018    56 H    0.997    57 H    0.993
                            55 H    0.992
    17   6 C    3.907 --     7 C    1.378    20 N    1.351    18 C    1.165
    18   6 C    3.831 --    19 C    1.687    17 C    1.165    58 H    1.001
    19   6 C    3.834 --    18 C    1.687    21 C    1.170    59 H    1.000
    20   7 N    2.534 --    21 C    1.416    17 C    1.351
    21   6 C    3.940 --    20 N    1.416    22 C    1.288    19 C    1.170
    22   6 C    3.829 --    23 C    1.289    21 C    1.288   151 C    1.214
    23   6 C    3.903 --    22 C    1.289    24 C    1.271    27 N    1.250
    24   6 C    3.817 --    25 C    1.579    23 C    1.271    60 H    1.000
    25   6 C    3.810 --    24 C    1.579    26 C    1.262    61 H    1.001
    26   6 C    3.879 --    28 C    1.350    25 C    1.262    27 N    1.221
    27   7 N    3.238 --    23 C    1.250    26 C    1.221    62 H    0.961
    28   6 C    3.780 --    38 C    1.377    26 C    1.350    29 C    1.028
    29   6 C    3.817 --    30 C    1.421    36 C    1.420    28 C    1.028
    30   6 C    3.888 --    32 C    1.435    29 C    1.421    31 C    1.018
    31   6 C    3.890 --    30 C    1.018    63 H    0.997    65 H    0.993
                            64 H    0.992
    32   6 C    3.835 --    30 C    1.435    33 C    1.433    66 H    0.994
    33   6 C    3.928 --    32 C    1.433    35 C    1.432    34 C    1.009
    34   6 C    3.920 --    33 C    1.009    69 H    0.999    67 H    0.998
                            68 H    0.988
    35   6 C    3.835 --    36 C    1.436    33 C    1.432    70 H    0.994
    36   6 C    3.889 --    35 C    1.436    29 C    1.420    37 C    1.018
    37   6 C    3.891 --    36 C    1.018    71 H    0.997    72 H    0.993
                            73 H    0.992
    38   6 C    3.930 --    28 C    1.377    42 N    1.369    39 C    1.155
    39   6 C    3.842 --    40 C    1.706    38 C    1.155    74 H    1.002
    40   6 C    3.861 --    39 C    1.706    41 C    1.148    75 H    0.995
    41   6 C    3.965 --     1 C    1.380    42 N    1.379    40 C    1.148
    42   7 N    2.516 --    41 C    1.379    38 C    1.369
    43   1 H    1.030 --     1 C    0.997
    44   1 H    1.017 --     3 C    0.994
    45   1 H    1.039 --     4 C    1.002
    46   1 H    1.081 --     6 N    0.962
    47   1 H    1.050 --    10 C    0.993
    48   1 H    1.042 --    10 C    0.997
    49   1 H    1.053 --    10 C    0.992
    50   1 H    1.017 --    11 C    0.994
    51   1 H    1.033 --    13 C    0.988
    52   1 H    1.034 --    13 C    0.998
    53   1 H    1.034 --    13 C    0.998
    54   1 H    1.017 --    14 C    0.994
    55   1 H    1.050 --    16 C    0.992
    56   1 H    1.042 --    16 C    0.997
    57   1 H    1.053 --    16 C    0.993
    58   1 H    1.041 --    18 C    1.001
    59   1 H    1.033 --    19 C    1.000
    60   1 H    1.030 --    24 C    1.000
    61   1 H    1.038 --    25 C    1.001
    62   1 H    1.083 --    27 N    0.961
    63   1 H    1.042 --    31 C    0.997
    64   1 H    1.049 --    31 C    0.992
    65   1 H    1.054 --    31 C    0.993
    66   1 H    1.017 --    32 C    0.994
    67   1 H    1.034 --    34 C    0.998
    68   1 H    1.034 --    34 C    0.988
    69   1 H    1.034 --    34 C    0.999
    70   1 H    1.017 --    35 C    0.994
    71   1 H    1.042 --    37 C    0.997
    72   1 H    1.054 --    37 C    0.993
    73   1 H    1.050 --    37 C    0.992
    74   1 H    1.042 --    39 C    1.002
    75   1 H    1.020 --    40 C    0.995
    76   6 C    3.801 --   116 C    1.380    77 C    1.373   118 H    0.997
    77   6 C    3.924 --    76 C    1.373    78 C    1.240    81 N    1.230
    78   6 C    3.835 --    79 C    1.597    77 C    1.240   119 H    0.994
    79   6 C    3.823 --    78 C    1.597    80 C    1.252   120 H    1.002
    80   6 C    3.885 --    82 C    1.356    79 C    1.252    81 N    1.222
    81   7 N    3.222 --    77 C    1.230    80 C    1.222   121 H    0.962
    82   6 C    3.796 --    92 C    1.378    80 C    1.356    83 C    1.027
    83   6 C    3.817 --    84 C    1.422    90 C    1.420    82 C    1.027
    84   6 C    3.889 --    86 C    1.435    83 C    1.422    85 C    1.018
    85   6 C    3.890 --    84 C    1.018   123 H    0.997   124 H    0.993
                           122 H    0.992
    86   6 C    3.835 --    84 C    1.435    87 C    1.433   125 H    0.994
    87   6 C    3.929 --    86 C    1.433    89 C    1.432    88 C    1.009
    88   6 C    3.920 --    87 C    1.009   127 H    0.999   128 H    0.998
                           126 H    0.988
    89   6 C    3.835 --    90 C    1.437    87 C    1.432   129 H    0.994
    90   6 C    3.889 --    89 C    1.437    83 C    1.420    91 C    1.018
    91   6 C    3.890 --    90 C    1.018   131 H    0.997   130 H    0.993
                           132 H    0.992
    92   6 C    3.907 --    82 C    1.378    95 N    1.351    93 C    1.165
    93   6 C    3.831 --    94 C    1.688    92 C    1.165   133 H    1.001
    94   6 C    3.835 --    93 C    1.688    96 C    1.170   134 H    1.000
    95   7 N    2.535 --    96 C    1.416    92 C    1.351
    96   6 C    3.941 --    95 N    1.416    97 C    1.287    94 C    1.170
    97   6 C    3.829 --    98 C    1.289    96 C    1.287   156 C    1.214
    98   6 C    3.902 --    97 C    1.289    99 C    1.271   102 N    1.250
    99   6 C    3.817 --   100 C    1.579    98 C    1.271   135 H    1.000
   100   6 C    3.810 --    99 C    1.579   101 C    1.261   136 H    1.001
   101   6 C    3.879 --   103 C    1.350   100 C    1.261   102 N    1.221
   102   7 N    3.238 --    98 C    1.250   101 C    1.221   137 H    0.961
   103   6 C    3.780 --   113 C    1.376   101 C    1.350   104 C    1.028
   104   6 C    3.817 --   111 C    1.422   105 C    1.420   103 C    1.028
   105   6 C    3.888 --   107 C    1.437   104 C    1.420   106 C    1.018
   106   6 C    3.891 --   105 C    1.018   138 H    0.997   140 H    0.993
                           139 H    0.992
   107   6 C    3.835 --   105 C    1.437   108 C    1.432   141 H    0.994
   108   6 C    3.928 --   110 C    1.433   107 C    1.432   109 C    1.009
   109   6 C    3.920 --   108 C    1.009   142 H    0.999   144 H    0.998
                           143 H    0.988
   110   6 C    3.835 --   111 C    1.435   108 C    1.433   145 H    0.994
   111   6 C    3.888 --   110 C    1.435   104 C    1.422   112 C    1.018
   112   6 C    3.891 --   111 C    1.018   146 H    0.997   147 H    0.993
                           148 H    0.992
   113   6 C    3.930 --   103 C    1.376   117 N    1.370   114 C    1.155
   114   6 C    3.842 --   115 C    1.706   113 C    1.155   149 H    1.002
   115   6 C    3.861 --   114 C    1.706   116 C    1.148   150 H    0.995
   116   6 C    3.965 --    76 C    1.380   117 N    1.378   115 C    1.148
   117   7 N    2.516 --   116 C    1.378   113 C    1.370
   118   1 H    1.030 --    76 C    0.997
   119   1 H    1.017 --    78 C    0.994
   120   1 H    1.039 --    79 C    1.002
   121   1 H    1.081 --    81 N    0.962
   122   1 H    1.050 --    85 C    0.992
   123   1 H    1.042 --    85 C    0.997
   124   1 H    1.053 --    85 C    0.993
   125   1 H    1.018 --    86 C    0.994
   126   1 H    1.033 --    88 C    0.988
   127   1 H    1.034 --    88 C    0.999
   128   1 H    1.034 --    88 C    0.998
   129   1 H    1.017 --    89 C    0.994
   130   1 H    1.050 --    91 C    0.993
   131   1 H    1.042 --    91 C    0.997
   132   1 H    1.053 --    91 C    0.992
   133   1 H    1.041 --    93 C    1.001
   134   1 H    1.033 --    94 C    1.000
   135   1 H    1.031 --    99 C    1.000
   136   1 H    1.038 --   100 C    1.001
   137   1 H    1.083 --   102 N    0.961
   138   1 H    1.042 --   106 C    0.997
   139   1 H    1.050 --   106 C    0.992
   140   1 H    1.054 --   106 C    0.993
   141   1 H    1.017 --   107 C    0.994
   142   1 H    1.034 --   109 C    0.999
   143   1 H    1.034 --   109 C    0.988
   144   1 H    1.034 --   109 C    0.998
   145   1 H    1.018 --   110 C    0.994
   146   1 H    1.042 --   112 C    0.997
   147   1 H    1.054 --   112 C    0.993
   148   1 H    1.049 --   112 C    0.992
   149   1 H    1.042 --   114 C    1.002
   150   1 H    1.020 --   115 C    0.995
   151   6 C    3.753 --   152 C    2.607    22 C    1.214
   152   6 C    3.757 --   151 C    2.607   157 C    1.216
   153   6 C    3.756 --   154 C    2.590   178 C    1.234
   154   6 C    3.756 --   153 C    2.590   231 C    1.234
   155   6 C    3.757 --   156 C    2.607   252 C    1.216
   156   6 C    3.753 --   155 C    2.607    97 C    1.214
   157   6 C    3.809 --   197 C    1.284   158 C    1.282   152 C    1.216
   158   6 C    3.904 --   157 C    1.282   159 C    1.274   162 N    1.253
   159   6 C    3.809 --   160 C    1.573   158 C    1.274   199 H    1.000
   160   6 C    3.813 --   159 C    1.573   161 C    1.267   200 H    1.002
   161   6 C    3.872 --   163 C    1.348   160 C    1.267   162 N    1.218
   162   7 N    3.224 --   158 C    1.253   161 C    1.218   201 H    0.962
   163   6 C    3.784 --   173 C    1.388   161 C    1.348   164 C    1.028
   164   6 C    3.817 --   165 C    1.422   171 C    1.421   163 C    1.028
   165   6 C    3.887 --   167 C    1.436   164 C    1.422   166 C    1.018
   166   6 C    3.888 --   165 C    1.018   204 H    0.997   203 H    0.993
                           202 H    0.992
   167   6 C    3.834 --   165 C    1.436   168 C    1.433   205 H    0.994
   168   6 C    3.928 --   167 C    1.433   170 C    1.432   169 C    1.009
   169   6 C    3.920 --   168 C    1.009   207 H    0.999   206 H    0.999
                           208 H    0.988
   170   6 C    3.834 --   171 C    1.436   168 C    1.432   209 H    0.994
   171   6 C    3.889 --   170 C    1.436   164 C    1.421   172 C    1.018
   172   6 C    3.888 --   171 C    1.018   211 H    0.997   212 H    0.993
                           210 H    0.992
   173   6 C    3.908 --   163 C    1.388   176 N    1.344   174 C    1.166
   174   6 C    3.829 --   175 C    1.686   173 C    1.166   213 H    1.002
   175   6 C    3.827 --   174 C    1.686   177 C    1.173   214 H    0.999
   176   7 N    2.516 --   177 C    1.423   173 C    1.344
   177   6 C    3.941 --   176 N    1.423   178 C    1.276   175 C    1.173
   178   6 C    3.812 --   177 C    1.276   179 C    1.276   153 C    1.234
   179   6 C    3.899 --   180 C    1.278   178 C    1.276   183 N    1.254
   180   6 C    3.808 --   181 C    1.571   179 C    1.278   215 H    0.998
   181   6 C    3.807 --   180 C    1.571   182 C    1.269   216 H    1.002
   182   6 C    3.873 --   184 C    1.343   181 C    1.269   183 N    1.220
   183   7 N    3.227 --   179 C    1.254   182 C    1.220   217 H    0.963
   184   6 C    3.782 --   194 C    1.392   182 C    1.343   185 C    1.028
   185   6 C    3.817 --   192 C    1.422   186 C    1.421   184 C    1.028
   186   6 C    3.887 --   188 C    1.437   185 C    1.421   187 C    1.018
   187   6 C    3.889 --   186 C    1.018   218 H    0.997   219 H    0.993
                           220 H    0.992
   188   6 C    3.834 --   186 C    1.437   189 C    1.432   221 H    0.994
   189   6 C    3.928 --   191 C    1.433   188 C    1.432   190 C    1.009
   190   6 C    3.920 --   189 C    1.009   224 H    0.999   222 H    0.998
                           223 H    0.988
   191   6 C    3.834 --   192 C    1.435   189 C    1.433   225 H    0.994
   192   6 C    3.889 --   191 C    1.435   185 C    1.422   193 C    1.018
   193   6 C    3.888 --   192 C    1.018   227 H    0.997   228 H    0.993
                           226 H    0.992
   194   6 C    3.909 --   184 C    1.392   198 N    1.344   195 C    1.164
   195   6 C    3.834 --   196 C    1.689   194 C    1.164   229 H    1.002
   196   6 C    3.832 --   195 C    1.689   197 C    1.170   230 H    1.001
   197   6 C    3.944 --   198 N    1.420   157 C    1.284   196 C    1.170
   198   7 N    2.513 --   197 C    1.420   194 C    1.344
   199   1 H    1.029 --   159 C    1.000
   200   1 H    1.042 --   160 C    1.002
   201   1 H    1.082 --   162 N    0.962
   202   1 H    1.050 --   166 C    0.992
   203   1 H    1.054 --   166 C    0.993
   204   1 H    1.042 --   166 C    0.997
   205   1 H    1.018 --   167 C    0.994
   206   1 H    1.035 --   169 C    0.999
   207   1 H    1.035 --   169 C    0.999
   208   1 H    1.034 --   169 C    0.988
   209   1 H    1.018 --   170 C    0.994
   210   1 H    1.051 --   172 C    0.992
   211   1 H    1.042 --   172 C    0.997
   212   1 H    1.053 --   172 C    0.993
   213   1 H    1.045 --   174 C    1.002
   214   1 H    1.035 --   175 C    0.999
   215   1 H    1.029 --   180 C    0.998
   216   1 H    1.042 --   181 C    1.002
   217   1 H    1.082 --   183 N    0.963
   218   1 H    1.042 --   187 C    0.997
   219   1 H    1.054 --   187 C    0.993
   220   1 H    1.049 --   187 C    0.992
   221   1 H    1.018 --   188 C    0.994
   222   1 H    1.035 --   190 C    0.998
   223   1 H    1.034 --   190 C    0.988
   224   1 H    1.035 --   190 C    0.999
   225   1 H    1.018 --   191 C    0.994
   226   1 H    1.051 --   193 C    0.992
   227   1 H    1.042 --   193 C    0.997
   228   1 H    1.053 --   193 C    0.993
   229   1 H    1.045 --   195 C    1.002
   230   1 H    1.033 --   196 C    1.001
   231   6 C    3.812 --   232 C    1.277   271 C    1.276   154 C    1.234
   232   6 C    3.899 --   233 C    1.278   231 C    1.277   236 N    1.254
   233   6 C    3.808 --   234 C    1.571   232 C    1.278   273 H    0.998
   234   6 C    3.807 --   233 C    1.571   235 C    1.269   274 H    1.002
   235   6 C    3.873 --   237 C    1.343   234 C    1.269   236 N    1.220
   236   7 N    3.227 --   232 C    1.254   235 C    1.220   275 H    0.963
   237   6 C    3.782 --   247 C    1.391   235 C    1.343   238 C    1.028
   238   6 C    3.817 --   245 C    1.421   239 C    1.421   237 C    1.028
   239   6 C    3.887 --   241 C    1.436   238 C    1.421   240 C    1.018
   240   6 C    3.888 --   239 C    1.018   278 H    0.997   277 H    0.993
                           276 H    0.992
   241   6 C    3.834 --   239 C    1.436   242 C    1.432   279 H    0.994
   242   6 C    3.928 --   244 C    1.433   241 C    1.432   243 C    1.009
   243   6 C    3.920 --   242 C    1.009   280 H    0.999   281 H    0.998
                           282 H    0.988
   244   6 C    3.834 --   245 C    1.435   242 C    1.433   283 H    0.994
   245   6 C    3.889 --   244 C    1.435   238 C    1.421   246 C    1.018
   246   6 C    3.888 --   245 C    1.018   285 H    0.997   284 H    0.993
                           286 H    0.992
   247   6 C    3.909 --   237 C    1.391   250 N    1.344   248 C    1.164
   248   6 C    3.834 --   249 C    1.689   247 C    1.164   287 H    1.002
   249   6 C    3.831 --   248 C    1.689   251 C    1.170   288 H    1.001
   250   7 N    2.513 --   251 C    1.420   247 C    1.344
   251   6 C    3.945 --   250 N    1.420   252 C    1.284   249 C    1.170
   252   6 C    3.809 --   251 C    1.284   253 C    1.282   155 C    1.216
   253   6 C    3.904 --   252 C    1.282   254 C    1.274   257 N    1.253
   254   6 C    3.809 --   255 C    1.574   253 C    1.274   289 H    1.000
   255   6 C    3.813 --   254 C    1.574   256 C    1.267   290 H    1.002
   256   6 C    3.873 --   258 C    1.347   255 C    1.267   257 N    1.218
   257   7 N    3.224 --   253 C    1.253   256 C    1.218   291 H    0.962
   258   6 C    3.784 --   268 C    1.389   256 C    1.347   259 C    1.028
   259   6 C    3.817 --   260 C    1.422   266 C    1.421   258 C    1.028
   260   6 C    3.887 --   262 C    1.435   259 C    1.422   261 C    1.018
   261   6 C    3.889 --   260 C    1.018   292 H    0.997   293 H    0.993
                           294 H    0.992
   262   6 C    3.834 --   260 C    1.435   263 C    1.433   295 H    0.994
   263   6 C    3.928 --   262 C    1.433   265 C    1.432   264 C    1.009
   264   6 C    3.920 --   263 C    1.009   296 H    0.999   298 H    0.998
                           297 H    0.988
   265   6 C    3.834 --   266 C    1.436   263 C    1.432   299 H    0.994
   266   6 C    3.889 --   265 C    1.436   259 C    1.421   267 C    1.018
   267   6 C    3.888 --   266 C    1.018   301 H    0.997   302 H    0.993
                           300 H    0.992
   268   6 C    3.908 --   258 C    1.389   272 N    1.343   269 C    1.166
   269   6 C    3.829 --   270 C    1.686   268 C    1.166   303 H    1.002
   270   6 C    3.826 --   269 C    1.686   271 C    1.173   304 H    0.999
   271   6 C    3.940 --   272 N    1.424   231 C    1.276   270 C    1.173
   272   7 N    2.516 --   271 C    1.424   268 C    1.343
   273   1 H    1.029 --   233 C    0.998
   274   1 H    1.042 --   234 C    1.002
   275   1 H    1.082 --   236 N    0.963
   276   1 H    1.049 --   240 C    0.992
   277   1 H    1.054 --   240 C    0.993
   278   1 H    1.042 --   240 C    0.997
   279   1 H    1.018 --   241 C    0.994
   280   1 H    1.035 --   243 C    0.999
   281   1 H    1.035 --   243 C    0.998
   282   1 H    1.034 --   243 C    0.988
   283   1 H    1.018 --   244 C    0.994
   284   1 H    1.052 --   246 C    0.993
   285   1 H    1.042 --   246 C    0.997
   286   1 H    1.053 --   246 C    0.992
   287   1 H    1.045 --   248 C    1.002
   288   1 H    1.033 --   249 C    1.001
   289   1 H    1.028 --   254 C    1.000
   290   1 H    1.042 --   255 C    1.002
   291   1 H    1.082 --   257 N    0.962
   292   1 H    1.042 --   261 C    0.997
   293   1 H    1.053 --   261 C    0.993
   294   1 H    1.050 --   261 C    0.992
   295   1 H    1.018 --   262 C    0.994
   296   1 H    1.035 --   264 C    0.999
   297   1 H    1.033 --   264 C    0.988
   298   1 H    1.035 --   264 C    0.998
   299   1 H    1.018 --   265 C    0.994
   300   1 H    1.050 --   267 C    0.992
   301   1 H    1.042 --   267 C    0.997
   302   1 H    1.053 --   267 C    0.993
   303   1 H    1.044 --   269 C    1.002
   304   1 H    1.035 --   270 C    0.999
 ---------------------------------------------------------------------------

Topologies differ in total number of bonds
Writing topology from bond orders to xtbtopo.mol

 dipole moment from electron density (au)
     X       Y       Z   
-132.5437   0.0399   0.0330  total (Debye):  336.893


           -------------------------------------------------
          | TOTAL ENERGY             -516.081337516396 Eh   |
          | GRADIENT NORM               0.087628342455 Eh/α |
          | HOMO-LUMO GAP               0.221139922828 eV   |
           -------------------------------------------------
########################################################################
[WARNING] Runtime exception occurred
-1- restart_readRestart: Dimension missmatch in restart file.
########################################################################

------------------------------------------------------------------------
 * finished run on 2022/07/28 at 14:31:50.819     
------------------------------------------------------------------------
 total:
 * wall-time:     0 d,  0 h,  0 min, 36.332 sec
 *  cpu-time:     0 d,  0 h,  0 min, 36.081 sec
 * ratio c/w:     0.993 speedup
 SCF:
 * wall-time:     0 d,  0 h,  0 min, 35.203 sec
 *  cpu-time:     0 d,  0 h,  0 min, 34.979 sec
 * ratio c/w:     0.994 speedup

