128
 energy: -254.059445716337 gnorm: 0.000470159697 xtb: 6.5.1 (b24c23e)
Ni          13.39060466081441       -0.02257475309360       -0.02534660830629
C           10.00203661975261       -0.03893823396234       -0.16719397683411
C           10.65777536608220       -1.25205034149839       -0.19438613950174
C            9.98666603922974       -2.51518612436579       -0.24356904996408
C           10.94737550451537       -3.46064495320150       -0.36442152175156
C           12.20460886196295       -2.77170105616134       -0.40399318840583
N           12.01871942679277       -1.42065529024184       -0.25555234985904
C           13.42740700519566       -3.39530196630491       -0.61914962428865
C           13.44732019005290       -4.85318693825962       -0.87569640252498
C           14.14045362361221       -5.71121286475187       -0.01639534588128
C           14.16435408383026       -7.07364732187787       -0.25232378763942
C           13.49312985335564       -7.58244275991310       -1.36058903158187
N           13.51904964382793       -9.01187376031210       -1.61599333657683
O           12.91684570335226       -9.41764409466215       -2.57673929697529
O           14.14041797306508       -9.70380180900217       -0.85081134166016
C           12.79849137957484       -6.74530641741118       -2.22908157118472
C           12.77665417075810       -5.38490773645075       -1.98129615994148
C           14.63421088875111       -2.70681544435049       -0.61037658728829
C           15.89981776107127       -3.31074599718240       -0.89878033592770
C           16.84137208709753       -2.35652497519564       -0.70401750631357
N           14.79653687161304       -1.37934156692356       -0.28715843564106
C           16.14871414235584       -1.17252225955147       -0.30676787195452
C           16.80051664452613       -0.00093881112820        0.08876455429463
C           16.10991349616220        1.16049199752875        0.44569078755412
C           16.75940103871084        2.35006869286360        0.89556438998259
C           15.79391912816739        3.28950222535956        1.03895823093705
C           14.55795076615743        2.67179652997648        0.66383035846034
N           14.75903747190222        1.34951317523087        0.34071990406443
C           13.34484572197680        3.34527798540074        0.59338094651576
C           13.32429307431013        4.80057196541211        0.86528203413555
C           12.56889533343899        5.30887872811030        1.92634080215155
C           12.54702372967958        6.66700412125950        2.18628977772868
C           13.28237355298677        7.52546111204077        1.37393115448598
N           13.25982924470144        8.95301094413409        1.64001647861318
O           12.59190750609621        9.33718969641021        2.56557466720581
O           13.91142669460916        9.66485683509721        0.91958063986461
C           14.03850065721360        7.03996820784507        0.31080851280847
C           14.05837939830134        5.67948914427114        0.06317339701499
C           12.14965900689841        2.71105927763038        0.27721963231635
C           10.89316529770520        3.38873165078383        0.13955645187156
C            9.95616881089131        2.43623230464210       -0.07528967275309
C           10.64161734909914        1.17982237709800       -0.07937075810995
N           11.99071998008819        1.36025145819299        0.09968118201891
H            8.91944605786078       -0.04390948881648       -0.21433143676921
H            8.91721694561472       -2.64146477606360       -0.19009789921303
H           10.82862865621155       -4.53052564513998       -0.41898611984573
H           14.64989400659065       -5.30352455107148        0.84892267120308
H           14.69414900429465       -7.74711518253270        0.41057900582013
H           12.28788488386258       -7.16599336799198       -3.08697013645972
H           12.25060482529880       -4.72093374004990       -2.65725269214959
H           16.04020904205641       -4.33111328260539       -1.21574395051624
H           17.91090478649088       -2.43316488432391       -0.81384697960554
H           17.81877297885418        2.43922849830440        1.07371987764332
H           15.89912805867732        4.30876508377797        1.37276514927112
H           12.00956935042554        4.62864653345848        2.55796687595939
H           11.97002156570837        7.06981316558182        3.00999539494426
H           14.59854472817490        7.72976998786486       -0.30903650127867
H           14.63393728854781        5.28986329202286       -0.76835148788383
H           10.75926203898828        4.45669073948641        0.19670076635590
H            8.89400971790196        2.55330664111636       -0.21898521518390
Ni          31.95013208819258        0.02728770514601       -0.01596883488352
C           35.33862639698342        0.09674576434088       -0.14218517792059
C           34.68260664636002        1.23134365133740        0.28758422683699
C           35.35342906527706        2.42099262481959        0.71542448250730
C           34.39246378572207        3.34242071597494        0.95826858557805
C           33.13535588793892        2.71815679434142        0.66360926760003
N           33.32160131754884        1.41010067564888        0.29451561472483
C           31.91235828010253        3.37655326435363        0.69829742620417
C           31.89214123372824        4.82423329077852        1.00728643802888
C           31.19924111182533        5.29712896056658        2.12589993018062
C           31.17519785984311        6.64856913332273        2.41829977898283
C           31.84603959850675        7.53607579017267        1.58164955882796
N           31.81986367669633        8.95691296831939        1.88110420819678
O           32.42186380553865        9.69354153795886        1.14263844361764
O           31.19858285794971        9.31121432961368        2.85003282192515
C           32.54039084202933        7.08599803872972        0.46231996183977
C           32.56238325337574        5.73199506535912        0.18168457455182
C           30.70569064682461        2.73466653053813        0.44847195113116
C           29.43987469925783        3.40227233936216        0.40772471500383
C           28.49858609164176        2.44434842536245        0.23060921551047
N           30.54375175077319        1.38279084541321        0.25038313637008
C           29.19162149984835        1.19798711900121        0.15484041527084
C           28.54024943054227       -0.03666884126031        0.08236394382997
C           29.23127305357018       -1.24695393911600       -0.02213742752086
C           28.58218132496402       -2.51863643644759       -0.05081075213134
C           29.54790509150720       -3.44302351378232       -0.27019060499363
C           30.78362642001082       -2.72934610438669       -0.38666433310061
N           30.58216061797476       -1.38243224991774       -0.19053279035008
C           31.99684227005291       -3.32695617877554       -0.70469854323986
C           32.01769227286862       -4.77802722737032       -0.99827999904851
C           32.77352490571035       -5.64693701958771       -0.20546623772131
C           32.79566402140718       -7.00343127538722       -0.47378794477276
C           32.06005215961793       -7.49482017650082       -1.54850802396161
N           32.08253556394993       -8.91803512040674       -1.83690804975731
O           32.75182643282079       -9.62091153270146       -1.12388838818743
O           31.43156623756736       -9.30780627959128       -2.77212380664135
C           31.30353559805635       -6.64627631106455       -2.35182584796885
C           31.28340757956538       -5.29222051872421       -2.07121872241537
C           33.19179012695603       -2.62009933418225       -0.76032426820220
C           34.44839085284714       -3.19635715200989       -1.14223814254662
C           35.38509213223687       -2.23244233096756       -0.98466955458176
C           34.69936166859270       -1.06631735500322       -0.51738124544238
N           33.35036441202584       -1.30116403318334       -0.41866160725073
H           36.42119669854296        0.11942916613475       -0.18433726526441
H           36.42287507341724        2.51838290576295        0.81201346771313
H           34.51095412914613        4.35471844701144        1.30888704503004
H           30.69006560369896        4.59452923176518        2.77521606498357
H           30.64561803769499        7.02408014579426        3.28560331009739
H           33.05070511761387        7.79787150818680       -0.17523904861642
H           33.08823260347435        5.37017463308282       -0.69414112630254
H           29.29914996597145        4.46700000965213        0.49649831690387
H           27.42901086618125        2.55626942179047        0.15769586146330
H           27.52288267710254       -2.66839446525081        0.08116757153669
H           29.44303622506408       -4.51312878317061       -0.34274722709828
H           33.33295955930259       -5.25306394264640        0.63501505047654
H           33.37297066002679       -7.68559220083205        0.13862642395488
H           30.74329075444142       -7.05344932840292       -3.18490463008459
H           30.70748206740740       -4.61935165952870       -2.69577176892922
H           34.58256366880925       -4.20785113666948       -1.48953087575591
H           36.44723000061241       -2.28677194058889       -1.16200046537025
C           18.20457535806398        0.00520850637507        0.12837118488604
C           19.42834373473476       -0.00119556459025        0.15394725704105
C           20.77121615589426       -0.01145963861781        0.17182649281953
C           22.00132233915254       -0.02923597263652        0.17863096696872
C           23.33944811416898       -0.04425388611675        0.17608404624833
C           24.56957018129051       -0.05823141229052        0.16403101997470
C           25.91242255918598       -0.06164027043509        0.14242290020202
C           27.13618258438232       -0.05790739037805        0.11678970956963
