      -----------------------------------------------------------      
     |                   =====================                   |     
     |                           x T B                           |     
     |                   =====================                   |     
     |                         S. Grimme                         |     
     |          Mulliken Center for Theoretical Chemistry        |     
     |                    University of Bonn                     |     
      -----------------------------------------------------------      

   * xtb version 6.5.1 (b24c23e) compiled by 'conda@728c89f4b128' on 2022-07-12

   xtb is free software: you can redistribute it and/or modify it under
   the terms of the GNU Lesser General Public License as published by
   the Free Software Foundation, either version 3 of the License, or
   (at your option) any later version.
   
   xtb is distributed in the hope that it will be useful,
   but WITHOUT ANY WARRANTY; without even the implied warranty of
   MERCHANTABILITY or FITNESS FOR A PARTICULAR PURPOSE.  See the
   GNU Lesser General Public License for more details.
   
   Cite this work as:
   * C. Bannwarth, E. Caldeweyher, S. Ehlert, A. Hansen, P. Pracht,
     J. Seibert, S. Spicher, S. Grimme, WIREs Comput. Mol. Sci., 2020, 11,
     e01493. DOI: 10.1002/wcms.1493
   
   for GFN2-xTB:
   * C. Bannwarth, S. Ehlert and S. Grimme., J. Chem. Theory Comput., 2019,
     15, 1652-1671. DOI: 10.1021/acs.jctc.8b01176
   for GFN1-xTB:
   * S. Grimme, C. Bannwarth, P. Shushkov, J. Chem. Theory Comput., 2017,
     13, 1989-2009. DOI: 10.1021/acs.jctc.7b00118
   for GFN0-xTB:
   * P. Pracht, E. Caldeweyher, S. Ehlert, S. Grimme, ChemRxiv, 2019, preprint.
     DOI: 10.26434/chemrxiv.8326202.v1
   for GFN-FF:
   * S. Spicher and S. Grimme, Angew. Chem. Int. Ed., 2020, 59, 15665-15673.
     DOI: 10.1002/anie.202004239
   
   for ALPB and GBSA implicit solvation:
   * S. Ehlert, M. Stahn, S. Spicher, S. Grimme, J. Chem. Theory Comput.,
     2021, 17, 4250-4261. DOI: 10.1021/acs.jctc.1c00471
   
   for DFT-D4:
   * E. Caldeweyher, C. Bannwarth and S. Grimme, J. Chem. Phys., 2017,
     147, 034112. DOI: 10.1063/1.4993215
   * E. Caldeweyher, S. Ehlert, A. Hansen, H. Neugebauer, S. Spicher,
     C. Bannwarth and S. Grimme, J. Chem. Phys., 2019, 150, 154122.
     DOI: 10.1063/1.5090222
   * E. Caldeweyher, J.-M. Mewes, S. Ehlert and S. Grimme, Phys. Chem. Chem. Phys.
     2020, 22, 8499-8512. DOI: 10.1039/D0CP00502A
   
   for sTDA-xTB:
   * S. Grimme and C. Bannwarth, J. Chem. Phys., 2016, 145, 054103.
     DOI: 10.1063/1.4959605
   
   in the mass-spec context:
   * V. Asgeirsson, C. Bauer and S. Grimme, Chem. Sci., 2017, 8, 4879.
     DOI: 10.1039/c7sc00601b
   * J. Koopman and S. Grimme, ACS Omega 2019, 4, 12, 15120-15133.
     DOI: 10.1021/acsomega.9b02011
   
   for metadynamics refer to:
   * S. Grimme, J. Chem. Theory Comput., 2019, 155, 2847-2862
     DOI: 10.1021/acs.jctc.9b00143
   
   for SPH calculations refer to:
   * S. Spicher and S. Grimme, J. Chem. Theory Comput., 2021, 17, 1701-1714
     DOI: 10.1021/acs.jctc.0c01306
   
   with help from (in alphabetical order)
   P. Atkinson, C. Bannwarth, F. Bohle, G. Brandenburg, E. Caldeweyher
   M. Checinski, S. Dohm, S. Ehlert, S. Ehrlich, I. Gerasimov, C. Hölzer
   A. Katbashev, J. Koopman, C. Lavigne, S. Lehtola, F. März, M. Müller,
   F. Musil, H. Neugebauer, J. Pisarek, C. Plett, P. Pracht, F. Pultar,
   J. Seibert, P. Shushkov, S. Spicher, M. Stahn, M. Steiner, T. Strunk,
   J. Stückrath, T. Rose, and J. Unsleber
   
 * started run on 2022/07/30 at 06:23:58.429     

           -------------------------------------------------
          |                Calculation Setup                |
           -------------------------------------------------

          program call               : xtb xtbopt.xyz --gfn 1 --vipea
          hostname                   : cx3-15-15.cx3.hpc.ic.ac.uk
          coordinate file            : xtbopt.xyz
          omp threads                :                     1

   ID    Z sym.   atoms
    1   28 Ni     1, 63, 129
    2    6 C      2-6, 8-11, 13, 15, 17-20, 22-27, 29-32, 34, 36, 38-42,
                  64-68, 70-73, 75, 77, 79-82, 84-89, 91-94, 96, 98, 100-104,
                  125-128, 130-134, 136-139, 141, 143, 145-148, 150-155,
                  157-160, 162, 164, 166-170
    3    7 N      7, 21, 28, 43, 69, 83, 90, 105, 135, 149, 156, 171
    4    8 O      12, 14, 16, 33, 35, 37, 74, 76, 78, 95, 97, 99, 140, 142,
                  144, 161, 163, 165
    5    1 H      44-62, 106-124, 172-189

           -------------------------------------------------
          |                 I P E A - x T B                 |
           -------------------------------------------------

        Reference                      10.1039/c7sc00601b
      * Hamiltonian:
        H0-scaling (s, p, d)           2.150000    2.300000    2.000000
        zeta-weighting                 0.000000
      * Dispersion:
        s8                             2.400000
        a1                             0.630000
        a2                             5.000000
        s9                             0.000000
      * Repulsion:
        kExp                           1.500000
        rExp                           1.000000
      * Coulomb:
        alpha                          1.000000
        third order                    atomic
        anisotropic                    false
      * Halogen bond correction:
        rad-scale                      1.300000
        damping                        0.440000


          ...................................................
          :                      SETUP                      :
          :.................................................:
          :  # basis functions                 792          :
          :  # atomic orbitals                 789          :
          :  # shells                          511          :
          :  # electrons                       654          :
          :  # halogen bonds                     0          :
          :  max. iterations                   250          :
          :  Hamiltonian                  GFN1-xTB          :
          :  restarted?                      false          :
          :  GBSA solvation                  false          :
          :  PC potential                    false          :
          :  electronic temp.          300.0000000     K    :
          :  accuracy                    1.0000000          :
          :  -> integral cutoff          0.2500000E+02      :
          :  -> integral neglect         0.1000000E-07      :
          :  -> SCF convergence          0.1000000E-05 Eh   :
          :  -> wf. convergence          0.2000000E-04 e    :
          :  Broyden damping             0.4000000          :
          ...................................................

 iter      E             dE          RMSdq      gap      omega  full diag
   1   -419.3302656 -0.419330E+03  0.102E+01    0.43       0.0  T
   2   -420.5205643 -0.119030E+01  0.620E+00    1.03       1.0  T
   3   -416.4520862  0.406848E+01  0.426E+00    0.89       1.0  T
   4   -421.1871360 -0.473505E+01  0.124E+00    1.55       1.0  T
   5   -421.8652944 -0.678158E+00  0.223E-01    1.31       1.0  T
   6   -421.8850905 -0.197961E-01  0.891E-02    1.35       1.0  T
   7   -421.8878783 -0.278783E-02  0.424E-02    1.33       1.0  T
   8   -421.8885664 -0.688104E-03  0.180E-02    1.33       1.0  T
   9   -421.8885992 -0.327576E-04  0.116E-02    1.33       1.0  T
  10   -421.8886397 -0.405242E-04  0.376E-03    1.33       1.9  T
  11   -421.8886416 -0.187878E-05  0.166E-03    1.33       4.4  T
  12   -421.8886426 -0.102806E-05  0.497E-04    1.33      14.6  T
  13   -421.8886427 -0.649740E-07  0.201E-04    1.33      36.2  T
  14   -421.8886427 -0.118426E-07  0.106E-04    1.33      68.5  T
  15   -421.8886427 -0.445925E-08  0.242E-05    1.33     300.0  T

   *** convergence criteria satisfied after 15 iterations ***

         #    Occupation            Energy/Eh            Energy/eV
      -------------------------------------------------------------
         1        2.0000           -1.0448704             -28.4324
       ...           ...                  ...                  ...
       321        2.0000           -0.3790454             -10.3143
       322        2.0000           -0.3789140             -10.3108
       323        2.0000           -0.3789049             -10.3105
       324        2.0000           -0.3785484             -10.3008
       325        2.0000           -0.3782937             -10.2939
       326        2.0000           -0.3781812             -10.2908
       327        2.0000           -0.3689220             -10.0389 (HOMO)
       328                         -0.3198782              -8.7043 (LUMO)
       329                         -0.3056384              -8.3168
       330                         -0.3027934              -8.2394
       331                         -0.3018512              -8.2138
       332                         -0.3010923              -8.1931
       ...                                ...                  ...
       789                        539.7201828           14686.5337
      -------------------------------------------------------------
                  HL-Gap            0.0490437 Eh            1.3345 eV
             Fermi-level           -0.3444001 Eh           -9.3716 eV

 SCC (total)                   0 d,  0 h,  0 min,  4.815 sec
 SCC setup                      ...        0 min,  0.005 sec (  0.102%)
 Dispersion                     ...        0 min,  0.007 sec (  0.152%)
 classical contributions        ...        0 min,  0.003 sec (  0.059%)
 integral evaluation            ...        0 min,  0.554 sec ( 11.496%)
 iterations                     ...        0 min,  2.951 sec ( 61.296%)
 molecular gradient             ...        0 min,  1.254 sec ( 26.038%)
 printout                       ...        0 min,  0.041 sec (  0.855%)

         :::::::::::::::::::::::::::::::::::::::::::::::::::::
         ::                     SUMMARY                     ::
         :::::::::::::::::::::::::::::::::::::::::::::::::::::
         :: total energy            -415.134420552365 Eh    ::
         :: gradient norm              0.084463255320 Eh/a0 ::
         :: HOMO-LUMO gap              1.334547782205 eV    ::
         ::.................................................::
         :: SCC energy              -421.888642670446 Eh    ::
         :: -> electrostatic           0.424978937747 Eh    ::
         :: repulsion energy           6.929326104502 Eh    ::
         :: dispersion energy         -0.175103986422 Eh    ::
         :: halogen bond corr.         0.000000000000 Eh    ::
         :: add. restraining           0.000000000000 Eh    ::
         :: total charge              -0.000000000000 e     ::
         :::::::::::::::::::::::::::::::::::::::::::::::::::::

           ------------------------------------------------- 
          |        vertical delta SCC IP calculation        |
           ------------------------------------------------- 
   1   -421.4821203 -0.421482E+03  0.105E-01    1.33       0.0  T
   2   -421.4810427  0.107757E-02  0.136E-01    1.26       1.0  T
   3   -421.4902739 -0.923115E-02  0.560E-02    1.29       1.0  T
   4   -421.4903051 -0.312902E-04  0.410E-02    1.30       1.0  T
   5   -421.4893215  0.983658E-03  0.437E-02    1.29       1.0  T
   6   -421.4909985 -0.167703E-02  0.211E-02    1.29       1.0  T
   7   -421.4910967 -0.981604E-04  0.809E-03    1.29       1.0  T
   8   -421.4911296 -0.328864E-04  0.467E-03    1.29       1.6  T
   9   -421.4911343 -0.472173E-05  0.272E-03    1.29       2.7  T
  10   -421.4911353 -0.106464E-05  0.143E-03    1.29       5.1  T
  11   -421.4911357 -0.361420E-06  0.642E-04    1.29      11.3  T
  12   -421.4911358 -0.908345E-07  0.188E-04    1.29      38.7  T
  13   -421.4911358 -0.898615E-08  0.800E-05    1.29      91.0  T
     SCC iter.                  ...        0 min,  2.557 sec
     gradient                   ...        0 min,  1.260 sec
------------------------------------------------------------------------
empirical IP shift (eV):    4.8455
delta SCC IP (eV):    5.9712
------------------------------------------------------------------------
           ------------------------------------------------- 
          |        vertical delta SCC EA calculation        |
           ------------------------------------------------- 
   1   -422.1474361 -0.422147E+03  0.188E-01    0.43       0.0  T
   2   -422.1640370 -0.166009E-01  0.166E-01    0.24       1.0  T
   3   -422.1759857 -0.119487E-01  0.880E-02    0.32       1.0  T
   4   -422.1767225 -0.736715E-03  0.614E-02    0.30       1.0  T
   5   -422.1767827 -0.602488E-04  0.387E-02    0.30       1.0  T
   6   -422.1765267  0.255955E-03  0.310E-02    0.31       1.0  T
   7   -422.1770967 -0.569932E-03  0.159E-02    0.31       1.0  T
   8   -422.1772941 -0.197381E-03  0.499E-03    0.31       1.5  T
   9   -422.1773015 -0.748692E-05  0.261E-03    0.30       2.8  T
  10   -422.1773033 -0.176842E-05  0.120E-03    0.30       6.1  T
  11   -422.1773037 -0.348007E-06  0.557E-04    0.30      13.1  T
  12   -422.1773038 -0.902154E-07  0.248E-04    0.30      29.4  T
  13   -422.1773038 -0.238824E-07  0.843E-05    0.30      86.3  T
  14   -422.1773038 -0.240777E-08  0.343E-05    0.30     212.0  T
     SCC iter.                  ...        0 min,  2.751 sec
     gradient                   ...        0 min,  1.265 sec
------------------------------------------------------------------------
empirical EA shift (eV):    4.8455
delta SCC EA (eV):    3.0094
------------------------------------------------------------------------
           -------------------------------------------------
          |                Property Printout                |
           -------------------------------------------------

    * Orbital Energies and Occupations

         #    Occupation            Energy/Eh            Energy/eV
      -------------------------------------------------------------
         1        2.0000           -0.9996696             -27.2024
       ...           ...                  ...                  ...
       316        2.0000           -0.3233874              -8.7998
       317        2.0000           -0.3218369              -8.7576
       318        2.0000           -0.3216743              -8.7532
       319        2.0000           -0.3215979              -8.7511
       320        2.0000           -0.3215349              -8.7494
       321        2.0000           -0.3213987              -8.7457
       322        2.0000           -0.3213493              -8.7444
       323        2.0000           -0.3172052              -8.6316
       324        2.0000           -0.3150830              -8.5738
       325        2.0000           -0.3143749              -8.5546
       326        2.0000           -0.3142454              -8.5511
       327        2.0000           -0.3080717              -8.3831
       328        0.9964           -0.2578282              -7.0159 (HOMO)
       329        0.0021           -0.2466287              -6.7111 (LUMO)
       330        0.0009           -0.2457973              -6.6885
       331        0.0007           -0.2455646              -6.6822
       332        0.0000           -0.2397349              -6.5235
       333                         -0.2308997              -6.2831
       334                         -0.2191836              -5.9643
       335                         -0.2151290              -5.8540
       336                         -0.2138381              -5.8188
       337                         -0.2132787              -5.8036
       338                         -0.2114586              -5.7541
       339                         -0.2050392              -5.5794
       ...                                ...                  ...
       789                        539.7837786           14688.2642
      -------------------------------------------------------------
                  HL-Gap            0.0111995 Eh            0.3048 eV
             Fermi-level           -0.2677218 Eh           -7.2851 eV

  Mulliken/CM5 charges         n(s)   n(p)   n(d)
     1Ni    0.26179  0.62873   0.575  0.790  8.373
     2C    -0.02914 -0.07053   1.078  2.952  0.000
     3C     0.05720  0.11779   1.111  2.832  0.000
     4C    -0.04165 -0.08819   1.084  2.957  0.000
     5C    -0.03759 -0.08368   1.079  2.958  0.000
     6C     0.05655  0.12055   1.103  2.841  0.000
     7N    -0.21350 -0.46414   1.315  3.898  0.000
     8C     0.00840  0.01370   1.084  2.908  0.000
     9C    -0.00216 -0.01049   1.079  2.924  0.000
    10C    -0.04059 -0.08876   1.063  2.977  0.000
    11C     0.08064  0.09774   1.115  2.804  0.000
    12O    -0.29529 -0.49047   1.629  4.666  0.000
    13C     0.06585  0.08563   1.091  2.843  0.000
    14O    -0.30377 -0.50368   1.622  4.682  0.000
    15C     0.07257  0.08766   1.104  2.824  0.000
    16O    -0.30345 -0.50700   1.623  4.680  0.000
    17C    -0.04650 -0.09591   1.051  2.996  0.000
    18C     0.05552  0.11886   1.100  2.844  0.000
    19C    -0.03857 -0.08465   1.074  2.964  0.000
    20C    -0.03689 -0.08272   1.079  2.958  0.000
    21N    -0.20935 -0.45970   1.317  3.892  0.000
    22C     0.06142  0.12644   1.115  2.824  0.000
    23C     0.01327  0.02006   1.077  2.910  0.000
    24C     0.06190  0.12693   1.115  2.823  0.000
    25C    -0.03572 -0.08160   1.079  2.957  0.000
    26C    -0.03698 -0.08305   1.074  2.963  0.000
    27C     0.05616  0.11947   1.100  2.843  0.000
    28N    -0.20941 -0.45962   1.317  3.892  0.000
    29C     0.00878  0.01409   1.084  2.907  0.000
    30C    -0.00188 -0.01024   1.079  2.923  0.000
    31C    -0.03980 -0.08798   1.063  2.977  0.000
    32C     0.08138  0.09849   1.115  2.803  0.000
    33O    -0.29409 -0.48930   1.629  4.665  0.000
    34C     0.06551  0.08526   1.091  2.844  0.000
    35O    -0.30411 -0.50399   1.622  4.682  0.000
    36C     0.07181  0.08686   1.104  2.824  0.000
    37O    -0.30464 -0.50820   1.624  4.681  0.000
    38C    -0.04760 -0.09707   1.051  2.997  0.000
    39C     0.05600  0.12003   1.102  2.842  0.000
    40C    -0.03901 -0.08503   1.079  2.960  0.000
    41C    -0.04240 -0.08893   1.085  2.958  0.000
    42C     0.05687  0.11747   1.111  2.832  0.000
    43N    -0.21345 -0.46409   1.315  3.898  0.000
    44H     0.01761  0.07665   0.982  0.000  0.000
    45H     0.02422  0.08086   0.976  0.000  0.000
    46H     0.02015  0.07922   0.980  0.000  0.000
    47H     0.02685  0.08758   0.973  0.000  0.000
    48H     0.23107  0.41051   0.769  0.000  0.000
    49H     0.23647  0.41582   0.764  0.000  0.000
    50H     0.23139  0.40388   0.769  0.000  0.000
    51H     0.02767  0.08781   0.972  0.000  0.000
    52H     0.01965  0.07869   0.980  0.000  0.000
    53H     0.01701  0.07558   0.983  0.000  0.000
    54H     0.01839  0.07701   0.982  0.000  0.000
    55H     0.02200  0.08116   0.978  0.000  0.000
    56H     0.02784  0.08848   0.972  0.000  0.000
    57H     0.23124  0.41068   0.769  0.000  0.000
    58H     0.23566  0.41505   0.764  0.000  0.000
    59H     0.22993  0.40243   0.770  0.000  0.000
    60H     0.02602  0.08603   0.974  0.000  0.000
    61H     0.01931  0.07837   0.981  0.000  0.000
    62H     0.02383  0.08047   0.976  0.000  0.000
    63Ni    0.26226  0.63028   0.575  0.790  8.373
    64C    -0.02885 -0.07023   1.078  2.951  0.000
    65C     0.05720  0.11777   1.111  2.832  0.000
    66C    -0.04155 -0.08808   1.084  2.957  0.000
    67C    -0.03751 -0.08361   1.079  2.958  0.000
    68C     0.05667  0.12068   1.103  2.841  0.000
    69N    -0.21327 -0.46422   1.315  3.898  0.000
    70C     0.00854  0.01386   1.084  2.908  0.000
    71C    -0.00206 -0.01038   1.078  2.924  0.000
    72C    -0.04038 -0.08854   1.063  2.977  0.000
    73C     0.08080  0.09791   1.115  2.804  0.000
    74O    -0.29519 -0.49039   1.629  4.666  0.000
    75C     0.06599  0.08576   1.091  2.843  0.000
    76O    -0.30379 -0.50370   1.622  4.681  0.000
    77C     0.07266  0.08773   1.104  2.824  0.000
    78O    -0.30355 -0.50711   1.623  4.680  0.000
    79C    -0.04635 -0.09577   1.051  2.996  0.000
    80C     0.05581  0.11914   1.101  2.844  0.000
    81C    -0.03787 -0.08397   1.075  2.963  0.000
    82C    -0.03613 -0.08199   1.079  2.958  0.000
    83N    -0.20923 -0.45986   1.317  3.892  0.000
    84C     0.06168  0.12671   1.115  2.823  0.000
    85C     0.01357  0.02037   1.077  2.909  0.000
    86C     0.06186  0.12691   1.115  2.823  0.000
    87C    -0.03589 -0.08174   1.079  2.957  0.000
    88C    -0.03698 -0.08304   1.074  2.963  0.000
    89C     0.05628  0.11958   1.101  2.843  0.000
    90N    -0.20926 -0.45973   1.317  3.892  0.000
    91C     0.00894  0.01426   1.084  2.907  0.000
    92C    -0.00204 -0.01038   1.078  2.924  0.000
    93C    -0.04002 -0.08822   1.063  2.977  0.000
    94C     0.08139  0.09850   1.115  2.803  0.000
    95O    -0.29412 -0.48929   1.629  4.665  0.000
    96C     0.06585  0.08563   1.091  2.843  0.000
    97O    -0.30356 -0.50348   1.622  4.681  0.000
    98C     0.07200  0.08708   1.104  2.824  0.000
    99O    -0.30434 -0.50788   1.624  4.681  0.000
   100C    -0.04758 -0.09706   1.051  2.997  0.000
   101C     0.05615  0.12017   1.102  2.841  0.000
   102C    -0.03885 -0.08487   1.079  2.960  0.000
   103C    -0.04224 -0.08877   1.085  2.958  0.000
   104C     0.05689  0.11748   1.111  2.832  0.000
   105N    -0.21330 -0.46422   1.315  3.898  0.000
   106H     0.01780  0.07683   0.982  0.000  0.000
   107H     0.02426  0.08089   0.976  0.000  0.000
   108H     0.02008  0.07912   0.980  0.000  0.000
   109H     0.02705  0.08781   0.973  0.000  0.000
   110H     0.23106  0.41050   0.769  0.000  0.000
   111H     0.23629  0.41568   0.764  0.000  0.000
   112H     0.23124  0.40375   0.769  0.000  0.000
   113H     0.02765  0.08779   0.972  0.000  0.000
   114H     0.02043  0.07947   0.980  0.000  0.000
   115H     0.01784  0.07642   0.982  0.000  0.000
   116H     0.01814  0.07673   0.982  0.000  0.000
   117H     0.02225  0.08141   0.978  0.000  0.000
   118H     0.02743  0.08806   0.973  0.000  0.000
   119H     0.23158  0.41100   0.768  0.000  0.000
   120H     0.23609  0.41544   0.764  0.000  0.000
   121H     0.23005  0.40256   0.770  0.000  0.000
   122H     0.02610  0.08613   0.974  0.000  0.000
   123H     0.01947  0.07853   0.981  0.000  0.000
   124H     0.02396  0.08060   0.976  0.000  0.000
   125C    -0.03357 -0.03597   1.068  2.966  0.000
   126C    -0.02957 -0.03184   1.072  2.958  0.000
   127C    -0.02929 -0.03156   1.072  2.958  0.000
   128C    -0.03333 -0.03573   1.068  2.966  0.000
   129Ni    0.26220  0.64405   0.575  0.790  8.373
   130C     0.00845  0.01546   1.072  2.919  0.000
   131C     0.06058  0.12555   1.115  2.824  0.000
   132C    -0.03942 -0.08525   1.076  2.963  0.000
   133C    -0.03894 -0.08510   1.076  2.963  0.000
   134C     0.05302  0.11630   1.099  2.848  0.000
   135N    -0.21041 -0.46466   1.316  3.895  0.000
   136C     0.00948  0.01492   1.086  2.905  0.000
   137C    -0.00341 -0.01159   1.075  2.928  0.000
   138C    -0.04549 -0.09484   1.051  2.994  0.000
   139C     0.08095  0.09827   1.112  2.807  0.000
   140O    -0.29555 -0.49247   1.624  4.672  0.000
   141C     0.07583  0.09806   1.101  2.823  0.000
   142O    -0.29645 -0.48902   1.626  4.670  0.000
   143C     0.07143  0.08646   1.104  2.824  0.000
   144O    -0.30329 -0.50825   1.622  4.682  0.000
   145C    -0.04596 -0.09539   1.052  2.994  0.000
   146C     0.05314  0.11635   1.100  2.847  0.000
   147C    -0.03839 -0.08458   1.076  2.962  0.000
   148C    -0.03886 -0.08469   1.077  2.962  0.000
   149N    -0.21062 -0.46471   1.316  3.895  0.000
   150C     0.06092  0.12592   1.115  2.824  0.000
   151C     0.00860  0.01561   1.072  2.919  0.000
   152C     0.06116  0.12609   1.115  2.824  0.000
   153C    -0.03833 -0.08417   1.076  2.962  0.000
   154C    -0.03711 -0.08330   1.075  2.962  0.000
   155C     0.05453  0.11781   1.099  2.846  0.000
   156N    -0.20987 -0.46432   1.315  3.894  0.000
   157C     0.01090  0.01637   1.085  2.904  0.000
   158C     0.00274 -0.00530   1.083  2.914  0.000
   159C    -0.03884 -0.08694   1.063  2.976  0.000
   160C     0.08385  0.10090   1.119  2.797  0.000
   161O    -0.29436 -0.48957   1.632  4.663  0.000
   162C     0.05319  0.07093   1.080  2.867  0.000
   163O    -0.31772 -0.52338   1.613  4.705  0.000
   164C     0.07791  0.09380   1.112  2.810  0.000
   165O    -0.29981 -0.49847   1.627  4.673  0.000
   166C    -0.03906 -0.08721   1.064  2.975  0.000
   167C     0.05437  0.11762   1.099  2.846  0.000
   168C    -0.03728 -0.08345   1.075  2.962  0.000
   169C    -0.03826 -0.08412   1.076  2.962  0.000
   170C     0.06113  0.12610   1.115  2.824  0.000
   171N    -0.21014 -0.46439   1.316  3.894  0.000
   172H     0.01378  0.07206   0.986  0.000  0.000
   173H     0.01713  0.07600   0.983  0.000  0.000
   174H     0.02719  0.08791   0.973  0.000  0.000
   175H     0.22835  0.40104   0.772  0.000  0.000
   176H     0.23277  0.41354   0.767  0.000  0.000
   177H     0.23074  0.40336   0.769  0.000  0.000
   178H     0.02640  0.08684   0.974  0.000  0.000
   179H     0.01826  0.07714   0.982  0.000  0.000
   180H     0.01429  0.07260   0.986  0.000  0.000
   181H     0.01427  0.07258   0.986  0.000  0.000
   182H     0.01811  0.07700   0.982  0.000  0.000
   183H     0.02881  0.08984   0.971  0.000  0.000
   184H     0.22837  0.40773   0.772  0.000  0.000
   185H     0.23439  0.40912   0.766  0.000  0.000
   186H     0.22638  0.40365   0.774  0.000  0.000
   187H     0.02808  0.08914   0.972  0.000  0.000
   188H     0.01768  0.07657   0.982  0.000  0.000
   189H     0.01419  0.07252   0.986  0.000  0.000

Wiberg/Mayer (AO) data.
largest (>0.10) Wiberg bond orders for each atom

 ---------------------------------------------------------------------------
     #   Z sym  total        # sym  WBO       # sym  WBO       # sym  WBO
 ---------------------------------------------------------------------------
     1  28 Ni   3.321 --    28 N    0.716    21 N    0.715     7 N    0.714
                            43 N    0.714
     2   6 C    3.793 --     3 C    1.389    42 C    1.388    44 H    0.997
     3   6 C    3.946 --     2 C    1.389     7 N    1.256     4 C    1.202
     4   6 C    3.841 --     5 C    1.638     3 C    1.202    45 H    0.994
     5   6 C    3.829 --     4 C    1.638     6 C    1.211    46 H    1.000
     6   6 C    3.913 --     8 C    1.374     7 N    1.244     5 C    1.211
     7   7 N    3.003 --     3 C    1.256     6 C    1.244     1 Ni   0.714
     8   6 C    3.826 --     6 C    1.374    18 C    1.364     9 C    1.047
     9   6 C    3.892 --    10 C    1.416    17 C    1.408     8 C    1.047
    10   6 C    3.849 --     9 C    1.416    11 C    1.393    47 H    0.994
    11   6 C    3.977 --    10 C    1.393    13 C    1.359    12 O    1.123
    12   8 O    2.157 --    11 C    1.123    48 H    0.965
    13   6 C    3.912 --    15 C    1.370    11 C    1.359    14 O    1.087
    14   8 O    2.099 --    13 C    1.087    49 H    0.962
    15   6 C    3.939 --    17 C    1.400    13 C    1.370    16 O    1.093
    16   8 O    2.112 --    15 C    1.093    50 H    0.963
    17   6 C    3.819 --     9 C    1.408    15 C    1.400    51 H    0.992
    18   6 C    3.899 --     8 C    1.364    21 N    1.240    19 C    1.225
    19   6 C    3.815 --    20 C    1.613    18 C    1.225    52 H    1.000
    20   6 C    3.814 --    19 C    1.613    22 C    1.234    53 H    0.999
    21   7 N    3.020 --    22 C    1.280    18 C    1.240     1 Ni   0.715
    22   6 C    3.919 --    23 C    1.296    21 N    1.280    20 C    1.234
    23   6 C    3.815 --    24 C    1.297    22 C    1.296   125 C    1.215
    24   6 C    3.920 --    23 C    1.297    28 N    1.281    25 C    1.232
    25   6 C    3.815 --    26 C    1.617    24 C    1.232    54 H    0.999
    26   6 C    3.813 --    25 C    1.617    27 C    1.223    55 H    0.999
    27   6 C    3.898 --    29 C    1.368    28 N    1.239    26 C    1.223
    28   7 N    3.021 --    24 C    1.281    27 C    1.239     1 Ni   0.716
    29   6 C    3.826 --    39 C    1.373    27 C    1.368    30 C    1.043
    30   6 C    3.892 --    31 C    1.418    38 C    1.410    29 C    1.043
    31   6 C    3.849 --    30 C    1.418    32 C    1.392    56 H    0.993
    32   6 C    3.978 --    31 C    1.392    34 C    1.359    33 O    1.124
    33   8 O    2.158 --    32 C    1.124    57 H    0.965
    34   6 C    3.912 --    36 C    1.371    32 C    1.359    35 O    1.086
    35   8 O    2.099 --    34 C    1.086    58 H    0.963
    36   6 C    3.938 --    38 C    1.399    34 C    1.371    37 O    1.091
    37   8 O    2.110 --    36 C    1.091    59 H    0.964
    38   6 C    3.821 --    30 C    1.410    36 C    1.399    60 H    0.992
    39   6 C    3.912 --    29 C    1.373    43 N    1.245    40 C    1.212
    40   6 C    3.830 --    41 C    1.637    39 C    1.212    61 H    1.001
    41   6 C    3.841 --    40 C    1.637    42 C    1.203    62 H    0.994
    42   6 C    3.946 --     2 C    1.388    43 N    1.257    41 C    1.203
    43   7 N    3.004 --    42 C    1.257    39 C    1.245     1 Ni   0.714
    44   1 H    1.041 --     2 C    0.997
    45   1 H    1.028 --     4 C    0.994
    46   1 H    1.039 --     5 C    1.000
    47   1 H    1.040 --    10 C    0.994
    48   1 H    0.998 --    12 O    0.965
    49   1 H    0.993 --    14 O    0.962
    50   1 H    0.997 --    16 O    0.963
    51   1 H    1.029 --    17 C    0.992
    52   1 H    1.038 --    19 C    1.000
    53   1 H    1.047 --    20 C    0.999
    54   1 H    1.047 --    25 C    0.999
    55   1 H    1.037 --    26 C    0.999
    56   1 H    1.041 --    31 C    0.993
    57   1 H    0.998 --    33 O    0.965
    58   1 H    0.994 --    35 O    0.963
    59   1 H    0.999 --    37 O    0.964
    60   1 H    1.029 --    38 C    0.992
    61   1 H    1.036 --    40 C    1.001
    62   1 H    1.027 --    41 C    0.994
    63  28 Ni   3.324 --    90 N    0.716    83 N    0.715   105 N    0.714
                            69 N    0.714
    64   6 C    3.794 --    65 C    1.389   104 C    1.388   106 H    0.997
    65   6 C    3.946 --    64 C    1.389    69 N    1.256    66 C    1.203
    66   6 C    3.842 --    67 C    1.638    65 C    1.203   107 H    0.994
    67   6 C    3.830 --    66 C    1.638    68 C    1.211   108 H    1.000
    68   6 C    3.913 --    70 C    1.373    69 N    1.245    67 C    1.211
    69   7 N    3.004 --    65 C    1.256    68 C    1.245    63 Ni   0.714
    70   6 C    3.827 --    68 C    1.373    80 C    1.365    71 C    1.047
    71   6 C    3.892 --    72 C    1.415    79 C    1.408    70 C    1.047
    72   6 C    3.849 --    71 C    1.415    73 C    1.393   109 H    0.994
    73   6 C    3.977 --    72 C    1.393    75 C    1.359    74 O    1.123
    74   8 O    2.157 --    73 C    1.123   110 H    0.965
    75   6 C    3.912 --    77 C    1.370    73 C    1.359    76 O    1.087
    76   8 O    2.099 --    75 C    1.087   111 H    0.962
    77   6 C    3.938 --    79 C    1.400    75 C    1.370    78 O    1.093
    78   8 O    2.112 --    77 C    1.093   112 H    0.963
    79   6 C    3.819 --    71 C    1.408    77 C    1.400   113 H    0.992
    80   6 C    3.899 --    70 C    1.365    83 N    1.240    81 C    1.224
    81   6 C    3.815 --    82 C    1.615    80 C    1.224   114 H    0.999
    82   6 C    3.815 --    81 C    1.615    84 C    1.233   115 H    0.999
    83   7 N    3.020 --    84 C    1.280    80 C    1.240    63 Ni   0.715
    84   6 C    3.919 --    85 C    1.297    83 N    1.280    82 C    1.233
    85   6 C    3.816 --    86 C    1.297    84 C    1.297   128 C    1.214
    86   6 C    3.920 --    85 C    1.297    90 N    1.280    87 C    1.232
    87   6 C    3.816 --    88 C    1.617    86 C    1.232   116 H    0.999
    88   6 C    3.813 --    87 C    1.617    89 C    1.223   117 H    0.999
    89   6 C    3.899 --    91 C    1.368    90 N    1.239    88 C    1.223
    90   7 N    3.021 --    86 C    1.280    89 C    1.239    63 Ni   0.716
    91   6 C    3.827 --   101 C    1.373    89 C    1.368    92 C    1.043
    92   6 C    3.892 --    93 C    1.418   100 C    1.410    91 C    1.043
    93   6 C    3.849 --    92 C    1.418    94 C    1.392   118 H    0.994
    94   6 C    3.978 --    93 C    1.392    96 C    1.359    95 O    1.124
    95   8 O    2.158 --    94 C    1.124   119 H    0.965
    96   6 C    3.912 --    98 C    1.371    94 C    1.359    97 O    1.087
    97   8 O    2.099 --    96 C    1.087   120 H    0.963
    98   6 C    3.938 --   100 C    1.399    96 C    1.371    99 O    1.092
    99   8 O    2.111 --    98 C    1.092   121 H    0.964
   100   6 C    3.820 --    92 C    1.410    98 C    1.399   122 H    0.992
   101   6 C    3.912 --    91 C    1.373   105 N    1.245   102 C    1.212
   102   6 C    3.830 --   103 C    1.637   101 C    1.212   123 H    1.001
   103   6 C    3.842 --   102 C    1.637   104 C    1.203   124 H    0.994
   104   6 C    3.946 --    64 C    1.388   105 N    1.256   103 C    1.203
   105   7 N    3.005 --   104 C    1.256   101 C    1.245    63 Ni   0.714
   106   1 H    1.041 --    64 C    0.997
   107   1 H    1.028 --    66 C    0.994
   108   1 H    1.039 --    67 C    1.000
   109   1 H    1.040 --    72 C    0.994
   110   1 H    0.998 --    74 O    0.965
   111   1 H    0.994 --    76 O    0.962
   112   1 H    0.998 --    78 O    0.963
   113   1 H    1.029 --    79 C    0.992
   114   1 H    1.037 --    81 C    0.999
   115   1 H    1.047 --    82 C    0.999
   116   1 H    1.047 --    87 C    0.999
   117   1 H    1.037 --    88 C    0.999
   118   1 H    1.041 --    93 C    0.994
   119   1 H    0.998 --    95 O    0.965
   120   1 H    0.993 --    97 O    0.963
   121   1 H    0.998 --    99 O    0.964
   122   1 H    1.028 --   100 C    0.992
   123   1 H    1.036 --   102 C    1.001
   124   1 H    1.027 --   103 C    0.994
   125   6 C    3.762 --   126 C    2.610    23 C    1.215
   126   6 C    3.763 --   125 C    2.610   130 C    1.217
   127   6 C    3.763 --   128 C    2.610   151 C    1.217
   128   6 C    3.762 --   127 C    2.610    85 C    1.214
   129  28 Ni   3.337 --   156 N    0.716   171 N    0.716   149 N    0.715
                           135 N    0.715
   130   6 C    3.802 --   170 C    1.292   131 C    1.290   126 C    1.217
   131   6 C    3.921 --   130 C    1.290   135 N    1.280   132 C    1.236
   132   6 C    3.808 --   133 C    1.609   131 C    1.236   172 H    0.999
   133   6 C    3.818 --   132 C    1.609   134 C    1.228   173 H    1.000
   134   6 C    3.899 --   136 C    1.364   135 N    1.235   133 C    1.228
   135   7 N    3.003 --   131 C    1.280   134 C    1.235   129 Ni   0.715
   136   6 C    3.823 --   146 C    1.367   134 C    1.364   137 C    1.059
   137   6 C    3.887 --   138 C    1.411   145 C    1.401   136 C    1.059
   138   6 C    3.814 --   137 C    1.411   139 C    1.396   174 H    0.994
   139   6 C    3.968 --   138 C    1.396   141 C    1.354   140 O    1.115
   140   8 O    2.147 --   139 C    1.115   175 H    0.966
   141   6 C    3.944 --   143 C    1.358   139 C    1.354   142 O    1.113
   142   8 O    2.144 --   141 C    1.113   176 H    0.963
   143   6 C    3.936 --   145 C    1.410   141 C    1.358   144 O    1.088
   144   8 O    2.105 --   143 C    1.088   177 H    0.963
   145   6 C    3.817 --   143 C    1.410   137 C    1.401   178 H    0.993
   146   6 C    3.900 --   136 C    1.367   149 N    1.233   147 C    1.227
   147   6 C    3.819 --   148 C    1.611   146 C    1.227   179 H    1.000
   148   6 C    3.809 --   147 C    1.611   150 C    1.235   180 H    0.999
   149   7 N    3.003 --   150 C    1.281   146 C    1.233   129 Ni   0.715
   150   6 C    3.921 --   151 C    1.290   149 N    1.281   148 C    1.235
   151   6 C    3.803 --   152 C    1.292   150 C    1.290   127 C    1.217
   152   6 C    3.921 --   151 C    1.292   156 N    1.280   153 C    1.234
   153   6 C    3.809 --   154 C    1.612   152 C    1.234   181 H    0.999
   154   6 C    3.817 --   153 C    1.612   155 C    1.226   182 H    1.000
   155   6 C    3.900 --   157 C    1.365   156 N    1.234   154 C    1.226
   156   7 N    3.002 --   152 C    1.280   155 C    1.234   129 Ni   0.716
   157   6 C    3.823 --   167 C    1.367   155 C    1.365   158 C    1.057
   158   6 C    3.899 --   166 C    1.412   159 C    1.412   157 C    1.057
   159   6 C    3.844 --   158 C    1.412   160 C    1.391   183 H    0.993
   160   6 C    3.980 --   159 C    1.391   162 C    1.366   161 O    1.130
   161   8 O    2.172 --   160 C    1.130   184 H    0.965
   162   6 C    3.868 --   164 C    1.378   160 C    1.366   163 O    1.047
   163   8 O    2.031 --   162 C    1.047   185 H    0.961
   164   6 C    3.958 --   166 C    1.392   162 C    1.378   165 O    1.111
   165   8 O    2.142 --   164 C    1.111   186 H    0.968
   166   6 C    3.846 --   158 C    1.412   164 C    1.392   187 H    0.993
   167   6 C    3.900 --   157 C    1.367   171 N    1.233   168 C    1.226
   168   6 C    3.817 --   169 C    1.613   167 C    1.226   188 H    1.000
   169   6 C    3.809 --   168 C    1.613   170 C    1.234   189 H    0.999
   170   6 C    3.921 --   130 C    1.292   171 N    1.280   169 C    1.234
   171   7 N    3.003 --   170 C    1.280   167 C    1.233   129 Ni   0.716
   172   1 H    1.045 --   132 C    0.999
   173   1 H    1.039 --   133 C    1.000
   174   1 H    1.028 --   138 C    0.994
   175   1 H    1.005 --   140 O    0.966
   176   1 H    0.999 --   142 O    0.963
   177   1 H    0.999 --   144 O    0.963
   178   1 H    1.029 --   145 C    0.993
   179   1 H    1.038 --   147 C    1.000
   180   1 H    1.045 --   148 C    0.999
   181   1 H    1.045 --   153 C    0.999
   182   1 H    1.041 --   154 C    1.000
   183   1 H    1.039 --   159 C    0.993
   184   1 H    1.002 --   161 O    0.965
   185   1 H    0.984 --   163 O    0.961
   186   1 H    0.998 --   165 O    0.968
   187   1 H    1.040 --   166 C    0.993
   188   1 H    1.041 --   168 C    1.000
   189   1 H    1.046 --   169 C    0.999
 ---------------------------------------------------------------------------

Topologies differ in total number of bonds
Writing topology from bond orders to xtbtopo.mol

 dipole moment from electron density (au)
     X       Y       Z   
 -89.1493  -1.9615  -0.6668  total (Debye):  226.656


           -------------------------------------------------
          | TOTAL ENERGY             -415.423081659836 Eh   |
          | GRADIENT NORM               0.090160901001 Eh/α |
          | HOMO-LUMO GAP               0.304753259246 eV   |
           -------------------------------------------------
########################################################################
[WARNING] Runtime exception occurred
-1- restart_readRestart: Dimension missmatch in restart file.
########################################################################

------------------------------------------------------------------------
 * finished run on 2022/07/30 at 06:24:12.860     
------------------------------------------------------------------------
 total:
 * wall-time:     0 d,  0 h,  0 min, 14.430 sec
 *  cpu-time:     0 d,  0 h,  0 min, 14.364 sec
 * ratio c/w:     0.995 speedup
 SCF:
 * wall-time:     0 d,  0 h,  0 min, 13.868 sec
 *  cpu-time:     0 d,  0 h,  0 min, 13.810 sec
 * ratio c/w:     0.996 speedup

