588
 energy: -1040.271531947043 gnorm: 0.000972098216 xtb: 6.5.1 (b24c23e)
C          105.56184005142292        0.07251936684850       -0.02763570215308
C          106.17206247557608        1.31902980257018       -0.08056010517381
C          105.52135196324495        2.58472259883818       -0.09908613403669
C          106.48387351184840        3.55243556582111       -0.16168143384826
C          107.75379036724306        2.90828438564467       -0.19547347012045
N          107.51508684940781        1.56501501350389       -0.13361029145232
C          109.01801750407581        3.50554908651353       -0.25955241594886
C          109.05418425777937        4.98514080760856       -0.34095681359060
C          109.69192061955594        5.73135208972462        0.65318220032139
C          109.72710083944143        7.11234326929819        0.58500040029244
C          109.12573121411857        7.77661046565559       -0.48823847974205
C          109.16253299038561        9.19766423222324       -0.56334774214059
N          109.19211741438308       10.34644735042580       -0.62425152354157
C          108.48830522485120        7.03469770223354       -1.48707522553611
C          108.45219091816369        5.65394313774512       -1.40936964385789
C          110.23236597561998        2.81455751215025       -0.25287229017675
C          111.52921607086876        3.45239167326749       -0.39412686430758
C          112.44785527352873        2.46608039893691       -0.33988439883781
N          110.38441303035344        1.46676182175148       -0.13743177102411
C          111.71079426219974        1.22820809107600       -0.17395651932539
C          112.34653649782373       -0.02436898238548       -0.05463328135677
C          111.71031472151007       -1.27377761832635        0.07231683804266
C          112.35453028972732       -2.53003551446239        0.22497838685443
C          111.38755400868175       -3.49410062693574        0.29602593460871
C          110.12194229824603       -2.85515660508004        0.17871001407174
N          110.36892815442228       -1.51349784339932        0.05638201177965
C          108.85885196232095       -3.45642381671377        0.20571908440615
C          108.82551735355210       -4.93365618419101        0.31470936275618
C          108.19650515084898       -5.54970050762946        1.39949794216741
C          108.16802867861807       -6.92830280342595        1.50818912276492
C          108.76693428920903       -7.72168931081463        0.52504277667885
C          108.73873591346118       -9.14080530429798        0.63274564947549
N          108.71675527771086      -10.28808530802994        0.71945018506306
C          109.39450349168206       -7.11063731094296       -0.56461749618811
C          109.42418446529958       -5.73126542671596       -0.66376088331772
C          107.64287154369578       -2.76745333154760        0.13759998758821
C          106.33776682088094       -3.40974786361401        0.10624153692918
C          105.42605282430571       -2.41889253795258        0.04194228239071
C          106.17292024304581       -1.17325749813424        0.02297004051899
N          107.50478758084127       -1.42243833189276        0.07104945041672
H          104.47655431164590        0.08303110343330       -0.02469744617654
H          104.45267768637407        2.72327845914374       -0.06160978148804
H          106.33344042066298        4.61971450373374       -0.17465017118705
H          108.24013337780455        0.85544364726952       -0.12397304284978
H          110.14892557661774        5.22038572477293        1.49303745558906
H          110.21917447753798        7.68425717042289        1.36294475638511
H          108.02508729155642        7.54585055395100       -2.32290739398411
H          107.96978498464300        5.08229670944873       -2.19425251026417
H          111.69241092059114        4.50887362005046       -0.53226391733714
H          113.52106079161189        2.54157563055582       -0.41056039237957
H          113.42234420966808       -2.66785406387506        0.27886900123357
H          111.53504967345543       -4.55339816017575        0.42885020081595
H          109.64660571597931       -0.80565087991332       -0.02664832989723
H          107.74306135343967       -4.93796728596539        2.17115344482584
H          107.68389471434124       -7.39833413705102        2.35619282716711
H          109.85575632924430       -7.72226045373848       -1.33118706538496
H          109.89965410698477       -5.26231702088952       -1.51790358801155
H          106.16782307000383       -4.47430834671661        0.11737923562117
H          104.35062432609890       -2.49203318663372        0.00143329874892
C          261.00672616992239       -0.11889638696216       -0.07194963724314
C          260.39687066879958       -1.31929157000141        0.26878745057616
C          261.04852353717666       -2.53499999402265        0.61969156159879
C          260.08596013299609       -3.46985464405194        0.87729997724169
C          258.81479291543872       -2.85817628276030        0.68053761162309
N          259.05325096475502       -1.56126395587717        0.32514073708874
C          257.55017719438001       -3.43812389760647        0.83390388009435
C          257.51420465852902       -4.87220580760387        1.20733448498993
C          256.90577733422958       -5.27723649075194        2.39791876402986
C          256.87012903470372       -6.61371667070355        2.75239672244175
C          257.44148890335265       -7.57644911860085        1.91489268680983
C          257.40401499691268       -8.95322998971010        2.27472557847915
N          257.37308442792175      -10.06646364409176        2.56472799540672
C          258.04981386643601       -7.17684933716606        0.72129761479663
C          258.08666136660304       -5.83775995032521        0.37594695449732
C          256.33536128000418       -2.77050133711469        0.65919292568080
C          255.03626171538863       -3.41233729787019        0.75412481367329
C          254.11795826688819       -2.45229602193796        0.52039948352067
N          256.18433442100292       -1.45230674520555        0.35471918456430
C          254.85721964421845       -1.22893472131875        0.27526496117532
C          254.22272861969162        0.00037710764785        0.00385403101875
C          254.85992889076007        1.22383922276069       -0.27734100796310
C          254.21705514026920        2.46836628341638       -0.51048503806506
C          255.18433885244457        3.40427865479237       -0.75108883999796
C          256.44864944156160        2.75569716642815       -0.68280032402985
N          256.20078145977214        1.44209489731954       -0.38421897723590
C          257.71174845654150        3.33155970723597       -0.85751746694750
C          257.74654949075602        4.77261269985862       -1.20015251814683
C          258.39173247248800        5.68380399568331       -0.36023456322181
C          258.42131515282807        7.03111196312787       -0.67165145812570
C          257.80718568600247        7.49454043563991       -1.83904284580376
C          257.83611364315436        8.88031939366191       -2.16319926268884
N          257.85838071795712       10.00064818997950       -2.42529091375495
C          257.16372896194486        6.58660726782247       -2.68531971487024
C          257.13319773986194        5.24137150737889       -2.36460701514842
C          258.92684400052843        2.64896056286316       -0.73264446797559
C          260.23061486859655        3.24545703724531       -0.98001609575357
C          261.14171509106956        2.27673821405722       -0.75952812084649
C          260.39565907920974        1.08730412941419       -0.38749475771371
N          259.06474630602645        1.34613904442118       -0.39184847666078
H          262.09181650515086       -0.13428625080824       -0.08952665266695
H          262.11797864353673       -2.66246365626444        0.67153018228189
H          260.23731857900219       -4.49165783114224        1.18535311936583
H          258.32775561617433       -0.87778558845413        0.13593332688035
H          256.47215931250628       -4.53241239739387        3.05556760303904
H          256.40080081288005       -6.91935164440825        3.68015225636250
H          258.48976607367314       -7.92068266605240        0.06736953667099
H          258.54621391733002       -5.53436125918996       -0.55802059356682
H          254.87103421492787       -4.45828744066963        0.95548847964214
H          253.04345859267983       -2.53927145696184        0.50196875161653
H          253.14999515605160        2.61995252497758       -0.48747900293092
H          255.03788211114053        4.45370367522144       -0.94793385820426
H          256.92237396382541        0.74041986399657       -0.25514547811044
H          258.85709116379854        5.33055629073233        0.55297160606790
H          258.91801634432238        7.73240384210493       -0.01142227596681
H          256.69072231575103        6.94126048233866       -3.59358373585939
H          256.64537684938148        4.53922170906035       -3.03134843271030
H          260.39983254260977        4.26291319723850       -1.29377223456614
H          262.21610105668105        2.32882261069641       -0.84026244670452
C          113.75169645406201       -0.04094426781226       -0.05797747986269
C          114.97625727760588       -0.05518004599326       -0.05838221086186
C          116.31837731010145       -0.06305827165927       -0.05919531102639
C          117.54914878948078       -0.06535439494176       -0.05657176536023
C          118.88645028587216       -0.06516885851265       -0.05080322565911
C          120.11734814944434       -0.06079868315538       -0.04385327557929
C          121.45916983780832       -0.05059951229927       -0.03578338781049
C          122.68395818689271       -0.04079038702194       -0.02499722497492
C          132.34049407150619        0.11521853758788        0.10431751469964
C          133.56550900690837        0.12538423258594        0.11625057797684
C          134.90671678579838        0.13605871506583        0.12050053582324
C          136.13794942949053        0.13605364770833        0.12306994689345
C          137.47448914230753        0.13211244061910        0.11867887363004
C          138.70558958766387        0.12003605981130        0.11360041517767
C          140.04668262798776        0.10695422896709        0.10003606462894
C          141.27153141168966        0.08675883337942        0.08342453307597
C          150.92629364991510       -0.10403792348576       -0.09357603996001
C          152.15128123537326       -0.12076563184372       -0.10542119483185
C          153.49242135376670       -0.13337946249688       -0.11817833927125
C          154.72357100394396       -0.14140336874976       -0.12767503555107
C          156.06011992531614       -0.14843510648379       -0.13335724835009
C          157.29132475090881       -0.15259898102147       -0.13486699843840
C          158.63258075757722       -0.15185986655142       -0.13677254135915
C          159.85773670368761       -0.15097659210411       -0.13466742586347
C          169.51847555573673       -0.11699134247121       -0.11354614909765
C          170.74366208156468       -0.11718716646396       -0.11153224630306
C          172.08500338930125       -0.11449146139024       -0.11068743469834
C          173.31626474056844       -0.11292719269106       -0.11110781604617
C          174.65292969103621       -0.11055424475649       -0.11043429717452
C          175.88415644827390       -0.10791605505888       -0.10955379219438
C          177.22549955999560       -0.10715578957587       -0.10903746295690
C          178.45067319216167       -0.11031018511575       -0.10949050483486
C          188.11325142943826       -0.14629830740457       -0.13834430779868
C          189.33842194457398       -0.15384942521552       -0.14198178154565
C          190.67976417304121       -0.15768178939878       -0.14821072665783
C          191.91103430272830       -0.16012679135775       -0.15086813250646
C          193.24771022661091       -0.16102751793203       -0.15225111452942
C          194.47894609282667       -0.15979778080519       -0.15220038307063
C          195.82027873170281       -0.15531372173142       -0.15095095956238
C          197.04545078038115       -0.15140908318109       -0.14621202235767
C          206.70620488689482       -0.09175464160772       -0.10520102405696
C          207.93135776692247       -0.08974657066808       -0.10108087840530
C          209.27261397467780       -0.08683532320307       -0.09858857139251
C          210.50380605805535       -0.08293483521952       -0.09572354210926
C          211.84037658644630       -0.07834710382969       -0.09256566719009
C          213.07157358277706       -0.07577590825490       -0.08958370822946
C          214.41282152207762       -0.07245980034654       -0.08576119920371
C          215.63797073118380       -0.07149641251892       -0.08027130446980
C          225.29546182608254       -0.01113361735240       -0.00571513031726
C          226.52047448823586       -0.00270446140437        0.00821505133419
C          227.86159348886730        0.00785227756741        0.01962652730732
C          229.09267316120128        0.01537263554235        0.03221976954227
C          230.42917268537963        0.02294210587613        0.04048952656473
C          231.66032730477738        0.02825680931428        0.04653147501029
C          233.00153951217104        0.03429288780635        0.04959427900938
C          234.22664079781808        0.03630504022597        0.05276531750014
C          243.88542054488011        0.05699230907885        0.03560277458458
C          245.11031216938247        0.06018597501526        0.03745711643003
C          246.45216120041809        0.06409874750516        0.03184339500531
C          247.68302145152117        0.06177170503230        0.03004076026175
C          249.02027074030610        0.05563081977511        0.02675479038136
C          250.25097956774644        0.04652727548157        0.02568536019282
C          251.59303961281660        0.03624545156826        0.01953723320286
C          252.81765265616687        0.02091095853118        0.01339975470714
C          124.08795286202133       -0.02161574465487       -0.01122000605902
C          124.70867555506555        0.90607459547933       -0.87017363297213
C          124.05249295260478        1.83196038095311       -1.72173221436055
C          125.01191712230128        2.53035383983070       -2.40261690190797
C          126.28247575585962        2.04324063366689       -1.99174640535071
N          126.04851209249827        1.07096046672408       -1.05685926387193
C          127.54017013018884        2.47377328521730       -2.43262153082793
C          127.54902042885557        3.51672872547005       -3.48676446738787
C          126.96701344210506        3.27085746856793       -4.73256412368533
C          126.97729152187959        4.24065991490592       -5.71901072627015
C          127.56749553516848        5.48393475694681       -5.47335612773640
C          127.57777857113857        6.48529753217044       -6.48517276102358
N          127.58262316131955        7.29453690634051       -7.30326719370214
C          128.14829688860786        5.73626422320546       -4.22693980325044
C          128.13982441005936        4.75967479538705       -3.24738687964576
C          128.76769897697420        2.00276455474527       -1.96418767842737
C          130.05286180228256        2.42669594658908       -2.49077986218603
C          130.99215717665189        1.76239458652838       -1.78644704481025
N          128.94724477962072        1.08342338990120       -0.97590647011707
C          130.27915783270336        0.92831401381711       -0.83900905951765
C          130.93723697662477        0.09453306432941        0.08788288492656
C          130.31446614872513       -0.77153099579086        1.00774504311877
C          130.96740881590773       -1.58861829662238        1.96642220800653
C          130.00806312188092       -2.28841198479985        2.64587729605027
C          128.74123772497887       -1.92516883078806        2.11310307244762
N          128.97673388195435       -0.99736073434929        1.13411363863506
C          127.48511651798378       -2.40013896808986        2.50962085400857
C          127.47581042616791       -3.43563472747104        3.57103222518540
C          128.10751578265229       -4.66499380611636        3.36904309817289
C          128.09918797958210       -5.63251643635623        4.35774604752047
C          127.46064018327733       -5.38387808600392        5.57627762364011
C          127.45393209406082       -6.37564643441114        6.59752301149244
N          127.44923537573543       -7.17732699971260        7.42299323914733
C          126.82913466729624       -4.15406129160069        5.78443612313445
C          126.83619766955370       -3.19358778919353        4.78907620061344
C          126.25916367869246       -1.98006480029133        1.99034187464617
C          124.97864345938851       -2.54307236478910        2.37991192061122
C          124.03923152934456       -1.87879423465183        1.67563226294556
C          124.74793256221950       -0.91952682446041        0.85164931728193
N          126.07826046695078       -1.01132873900029        1.05120154488026
H          122.98306647623589        1.94623859464356       -1.79436828823315
H          124.85481289271944        3.32007496180820       -3.11892700057230
H          126.77433100213105        0.55425802795360       -0.57159100825914
H          126.52020294449508        2.30333429349483       -4.93200766937543
H          126.53004088438433        4.03977630060776       -6.68546942395825
H          128.60364676519558        6.70009068599955       -4.03181673802522
H          128.58083440258520        4.96297421638968       -2.27814746738603
H          130.19522807468971        3.12531122835079       -3.29915516137926
H          132.06492246569422        1.80827469735194       -1.88399856183893
H          132.03445098549346       -1.62576985721647        2.11491748967797
H          130.16255938472059       -2.98735319989593        3.45151210559011
H          128.25288282584708       -0.54286047961628        0.58754764432458
H          128.59243979722578       -4.86719155502469        2.42064094077507
H          128.58585870084315       -6.58633648377190        4.19101668023371
H          126.33601127727906       -3.95654835078720        6.72899560426183
H          126.35587183827346       -2.23659192243105        4.95847610657682
H          124.83988083669152       -3.34641904204479        3.08502864365257
H          122.96928009791797       -2.01102248189118        1.68807093229975
C          142.67452147845682        0.06015714025126        0.05777968207342
C          143.30025094762294        0.94763667515688       -0.83951812241232
C          142.65059347133916        1.88252778611496       -1.68604836592893
C          143.61209089675256        2.53417764756550       -2.40911659921446
C          144.87680139885629        2.00736355931278       -2.03060688477753
N          144.63824251855257        1.05997762574891       -1.07149854579516
C          146.13429324686743        2.38346607943744       -2.51918502108553
C          146.14606846876126        3.41084958620942       -3.58848391577007
C          145.51267861486289        3.17064969001811       -4.81008490819566
C          145.52254006738241        4.12736564672205       -5.80921031974016
C          146.16439661911511        5.35166506821516       -5.60081838613815
C          146.17235576876249        6.34035625570906       -6.62504794586922
N          146.17806231800787        7.13951500159339       -7.45296122042245
C          146.79776283363375        5.59795260756749       -4.37904550824349
C          146.78910890693697        4.63435565828582       -3.38669920834111
C          147.35835014676363        1.87328787550899       -2.08384407910990
C          148.64010741668764        2.24142258735884       -2.65831957628156
C          149.57713111809360        1.55343885923103       -1.97393039079741
N          147.53643871387430        0.96217682301096       -1.08763609332912
C          148.86561832105582        0.76010538147359       -0.99109459470771
C          149.52309210456261       -0.08303920539236       -0.07216173051572
C          148.89970031426984       -0.91425514207623        0.87904536161844
C          149.55351657646011       -1.74386580166371        1.82627354159660
C          148.59202651831512       -2.39595291527700        2.54891384973770
C          147.32247335365025       -1.98901187699623        2.05596148131729
N          147.55940125494445       -1.08564923817923        1.05474805614312
C          146.06338305961731       -2.40450112033462        2.50659229738253
C          146.05016986631534       -3.42181243712173        3.58550709938893
C          146.61838383296609       -4.68129389911915        3.38092464070786
C          146.60340869801229       -5.63265519384019        4.38514615288678
C          146.02239350881510       -5.33722922543052        5.62186399596602
C          146.00793490411684       -6.31277309350891        6.65856298633622
N          145.99675464231916       -7.10128423088225        7.49657404045298
C          145.45548644122132       -4.07681401397277        5.83288054031898
C          145.46849339883804       -3.13259857323208        4.82216136560036
C          144.83733045741283       -1.94185635918746        2.02572837356568
C          143.55028450406436       -2.44440549605903        2.47229494030118
C          142.61327778866308       -1.75619860382441        1.78811943362988
C          143.32949356254599       -0.84259507933224        0.91989469289649
N          144.66116326311695       -0.98365939360748        1.07457506864965
H          141.58423839667449        2.03503880051151       -1.72628551969178
H          143.46031539111658        3.31747232997726       -3.13356704018863
H          145.36021565943557        0.52483312867356       -0.60069115038480
H          145.02502403661322        2.21749204585949       -4.98084054699206
H          145.03438228659630        3.93104396994836       -6.75661436329722
H          147.29349097860148        6.54713732375316       -4.21277893570855
H          147.27075015752939        4.83354388934251       -2.43612404352271
H          148.78120750078159        2.92223591419708       -3.48196179765113
H          150.64705779949696        1.55796594031350       -2.10687109521862
H          150.62286244494175       -1.82179070241925        1.93778154103399
H          148.74722258924197       -3.09003083045474        3.35861179322776
H          146.83504099518987       -0.60945765517428        0.52765149621448
H          147.05791498939186       -4.91941624425346        2.41884567456612
H          147.03992470993532       -6.61010056016606        4.21642845695755
H          145.00736949870321       -3.84303974107647        6.79147420570498
H          145.03820360877592       -2.15235049469873        4.99307591357921
H          143.40508724548954       -3.22772676391869        3.19832592942690
H          141.54005942396216       -1.84448393405405        1.84134746521264
C          161.26122956897967       -0.14459785568853       -0.13190711342748
C          161.88437014871937        0.75839172768534       -1.01543523196730
C          161.23082053309520        1.67815589564652       -1.87544441643468
C          162.19192950568365        2.35735205779586       -2.57320999504275
C          163.46068637529132        1.86274995291808       -2.16572185630485
N          163.22411109220539        0.90598255554948       -1.21542067000541
C          164.71919308373720        2.27307214891527       -2.62299712966482
C          164.73005733188700        3.30787286199774       -3.68517854808759
C          164.13183742888810        3.06164707109310       -4.92315365312190
C          164.14090521327930        4.02644705046426       -5.91452869703139
C          164.74640362757083        5.26481287974526       -5.68180739543596
C          164.75316104692700        6.26192051343845       -6.69786222556357
N          164.75813442686834        7.06772185833926       -7.51930790781456
C          165.34470850688916        5.51699426713479       -4.44366774556333
C          165.33726221721116        4.54541416202486       -3.45916585718454
C          165.94569333425952        1.79074780395989       -2.16319911702902
C          167.22967903121628        2.18999227744424       -2.71138724460153
C          168.16861808884528        1.51992633419908       -2.01200422382143
N          166.12507725895614        0.88081071466266       -1.16626374240852
C          167.45647313351864        0.70814229768839       -1.04484648240349
C          168.11488911741645       -0.12057180277459       -0.11359908540420
C          167.49131558967770       -0.95974682902320        0.83057263692635
C          168.14410836151882       -1.76688273008761        1.79764483062182
C          167.18289162611606       -2.43419015143453        2.50667297964776
C          165.91486168618277       -2.06072051617975        1.98416637679593
N          166.15186640167119       -1.15997712231289        0.98060852666467
C          164.65654319566687       -2.50401683953579        2.40991551540849
C          164.64367557473741       -3.51000464933110        3.49942117312714
C          165.24888553819841       -4.75651274462087        3.32367266763237
C          165.23453838771974       -5.69615243360899        4.33892083735463
C          164.61669878981593       -5.40166144222772        5.55789288387224
C          164.60360831917276       -6.36459950087697        6.60633853993048
N          164.59174267028797       -7.14366278547552        7.45312026022232
C          164.01209487908207       -4.15429752510651        5.73988508552833
C          164.02487456181950       -3.22194031709861        4.71824816401128
C          163.43043877216260       -2.07860494814913        1.89591085693721
C          162.14731328239239       -2.61417376278672        2.31464982472184
C          161.20846808829626       -1.95670858342622        1.60330028604678
C          161.91991812888006       -1.02801272044076        0.74728651702439
N          163.25089910374680       -1.13156229573714        0.93428378685736
H          160.16208337458684        1.80263480630214       -1.94109779561536
H          162.03692911114956        3.13875088764064       -3.29901828724114
H          163.94830935429457        0.38912651962559       -0.72788582775522
H          163.67270846029825        2.09791135927003       -5.11262646864984
H          163.68022375023190        3.82561951073238       -6.87466133274799
H          165.81223763342814        6.47695578348455       -4.25859707233928
H          165.79159075894319        4.74872227680582       -2.49609358753241
H          167.37108504957686        2.87701527990637       -3.52981283912700
H          169.24051555602153        1.54876672593184       -2.12443721561323
H          169.21242451916987       -1.81951573640291        1.93158906471090
H          167.33716588413304       -3.11754560569331        3.32560724850932
H          165.42803344976531       -0.70455005768875        0.43476368837439
H          165.71723297612235       -4.99434580939965        2.37521154102471
H          165.70025482055547       -6.66368588921333        4.19261179457198
H          163.53510354463751       -3.92123421932601        6.68462881382091
H          163.56510880284947       -2.25146162924823        4.86675627341989
H          162.00640212528916       -3.39704362170614        3.04201251593024
H          160.13714561623965       -2.07479855878057        1.63090373007081
C          179.85425716394718       -0.10959776948461       -0.10989249335726
C          180.47962388537704        0.78817792305895       -0.99723413268718
C          179.82884231165247        1.71201521996694       -1.85497198599876
C          180.79162702414399        2.38335838267866       -2.55803384604986
C          182.05861520913129        1.87936914166797       -2.15656337429764
N          181.81947343421058        0.92560912824022       -1.20383846537180
C          183.31777608817009        2.27856048748574       -2.62175088645213
C          183.33174135417380        3.31212630405537       -3.68511980399057
C          182.72509793906482        3.07001985772904       -4.91977033344786
C          182.73900891438893        4.03323634465139       -5.91264675355733
C          183.35795012940281        5.26584665086031       -5.68477453709955
C          183.37072537072740        6.26081399837920       -6.70286924058999
N          183.37978747008285        7.06526412617765       -7.52563735015177
C          183.96432822075352        5.51408985277290       -4.44977326535980
C          183.95193039463948        4.54409183474818       -3.46378338647595
C          184.54311373768945        1.78616629194672       -2.16942587154423
C          185.82674884360330        2.17347194666618       -2.72702599568008
C          186.76466152503630        1.49655199448426       -2.03291782410145
N          184.72147242388615        0.87635579974048       -1.17224690083328
C          186.05219047196516        0.69268204653064       -1.05946354914182
C          186.70971257724531       -0.13943150495930       -0.13065842381757
C          186.08485022923074       -0.97133206460794        0.81901398771647
C          186.73647856033114       -1.78180353051174        1.78402306702928
C          185.77380771540567       -2.43937581812359        2.50012120403809
C          184.50591716402255       -2.05633779222858        1.98418286746840
N          184.74463664519430       -1.15980497658302        0.97732522299960
C          183.24650614565152       -2.48834499905958        2.41832014801153