432
 energy: -753.696290848217 gnorm: 1.041568346163 xtb: 6.5.1 (b24c23e)
C           86.21803700000000        0.01623300000000        0.05976100000000
C           86.94290399999998        1.20956100000000       -0.63461700000000
C           86.32809899999999        2.23491600000000       -1.31634200000000
C           87.34911300000000        3.12686500000000       -1.73472500000000
C           88.55351399999999        2.61827000000000       -1.28862000000000
N           88.29731099999999        1.42550700000000       -0.65961000000000
C           89.98012199999999        3.29268300000000       -1.44298000000000
C           90.02589399999999        4.69048600000000       -1.93347900000000
C           90.29155699999998        4.94994100000000       -3.28476200000000
C           90.32733800000000        6.26249600000000       -3.75824300000000
C           90.09353800000000        7.31377500000000       -2.87421400000000
O           90.12118900000000        8.61110800000000       -3.30169100000000
C           89.82595400000000        7.07361200000000       -1.53063000000000
C           89.79202999999998        5.75951500000000       -1.05939600000000
C           91.10993000000001        2.61185600000000       -1.10962700000000
C           92.41894200000000        3.22907100000000       -1.17381700000000
C           93.32109699999999        2.34231600000000       -0.77054600000000
N           91.30323199999999        1.33104500000000       -0.66259700000000
C           92.63757900000000        1.10681100000000       -0.44151800000000
C           93.30556199999999        0.00576900000000       -0.00482300000000
C           92.52547299999999       -1.34011200000000        0.31130400000000
C           93.06251100000000       -2.61276800000000        0.30649000000000
C           92.03771999999998       -3.51133100000000        0.69362000000000
C           90.90005699999999       -2.76434200000000        0.91282500000000
N           91.19346599999999       -1.45082000000000        0.62987600000000
C           89.49127700000000       -3.32067000000000        1.38502600000000
C           89.45758700000000       -4.63408800000000        2.06707900000000
C           89.83629900000000       -4.74521400000000        3.41051300000000
C           89.81660100000001       -5.98826100000000        4.04687600000000
C           89.41971399999998       -7.11635600000000        3.33683100000000
O           89.41048300000000       -8.31629300000000        3.98997000000000
C           89.04253899999999       -7.02544100000000        1.99875700000000
C           89.06431300000000       -5.78183600000000        1.36525800000000
C           88.36761099999998       -2.59156300000000        1.15793700000000
C           87.04738600000000       -3.03249100000000        1.57300500000000
C           86.16256899999999       -2.11424300000000        1.19636000000000
C           86.88300900000000       -1.05143200000000        0.53919000000000
N           88.20292600000001       -1.37850000000000        0.54918700000000
H           85.14139500000000        0.07094800000000        0.16782700000000
H           85.26640299999998        2.33812200000000       -1.47930900000000
H           87.21702500000001        4.04954900000000       -2.27945100000000
H           89.00133500000000        0.80371700000000       -0.26914600000000
H           90.47411200000001        4.11282600000000       -3.95558900000000
H           90.53824299999998        6.43400600000000       -4.80723400000000
H           90.33866700000000        8.59711500000000       -4.24711500000000
H           89.64603400000000        7.89760300000000       -0.84893100000000
H           89.58659399999999        5.55262900000000       -0.01153900000000
H           92.63386099999998        4.23793500000000       -1.47794000000000
H           94.37725399999999        2.53095900000000       -0.70996300000000
H           94.08236900000000       -2.86960400000000        0.06386700000000
H           92.12143100000000       -4.58191000000000        0.80447700000000
H           90.51283599999999       -0.69567100000000        0.60773000000000
H           90.14360199999999       -3.85277000000000        3.95097800000000
H           90.10922400000000       -6.06745300000000        5.08811500000000
H           89.10122699999999       -8.98452800000000        3.35830800000000
H           88.73055800000000       -7.89507000000000        1.43250000000000
H           88.77214600000001       -5.68590900000000        0.32136100000000
H           86.81931800000000       -3.94158300000000        2.09958800000000
H           85.10063800000000       -2.14662200000000        1.35926200000000
C          178.45479000000000        0.05442200000000        0.03892100000000
C          177.72992300000001       -1.17519800000000        0.66679600000000
C          178.34472800000000       -2.30329400000000        1.16025400000000
C          177.32371399999997       -3.13774200000000        1.68400400000000
C          176.11931300000001       -2.48739600000000        1.49764900000000
N          176.37551600000000       -1.31305600000000        0.83488100000000
C          174.69270499999999       -2.98210500000000        1.98130400000000
C          174.64693299999996       -4.15089900000000        2.89145100000000
C          174.38126999999997       -5.42768900000000        2.37852900000000
C          174.34548899999999       -6.53604600000000        3.22619100000000
C          174.57928899999999       -6.36139000000000        4.58861200000000
O          174.55163800000000       -7.42282200000000        5.44836200000000
C          174.84687299999999       -5.10151200000000        5.11359100000000
C          174.88079700000000       -3.99421100000000        4.26341800000000
C          173.56289699999999       -2.33339500000000        1.58910100000000
C          172.25388499999997       -2.72132500000000        2.07344000000000
C          171.35172999999998       -1.90239600000000        1.54588300000000
N          173.36959500000000       -1.26445800000000        0.75382400000000
C          172.03524800000000       -0.95721000000000        0.68486200000000
C          171.36726500000000        0.00576900000000       -0.00482300000000
C          172.14735500000000        0.99982500000000       -0.96564800000000
C          171.61031600000001        1.68435400000000       -2.03854000000000
C          172.63510700000000        2.49609800000000       -2.58476000000000
C          173.77277000000001        2.27628400000000       -1.83795000000000
N          173.47936099999998        1.32763900000000       -0.88638700000000
C          175.18154999999999        2.97440200000000       -2.05032800000000
C          175.21523999999999        4.25863300000000       -2.78586600000000
C          174.83652799999999        5.44856800000000       -2.15244900000000
C          174.85622599999999        6.65629900000000       -2.85352600000000
C          175.25311300000001        6.66952300000000       -4.18641300000000
O          175.26234399999998        7.86803700000000       -4.84216000000000
C          175.63028799999998        5.49503100000000       -4.83392800000000
C          175.60851400000001        4.28940600000000       -4.13083100000000
C          176.30521599999997        2.38893700000000       -1.56002700000000
C          177.62544199999999        2.97657000000000       -1.70626600000000
C          178.51025799999996        2.16299300000000       -1.13781800000000
C          177.78981800000000        1.03528100000000       -0.59957300000000
N          176.46990099999999        1.22065100000000       -0.86922400000000
H          179.53143200000000        0.11570000000000        0.14340500000000
H          179.40642399999999       -2.49618700000000        1.15887500000000
H          177.45580200000001       -4.09507300000000        2.16524100000000
H          175.67149299999997       -0.64825700000000        0.52322700000000
H          174.19871499999996       -5.53892000000000        1.31157200000000
H          174.13458399999999       -7.51103000000000        2.80286600000000
H          174.33416000000000       -8.21034000000000        4.92506700000000
H          175.02679300000000       -4.97403800000000        6.17539400000000
H          175.08623399999999       -3.00104000000000        4.65637900000000
H          172.03896599999996       -3.52294100000000        2.75733300000000
H          170.29557299999999       -1.95351300000000        1.73730800000000
H          170.59045799999998        1.61927300000000       -2.38580800000000
H          172.55139600000001        3.16857000000000       -3.42512300000000
H          174.15999199999999        0.90043600000000       -0.26329900000000
H          174.52922500000000        5.42023000000000       -1.10949400000000
H          174.56360299999997        7.57481500000000       -2.35675700000000
H          175.57159999999999        7.69837000000000       -5.74590100000000
H          175.94226899999998        5.48933400000000       -5.87165100000000
H          175.90068099999999        3.35960200000000       -4.61496500000000
H          177.85350900000000        3.91128900000000       -2.18589000000000
H          179.57218900000001        2.31751000000000       -1.07690900000000
C           96.98625799999999        0.01850000000000       -0.00229800000000
C           95.73398700000000       -0.00068100000000       -0.00664700000000
C           98.29992600000000        0.01773500000000       -0.00036600000000
C           99.80306000000000       -0.00068100000000       -0.00664700000000
C          110.83062799999999        0.01850000000000       -0.00229800000000
C          109.57835699999998       -0.00068100000000       -0.00664700000000
C          112.14429599999998        0.01773500000000       -0.00036600000000
C          113.64743000000000       -0.00068100000000       -0.00664700000000
C          124.67499799999999        0.01850000000000       -0.00229800000000
C          123.42272699999998       -0.00068100000000       -0.00664700000000
C          125.98866599999998        0.01773500000000       -0.00036600000000
C          127.49180000000000       -0.00068100000000       -0.00664700000000
C          138.51936799999999        0.01850000000000       -0.00229800000000
C          137.26709700000001       -0.00068100000000       -0.00664700000000
C          139.83303599999999        0.01773500000000       -0.00036600000000
C          141.33616999999998       -0.00068100000000       -0.00664700000000
C          152.36373800000001        0.01850000000000       -0.00229800000000
C          151.11146700000000       -0.00068100000000       -0.00664700000000
C          153.67740599999996        0.01773500000000       -0.00036600000000
C          155.18053899999998       -0.00068100000000       -0.00664700000000
C          166.20810799999998        0.01850000000000       -0.00229800000000
C          164.95583699999997       -0.00068100000000       -0.00664700000000
C          167.52177599999999        0.01773500000000       -0.00036600000000
C          169.02490900000001       -0.00068100000000       -0.00664700000000
C          101.08029500000001       -0.00229100000000        0.00251300000000
C          101.88443700000001       -1.03386300000000       -0.90280400000000
C          101.37366600000000       -1.76507000000000       -1.96008300000000
C          102.40950500000000       -2.58236400000000       -2.45687600000000
C          103.52944800000000       -2.32842400000000       -1.68509900000000
N          103.21841800000000       -1.33150100000000       -0.79387600000000
C          104.93276600000000       -3.06281300000000       -1.81964100000000
C          104.93530300000000       -4.40689500000000       -2.43781000000000
C          105.40792100000000       -4.57971100000000       -3.74694200000000
C          105.41285200000000       -5.84373500000000       -4.33688800000000
C          104.93323200000000       -6.93213500000000       -3.61199100000000
O          104.91681599999998       -8.18495800000000       -4.15794700000000
C          104.44218900000000       -6.77911400000000       -2.32118400000000
C          104.44315899999999       -5.51371200000000       -1.73427200000000
C          106.06255899999999       -2.46228800000000       -1.36905700000000
C          107.35613200000000       -3.11005200000000       -1.43638600000000
C          108.26856800000000       -2.27316500000000       -0.94499400000000
N          106.26454299999999       -1.24238900000000       -0.79656900000000
C          107.59512299999999       -1.05849800000000       -0.53630900000000
C          108.25104200000000       -0.00229100000000        0.00251300000000
C          107.45103100000000        1.30300700000000        0.43330800000000
C          107.99600199999999        2.55478600000000        0.63600100000000
C          106.97478599999999        3.38716300000000        1.13498400000000
C          105.81343099999999        2.63877600000000        1.17156400000000
N          106.11091300000000        1.37661600000000        0.71860100000000
C          104.39763600000001        3.13738300000000        1.70697900000000
C          104.36791100000001        4.35445800000000        2.55183300000000
C          104.51623799999999        5.61467400000000        1.96057400000000
C          104.47646599999999        6.77327900000000        2.74156900000000
C          104.25087900000000        6.66780800000000        4.11255400000000
O          104.15638300000001        7.81547100000000        4.84497200000000
C          104.10799000000000        5.42082400000000        4.72151400000000
C          104.17920599999998        4.26436500000000        3.93859300000000
C          103.26039299999999        2.44901900000000        1.39480100000000
C          101.96092200000000        2.86657100000000        1.87889300000000
C          101.05471900000001        1.99527900000000        1.43298900000000
C          101.73257099999998        1.01376300000000        0.61825300000000
N          103.06180800000000        1.34512500000000        0.63042500000000
H          100.35936299999999       -1.72276800000000       -2.32255000000000
H          102.35082000000000       -3.29531900000000       -3.27199600000000
H          103.88285900000000       -0.87007400000000       -0.17649100000000
H          105.77751300000000       -3.71340300000000       -4.29618800000000
H          105.80576299999998       -5.94795900000000       -5.33560900000000
H          105.21799000000000       -8.10018500000000       -5.07654500000000
H          104.05499000000000       -7.63211500000000       -1.78173100000000
H          104.05964899999999       -5.37027900000000       -0.72616200000000
H          107.56459200000000       -4.09973200000000       -1.81031300000000
H          109.31780499999999       -2.48852400000000       -0.86556800000000
H          109.02974799999998        2.82884600000000        0.49192000000000
H          107.08070399999998        4.41578300000000        1.45690200000000
H          105.43833600000001        0.62690600000000        0.60652000000000
H          104.66438599999998        5.67909900000000        0.88458900000000
H          104.60182200000000        7.74789100000000        2.28736000000000
H          103.54412899999998        7.61880600000000        5.58158400000000
H          103.94232599999998        5.32819100000000        5.78674800000000
H          104.06419400000000        3.28225500000000        4.38708400000000
H          101.74478899999998        3.72509100000000        2.48997200000000
H           99.99873100000001        2.05278100000000        1.63143500000000
C          114.92466499999999       -0.00229100000000        0.00251300000000
C          115.72880600000001       -1.03386300000000       -0.90280400000000
C          115.21803600000000       -1.76507000000000       -1.96008300000000
C          116.25387499999999       -2.58236400000000       -2.45687600000000
C          117.37381800000000       -2.32842400000000       -1.68509900000000
N          117.06278799999998       -1.33150100000000       -0.79387600000000
C          118.77713600000000       -3.06281300000000       -1.81964100000000
C          118.77967300000000       -4.40689500000000       -2.43781000000000
C          119.25229100000000       -4.57971100000000       -3.74694200000000
C          119.25722200000000       -5.84373500000000       -4.33688800000000
C          118.77760199999999       -6.93213500000000       -3.61199100000000
O          118.76118599999998       -8.18495800000000       -4.15794700000000
C          118.28655900000000       -6.77911400000000       -2.32118400000000
C          118.28752900000001       -5.51371200000000       -1.73427200000000
C          119.90692900000001       -2.46228800000000       -1.36905700000000
C          121.20050099999999       -3.11005200000000       -1.43638600000000
C          122.11293800000000       -2.27316500000000       -0.94499400000000
N          120.10891199999999       -1.24238900000000       -0.79656900000000
C          121.43949299999998       -1.05849800000000       -0.53630900000000
C          122.09541199999998       -0.00229100000000        0.00251300000000
C          121.29540100000000        1.30300700000000        0.43330800000000
C          121.84037199999999        2.55478600000000        0.63600100000000
C          120.81915599999999        3.38716300000000        1.13498400000000
C          119.65780100000001        2.63877600000000        1.17156400000000
N          119.95528299999999        1.37661600000000        0.71860100000000
C          118.24200600000000        3.13738300000000        1.70697900000000
C          118.21228100000000        4.35445800000000        2.55183300000000
C          118.36060799999998        5.61467400000000        1.96057400000000
C          118.32083599999999        6.77327900000000        2.74156900000000
C          118.09524899999998        6.66780800000000        4.11255400000000
O          118.00075300000000        7.81547100000000        4.84497200000000
C          117.95236000000000        5.42082400000000        4.72151400000000
C          118.02357600000001        4.26436500000000        3.93859300000000
C          117.10476300000001        2.44901900000000        1.39480100000000
C          115.80529199999999        2.86657100000000        1.87889300000000
C          114.89908899999999        1.99527900000000        1.43298900000000
C          115.57694099999999        1.01376300000000        0.61825300000000
N          116.90617800000000        1.34512500000000        0.63042500000000
H          114.20373300000000       -1.72276800000000       -2.32255000000000
H          116.19519000000000       -3.29531900000000       -3.27199600000000
H          117.72722899999998       -0.87007400000000       -0.17649100000000
H          119.62188300000000       -3.71340300000000       -4.29618800000000
H          119.65013300000000       -5.94795900000000       -5.33560900000000
H          119.06236000000000       -8.10018500000000       -5.07654500000000
H          117.89936000000000       -7.63211500000000       -1.78173100000000
H          117.90401900000001       -5.37027900000000       -0.72616200000000
H          121.40896200000000       -4.09973200000000       -1.81031300000000
H          123.16217499999999       -2.48852400000000       -0.86556800000000
H          122.87411799999998        2.82884600000000        0.49192000000000
H          120.92507399999998        4.41578300000000        1.45690200000000
H          119.28270600000000        0.62690600000000        0.60652000000000
H          118.50875599999999        5.67909900000000        0.88458900000000
H          118.44619200000000        7.74789100000000        2.28736000000000
H          117.38849899999998        7.61880600000000        5.58158400000000
H          117.78669600000001        5.32819100000000        5.78674800000000
H          117.90856400000000        3.28225500000000        4.38708400000000
H          115.58915900000000        3.72509100000000        2.48997200000000
H          113.84309999999999        2.05278100000000        1.63143500000000
C          128.76903500000000       -0.00229100000000        0.00251300000000
C          129.57317599999999       -1.03386300000000       -0.90280400000000
C          129.06240600000001       -1.76507000000000       -1.96008300000000
C          130.09824499999999       -2.58236400000000       -2.45687600000000
C          131.21818800000000       -2.32842400000000       -1.68509900000000
N          130.90715800000001       -1.33150100000000       -0.79387600000000
C          132.62150600000001       -3.06281300000000       -1.81964100000000
C          132.62404300000000       -4.40689500000000       -2.43781000000000
C          133.09666100000001       -4.57971100000000       -3.74694200000000
C          133.10159200000001       -5.84373500000000       -4.33688800000000
C          132.62197200000000       -6.93213500000000       -3.61199100000000
O          132.60555600000001       -8.18495800000000       -4.15794700000000
C          132.13092900000001       -6.77911400000000       -2.32118400000000
C          132.13189900000000       -5.51371200000000       -1.73427200000000
C          133.75129899999999       -2.46228800000000       -1.36905700000000
C          135.04487100000000       -3.11005200000000       -1.43638600000000
C          135.95730799999998       -2.27316500000000       -0.94499400000000
N          133.95328200000000       -1.24238900000000       -0.79656900000000
C          135.28386300000000       -1.05849800000000       -0.53630900000000
C          135.93978100000001       -0.00229100000000        0.00251300000000
C          135.13977100000000        1.30300700000000        0.43330800000000
C          135.68474200000000        2.55478600000000        0.63600100000000
C          134.66352599999999        3.38716300000000        1.13498400000000
C          133.50217100000000        2.63877600000000        1.17156400000000
N          133.79965200000001        1.37661600000000        0.71860100000000
C          132.08637600000000        3.13738300000000        1.70697900000000
C          132.05665099999999        4.35445800000000        2.55183300000000
C          132.20497800000001        5.61467400000000        1.96057400000000
C          132.16520600000001        6.77327900000000        2.74156900000000
C          131.93961899999999        6.66780800000000        4.11255400000000
O          131.84512300000000        7.81547100000000        4.84497200000000
C          131.79673000000000        5.42082400000000        4.72151400000000
C          131.86794599999999        4.26436500000000        3.93859300000000
C          130.94913299999999        2.44901900000000        1.39480100000000
C          129.64966200000001        2.86657100000000        1.87889300000000
C          128.74345900000000        1.99527900000000        1.43298900000000
C          129.42131100000000        1.01376300000000        0.61825300000000
N          130.75054800000001        1.34512500000000        0.63042500000000
H          128.04810300000000       -1.72276800000000       -2.32255000000000
H          130.03955999999999       -3.29531900000000       -3.27199600000000
H          131.57159899999999       -0.87007400000000       -0.17649100000000
H          133.46625200000000       -3.71340300000000       -4.29618800000000
H          133.49450300000001       -5.94795900000000       -5.33560900000000
H          132.90673000000001       -8.10018500000000       -5.07654500000000
H          131.74373000000000       -7.63211500000000       -1.78173100000000
H          131.74838900000000       -5.37027900000000       -0.72616200000000
H          135.25333200000000       -4.09973200000000       -1.81031300000000
H          137.00654499999999       -2.48852400000000       -0.86556800000000
H          136.71848800000001        2.82884600000000        0.49192000000000
H          134.76944399999999        4.41578300000000        1.45690200000000
H          133.12707599999999        0.62690600000000        0.60652000000000
H          132.35312600000000        5.67909900000000        0.88458900000000
H          132.29056199999999        7.74789100000000        2.28736000000000
H          131.23286899999999        7.61880600000000        5.58158400000000
H          131.63106600000000        5.32819100000000        5.78674800000000
H          131.75293400000001        3.28225500000000        4.38708400000000
H          129.43352899999999        3.72509100000000        2.48997200000000
H          127.68746999999999        2.05278100000000        1.63143500000000
C          142.61340500000000       -0.00229100000000        0.00251300000000
C          143.41754599999999       -1.03386300000000       -0.90280400000000
C          142.90677600000001       -1.76507000000000       -1.96008300000000
C          143.94261499999999       -2.58236400000000       -2.45687600000000
C          145.06255800000000       -2.32842400000000       -1.68509900000000
N          144.75152800000001       -1.33150100000000       -0.79387600000000
C          146.46587600000001       -3.06281300000000       -1.81964100000000
C          146.46841299999997       -4.40689500000000       -2.43781000000000
C          146.94103000000001       -4.57971100000000       -3.74694200000000
C          146.94596199999998       -5.84373500000000       -4.33688800000000
C          146.46634200000000       -6.93213500000000       -3.61199100000000
O          146.44992599999998       -8.18495800000000       -4.15794700000000
C          145.97529900000001       -6.77911400000000       -2.32118400000000
C          145.97626900000000       -5.51371200000000       -1.73427200000000
C          147.59566899999999       -2.46228800000000       -1.36905700000000
C          148.88924100000000       -3.11005200000000       -1.43638600000000
C          149.80167800000001       -2.27316500000000       -0.94499400000000
N          147.79765200000000       -1.24238900000000       -0.79656900000000
C          149.12823299999999       -1.05849800000000       -0.53630900000000
C          149.78415100000001       -0.00229100000000        0.00251300000000
C          148.98414099999999        1.30300700000000        0.43330800000000
C          149.52911099999997        2.55478600000000        0.63600100000000
C          148.50789599999999        3.38716300000000        1.13498400000000
C          147.34654100000000        2.63877600000000        1.17156400000000
N          147.64402199999998        1.37661600000000        0.71860100000000
C          145.93074600000000        3.13738300000000        1.70697900000000
C          145.90102099999999        4.35445800000000        2.55183300000000
C          146.04934800000001        5.61467400000000        1.96057400000000
C          146.00957599999998        6.77327900000000        2.74156900000000
C          145.78398899999999        6.66780800000000        4.11255400000000
O          145.68949300000000        7.81547100000000        4.84497200000000
C          145.64109999999997        5.42082400000000        4.72151400000000
C          145.71231599999999        4.26436500000000        3.93859300000000
C          144.79350299999999        2.44901900000000        1.39480100000000
C          143.49403200000000        2.86657100000000        1.87889300000000
C          142.58782900000000        1.99527900000000        1.43298900000000
C          143.26568099999997        1.01376300000000        0.61825300000000
N          144.59491800000001        1.34512500000000        0.63042500000000
H          141.89247299999997       -1.72276800000000       -2.32255000000000
H          143.88392999999999       -3.29531900000000       -3.27199600000000
H          145.41596899999999       -0.87007400000000       -0.17649100000000
H          147.31062200000000       -3.71340300000000       -4.29618800000000
H          147.33887199999998       -5.94795900000000       -5.33560900000000
H          146.75110000000001       -8.10018500000000       -5.07654500000000
H          145.58810000000000       -7.63211500000000       -1.78173100000000
H          145.59275899999997       -5.37027900000000       -0.72616200000000
H          149.09770200000000       -4.09973200000000       -1.81031300000000
H          150.85091499999999       -2.48852400000000       -0.86556800000000
H          150.56285799999998        2.82884600000000        0.49192000000000
H          148.61381399999996        4.41578300000000        1.45690200000000
H          146.97144499999999        0.62690600000000        0.60652000000000
H          146.19749600000000        5.67909900000000        0.88458900000000
H          146.13493199999999        7.74789100000000        2.28736000000000
H          145.07723899999996        7.61880600000000        5.58158400000000
H          145.47543599999997        5.32819100000000        5.78674800000000
H          145.59730400000001        3.28225500000000        4.38708400000000
H          143.27789899999996        3.72509100000000        2.48997200000000
H          141.53183999999999        2.05278100000000        1.63143500000000
C          156.45777500000000       -0.00229100000000        0.00251300000000
C          157.26191600000001       -1.03386300000000       -0.90280400000000
C          156.75114600000001       -1.76507000000000       -1.96008300000000
C          157.78698499999999       -2.58236400000000       -2.45687600000000
C          158.90692799999999       -2.32842400000000       -1.68509900000000
N          158.59589799999998       -1.33150100000000       -0.79387600000000
C          160.31024600000001       -3.06281300000000       -1.81964100000000
C          160.31278300000000       -4.40689500000000       -2.43781000000000
C          160.78540000000001       -4.57971100000000       -3.74694200000000