262
 energy: -449.128689047719 gnorm: 8.925383765844 xtb: 6.5.1 (b24c23e)
Fe          40.10622700000000       -0.03631400000000        0.03441300000000
C           36.76463300000000        0.10697400000000        0.02491100000000
C           37.42690199999999        1.14604800000000       -0.49187900000000
C           36.77635400000000        2.29390400000000       -1.11206400000000
C           37.71656800000000        3.14238900000000       -1.48450800000000
C           39.02149099999999        2.58152500000000       -1.10764100000000
N           38.84433800000000        1.30802000000000       -0.48587900000000
C           40.21361300000000        3.18363900000000       -1.30027900000000
C           40.26333700000000        4.52917200000000       -1.91700000000000
C           40.82027700000000        4.69715100000000       -3.19368200000000
C           40.88353500000000        5.96815600000000       -3.77233900000000
C           40.39452800000000        7.08469400000000       -3.07940900000000
N           40.45943699999999        8.38451100000000       -3.67191800000000
C           39.84347800000000        6.91878900000000       -1.80085500000000
C           39.78056300000000        5.64843800000000       -1.22084000000000
C           41.50480100000000        2.55851100000000       -0.91021100000000
C           42.78825700000000        3.27115200000000       -0.90404100000000
C           43.72277100000000        2.41578200000000       -0.54215400000000
N           41.64746399999999        1.31662100000000       -0.56129300000000
C           43.04265600000000        1.14739000000000       -0.31062500000000
C           43.63685400000000       -0.01074500000000        0.01978200000000
C           42.87327100000000       -1.25675600000000        0.25258600000000
C           43.40379200000000       -2.47294100000000        0.23273500000000
C           42.36089599999999       -3.40454100000000        0.61647900000000
C           41.26326300000000       -2.69446200000000        0.85024800000000
N           41.49710900000000       -1.30262000000000        0.62982200000000
C           39.98464900000000       -3.26548600000000        1.34575800000000
C           40.00746899999999       -4.60347200000000        1.98566800000000
C           40.74642100000000       -4.80743800000000        3.16119800000000
C           40.78739700000000       -6.07109200000000        3.75765900000000
C           40.09521400000000       -7.14616200000000        3.18271800000000
N           40.13761200000000       -8.43851800000000        3.79332600000000
C           39.36375499999999       -6.94660200000000        2.00351200000000
C           39.32270200000000       -5.68365000000000        1.40570000000000
C           38.82259199999999       -2.59437600000000        1.22966900000000
C           37.51526000000000       -3.03701000000000        1.71161400000000
C           36.65359800000000       -2.11042600000000        1.33890700000000
C           37.40205600000000       -1.07159600000000        0.63326200000000
N           38.66691600000000       -1.34305600000000        0.56347700000000
H           35.68127000000000        0.12493700000000        0.00145200000000
H           35.71304200000000        2.43744600000000       -1.25531300000000
H           37.52876800000000        4.08425800000000       -1.98310200000000
H           41.20333800000000        3.84353200000000       -3.73947500000000
H           41.31388300000000        6.08307900000000       -4.75919900000000
H           40.86876700000000        8.51845700000000       -4.62343000000000
H           40.09844600000000        9.22241400000000       -3.16351000000000
H           39.46528400000000        7.77322400000000       -1.25385700000000
H           39.35788600000000        5.53547500000000       -0.22997200000000
H           42.95917600000000        4.31155100000000       -1.14749000000000
H           44.77654499999999        2.64103000000000       -0.44601400000000
H           44.42947399999999       -2.72818900000000        0.00232700000000
H           42.46964299999999       -4.47651700000000        0.71864600000000
H           41.28740300000000       -3.98667600000000        3.61618800000000
H           41.35877700000000       -6.21264300000000        4.66640000000000
H           40.68060200000000       -8.59742700000000        4.67126300000000
H           39.62611200000000       -9.24585100000000        3.37207700000000
H           38.82869000000000       -7.76959300000000        1.54667100000000
H           38.76126500000000       -5.54708100000000        0.48953500000000
H           37.27342399999999       -3.93506100000000        2.26457800000000
H           35.58904500000000       -2.12667000000000        1.53229800000000
Fe          95.28235999999998        0.01557700000000        0.00655400000000
C           98.62395399999998       -0.07151300000000        0.12073400000000
C           97.96168499999999       -1.07637000000000        0.70125800000000
C           98.61223400000000       -2.22751200000000        1.31532200000000
C           97.67201900000001       -3.00675300000000        1.81674600000000
C           96.36709599999999       -2.38274400000000        1.55749600000000
N           96.54424899999998       -1.16086300000000        0.83957600000000
C           95.17497400000001       -2.87599000000000        1.95291900000000
C           95.12524999999998       -4.13346600000000        2.73366000000000
C           94.56830999999998       -5.29038800000000        2.16827000000000
C           94.50505200000001       -6.47495900000000        2.90792400000000
C           94.99405899999999       -6.51432200000000        4.22141600000000
N           94.92915000000001       -7.72635800000000        4.97743100000000
C           95.54510900000000       -5.35698600000000        4.78956800000000
C           95.60802399999999       -4.17164400000000        4.05121000000000
C           93.88378599999999       -2.20547100000000        1.64740000000000
C           92.60033000000000       -2.59408100000000        2.24479200000000
C           91.66581700000000       -1.81983600000000        1.73179700000000
N           93.74112300000000       -1.22847300000000        0.80507700000000
C           92.34593099999998       -0.92603700000000        0.80252400000000
C           91.75173300000000       -0.01074500000000        0.01978200000000
C           92.51531600000000        0.87175000000000       -0.89013300000000
C           91.98479499999999        1.52717800000000       -1.91478600000000
C           93.02769100000000        2.36176100000000       -2.47924200000000
C           94.12532400000001        2.16426900000000       -1.75823000000000
N           93.89147799999999        1.21151600000000       -0.71992700000000
C           95.40393800000000        2.89278000000000       -1.96039400000000
C           95.38111800000000        4.16541400000000       -2.72203300000000
C           94.64216600000000        5.25790900000000       -2.24252600000000
C           94.60119000000000        6.45325900000000       -2.96621700000000
C           95.29337299999999        6.56805300000000       -4.17995200000000
N           95.25097500000000        7.79105200000000       -4.91974800000000
C           96.02483200000000        5.47492700000000       -4.66516200000000
C           96.06588499999998        4.27884000000000       -3.94280400000000
C           96.56599499999999        2.42521400000000       -1.46516900000000
C           97.87332700000000        3.07148000000000       -1.56781600000000
C           98.73498900000000        2.24886800000000       -1.00144200000000
C           97.98653099999999        1.08673600000000       -0.52546900000000
N           96.72167100000000        1.17855900000000       -0.79028800000000
H           99.70731700000000       -0.10099100000000        0.12274500000000
H           99.67554500000000       -2.42622000000000        1.35581500000000
H           97.85981899999999       -3.94273500000000        2.32630300000000
H           94.18524899999998       -5.27365800000000        1.15521700000000
H           94.07470399999998       -7.36100100000000        2.45844600000000
H           94.51982099999999       -8.59344800000000        4.56333900000000
H           95.29014100000001       -7.76556600000000        5.95672800000000
H           95.92330300000000       -5.37316300000000        5.80396700000000
H           96.03070099999999       -3.28334500000000        4.50453700000000
H           92.42941199999999       -3.37184200000000        2.97744800000000
H           90.61204200000000       -1.86415800000000        1.97266000000000
H           90.95911300000000        1.47616500000000       -2.25484000000000
H           92.91894400000000        3.03921100000000       -3.31627900000000
H           94.10118399999999        5.18364900000000       -1.30703100000000
H           94.02981000000000        7.28890100000000       -2.58209500000000
H           94.70798499999998        8.61061000000000       -4.56711600000000
H           95.76247499999999        7.88601500000000       -5.82540800000000
H           96.55989700000001        5.54887700000000       -5.60353800000000
H           96.62732200000001        3.43976200000000       -4.33517900000000
H           98.11516299999998        4.02857000000000       -2.01081000000000
H           99.79954200000000        2.41903400000000       -0.90812800000000
C           45.71401900000000        0.00394500000000        0.03005800000000
C           47.17224600000000       -0.01789100000000        0.01218400000000
C           48.30617400000000       -0.03864500000000        0.01069300000000
C           49.66755500000000       -0.05123500000000        0.00850200000000
C           50.94177400000000       -0.04092800000000        0.00373700000000
C           52.13023700000000       -0.02213000000000       -0.00241900000000
C           53.48259700000000        0.00265400000000        0.01344900000000
C           54.58286500000000        0.00394500000000        0.03005800000000
C           63.19785200000000        0.00394500000000        0.03005800000000
C           64.65607900000001       -0.01789100000000        0.01218400000000
C           65.79000700000000       -0.03864500000000        0.01069300000000
C           67.15138899999999       -0.05123500000000        0.00850200000000
C           68.42560700000000       -0.04092800000000        0.00373700000000
C           69.61407000000000       -0.02213000000000       -0.00241900000000
C           70.96643100000000        0.00265400000000        0.01344900000000
C           72.06669800000000        0.00394500000000        0.03005800000000
C           80.68168600000000        0.00394500000000        0.03005800000000
C           82.13991200000000       -0.01789100000000        0.01218400000000
C           83.27383999999999       -0.03864500000000        0.01069300000000
C           84.63522200000000       -0.05123500000000        0.00850200000000
C           85.90944099999999       -0.04092800000000        0.00373700000000
C           87.09790299999999       -0.02213000000000       -0.00241900000000
C           88.45026400000000        0.00265400000000        0.01344900000000
C           89.55053100000001        0.00394500000000        0.03005800000000
Fe          58.98519000000000       -0.04617900000000        0.05561400000000
C           55.50100400000000        0.01012500000000       -0.02623000000000
C           56.15786400000000        1.12002000000000       -0.41017700000000
C           55.51313900000000        2.35210600000000       -0.87029600000000
C           56.45116299999999        3.24770400000000       -1.10480500000000
C           57.75401099999999        2.63991400000000       -0.81503700000000
N           57.57759299999999        1.28989400000000       -0.37752800000000
C           58.93804699999999        3.28227400000000       -0.90204800000000
C           58.95942500000000        4.70236900000000       -1.31616400000000
C           58.82575299999999        5.04566300000000       -2.66998600000000
C           58.84278000000000        6.38840400000000       -3.05910800000000
C           58.99636800000000        7.39979200000000       -2.09943400000000
N           59.01429500000000        8.77311900000000       -2.49822300000000
C           59.13202200000000        7.05570200000000       -0.74636900000000
C           59.11291700000000        5.71344700000000       -0.35599600000000
C           60.24153600000000        2.63846500000000       -0.59789000000000
C           61.52045099999999        3.35956900000000       -0.56343700000000
C           62.47193799999999        2.48282200000000       -0.31755700000000
N           60.40497900000000        1.36850000000000       -0.38942900000000
C           61.80922600000000        1.19033800000000       -0.20149700000000
C           62.42431700000000        0.01012500000000       -0.02623000000000
C           61.67895899999999       -1.26430300000000        0.06890100000000
C           62.22745999999999       -2.46393500000000       -0.07644400000000
C           61.19493700000000       -3.44444200000000        0.19373800000000
C           60.08503699999999       -2.77780500000000        0.48892500000000
N           60.29956100000000       -1.36811800000000        0.42095900000000
C           58.81982099999999       -3.41407100000000        0.93106500000000
C           58.87300400000000       -4.80208600000000        1.45082800000000
C           58.22804200000000       -5.84500800000000        0.76462400000000
C           58.29419100000000       -7.15412900000000        1.25091200000000
C           59.00983500000000       -7.43607300000000        2.42416600000000
N           59.07399999999999       -8.77471700000000        2.92378400000000
C           59.66307399999999       -6.39703700000000        3.10441800000000
C           59.59878299999999       -5.08791500000000        2.61780700000000
C           57.64387300000000       -2.75849000000000        0.88837100000000
C           56.36127900000000       -3.27233700000000        1.35799400000000
C           55.47301100000000       -2.33651400000000        1.09453400000000
C           56.17644700000000       -1.21613900000000        0.45980600000000
N           57.44619700000000       -1.45492200000000        0.33926200000000
H           54.45377700000000        2.53391700000000       -0.99417600000000
H           56.26176599999999        4.25835300000000       -1.44419400000000
H           58.70661700000000        4.27336300000000       -3.42050900000000
H           58.73682899999999        6.64056400000000       -4.10692200000000
H           58.91518800000000        9.03914400000000       -3.50331600000000
H           59.13179200000000        9.53332900000000       -1.79126000000000
H           59.25249500000000        7.82717500000000        0.00416200000000
H           59.21841000000000        5.46045100000000        0.69219900000000
H           61.67942599999999        4.41868900000000       -0.71684300000000
H           63.52700100000000        2.70763100000000       -0.23704000000000
H           63.25877200000000       -2.68004700000000       -0.32018000000000
H           61.32065599999999       -4.51960600000000        0.19212400000000
H           57.67687200000000       -5.64277000000000       -0.14619200000000
H           57.78958500000000       -7.94841000000000        0.71327600000000
H           59.60391100000000       -8.99483800000000        3.79696300000000
H           58.58864299999999       -9.55517900000000        2.42691800000000
H           60.22160000000000       -6.60159400000000        4.01048700000000
H           60.10940599999999       -4.29552200000000        3.15296700000000
H           56.15365900000000       -4.21991400000000        1.83789000000000
H           54.41857100000000       -2.40356100000000        1.32583500000000
Fe          76.46902300000001       -0.04617900000000        0.05561400000000
C           72.98483700000000        0.01012500000000       -0.02623000000000
C           73.64169699999999        1.12002000000000       -0.41017700000000
C           72.99697200000000        2.35210600000000       -0.87029600000000
C           73.93499600000000        3.24770400000000       -1.10480500000000
C           75.23784499999999        2.63991400000000       -0.81503700000000
N           75.06142600000000        1.28989400000000       -0.37752800000000
C           76.42188000000000        3.28227400000000       -0.90204800000000
C           76.44325900000000        4.70236900000000       -1.31616400000000
C           76.30958600000000        5.04566300000000       -2.66998600000000
C           76.32661299999999        6.38840400000000       -3.05910800000000
C           76.48020199999999        7.39979200000000       -2.09943400000000
N           76.49812799999999        8.77311900000000       -2.49822300000000
C           76.61585500000000        7.05570200000000       -0.74636900000000
C           76.59675000000000        5.71344700000000       -0.35599600000000
C           77.72537000000000        2.63846500000000       -0.59789000000000
C           79.00428400000000        3.35956900000000       -0.56343700000000
C           79.95577100000000        2.48282200000000       -0.31755700000000
N           77.88881200000000        1.36850000000000       -0.38942900000000
C           79.29305900000000        1.19033800000000       -0.20149700000000
C           79.90815099999999        0.01012500000000       -0.02623000000000
C           79.16279200000000       -1.26430300000000        0.06890100000000
C           79.71129300000000       -2.46393500000000       -0.07644400000000
C           78.67877099999998       -3.44444200000000        0.19373800000000
C           77.56887000000000       -2.77780500000000        0.48892500000000
N           77.78339400000000       -1.36811800000000        0.42095900000000
C           76.30365399999999       -3.41407100000000        0.93106500000000
C           76.35683699999998       -4.80208600000000        1.45082800000000
C           75.71187600000000       -5.84500800000000        0.76462400000000
C           75.77802400000000       -7.15412900000000        1.25091200000000
C           76.49366800000000       -7.43607300000000        2.42416600000000
N           76.55783300000000       -8.77471700000000        2.92378400000000
C           77.14690700000000       -6.39703700000000        3.10441800000000
C           77.08261600000000       -5.08791500000000        2.61780700000000
C           75.12770700000000       -2.75849000000000        0.88837100000000
C           73.84511200000000       -3.27233700000000        1.35799400000000
C           72.95684499999999       -2.33651400000000        1.09453400000000
C           73.66028100000000       -1.21613900000000        0.45980600000000
N           74.93003000000000       -1.45492200000000        0.33926200000000
H           71.93761000000001        2.53391700000000       -0.99417600000000
H           73.74559900000000        4.25835300000000       -1.44419400000000
H           76.19045000000000        4.27336300000000       -3.42050900000000
H           76.22066300000000        6.64056400000000       -4.10692200000000
H           76.39902099999999        9.03914400000000       -3.50331600000000
H           76.61562499999999        9.53332900000000       -1.79126000000000
H           76.73632799999999        7.82717500000000        0.00416200000000
H           76.70224399999999        5.46045100000000        0.69219900000000
H           79.16325899999998        4.41868900000000       -0.71684300000000
H           81.01083400000000        2.70763100000000       -0.23704000000000
H           80.74260500000000       -2.68004700000000       -0.32018000000000
H           78.80448900000000       -4.51960600000000        0.19212400000000
H           75.16070600000000       -5.64277000000000       -0.14619200000000
H           75.27341799999999       -7.94841000000000        0.71327600000000
H           77.08774400000000       -8.99483800000000        3.79696300000000
H           76.07247700000001       -9.55517900000000        2.42691800000000
H           77.70543300000000       -6.60159400000000        4.01048700000000
H           77.59323900000000       -4.29552200000000        3.15296700000000
H           73.63749199999999       -4.21991400000000        1.83789000000000
H           71.90240500000000       -2.40356100000000        1.32583500000000
262
 energy: -452.254462449149 gnorm: 1.766453841546 xtb: 6.5.1 (b24c23e)
Fe          40.10744224128139       -0.03587049505936        0.03431948235476
C           36.76486437105237        0.10388616570189        0.02655426224046
C           37.42886629790974        1.14704515697118       -0.49228220644504
C           36.77573238654680        2.29267121561673       -1.11150703992079
C           37.71828862627037        3.14306242727312       -1.48473206907227
C           39.02044999784471        2.57968258447951       -1.10686962856112
N           38.84219186557825        1.30941066462178       -0.48691075648354
C           40.21669591706038        3.18313239672277       -1.29974872800927
C           40.26364192542270        4.52950202971495       -1.91699567150300
C           40.82014480478743        4.69810450301811       -3.19344080697320
C           40.88336586013315        5.96791474261334       -3.77191940940299
C           40.39462157939911        7.08660526940398       -3.08028250811944
N           40.45941474565123        8.38406515331834       -3.67171403953413
C           39.84358627910908        6.91829946021663       -1.80095780254605
C           39.78075254090320        5.64883229998373       -1.22172947452898
C           41.50295555356019        2.56160984329825       -0.91152261570996
C           42.78609044150348        3.27269422988198       -0.90490820772826
C           43.72340114370738        2.41427101824952       -0.54162941985111
N           41.64835303145044        1.31456216009630       -0.56000337308661
C           43.04360182503881        1.14777833437437       -0.31064236440074
C           43.63964852820259       -0.01305942976900        0.02000610433640
C           42.87285422488135       -1.25211188228689        0.25296306523135
C           43.40398731585059       -2.47765069540936        0.23335189510124
C           42.36525880912549       -3.40527735951840        0.61559209056172
C           41.25966606954154       -2.69168780106212        0.85137353000351
N           41.49722191677868       -1.30344815509119        0.62880909502306
C           39.98692885815418       -3.26473251609347        1.34512010104989
C           40.00786734514659       -4.60353854090026        1.98545515277363
C           40.74621377632668       -4.80836936690006        3.16101568350851
C           40.78717968361036       -6.07078103644620        3.75726041115016
C           40.09527548400803       -7.14811385176187        3.18364235531881
N           40.13759476789645       -8.43803710345366        3.79309772293225
C           39.36391655857062       -6.94608572807579        2.00355471161499
C           39.32295429280388       -5.68401401293896        1.40655122547401
C           38.82183156616404       -2.59377380478157        1.22946009203895
C           37.51700501990535       -3.03777961014375        1.71173618237704
C           36.65214560099907       -2.10858269334638        1.33803088252989
C           37.39850772755519       -1.06951722218193        0.63240505890900
N           38.66875491111216       -1.34409489540033        0.56429413410777
H           35.68128285134323        0.12476171276699        0.00160197107994
H           35.71307375454208        2.43700569473747       -1.25509268898124
H           37.52935325476438        4.08428194148154       -1.98306781117033
H           41.20329565717527        3.84354069846506       -3.73940463871769
H           41.31387795387855        6.08313261101420       -4.75923206517830
H           40.86784129734430        8.51801375637502       -4.62122824244031
H           40.09925044856375        9.22039034450683       -3.16458670771956
H           39.46529623345391        7.77328410466144       -1.25387384377594
H           39.35792886665863        5.53542294891970       -0.23002154835786
H           42.95869053372559        4.31160837905371       -1.14758610435114
H           44.77650416376592        2.64040780163779       -0.44585314884960
H           44.42939972285099       -2.72828385476864        0.00232747717883
H           42.46978044773197       -4.47643042909560        0.71852173673880
H           41.28735174227709       -3.98668317588862        3.61612030836468
H           41.35876831296424       -6.21268847778994        4.66643183552371
H           40.67938053867859       -8.59692780321590        4.66922520182186
H           39.62725619960564       -9.24389820495276        3.37295436192819
H           38.82870383965624       -7.76964672706007        1.54668187862256
H           38.76132023995667       -5.54703103552036        0.48957184148664
H           37.27397612520868       -3.93505945061233        2.26448946706480
H           35.58900741953174       -2.12628307179622        1.53209648845695
Fe          95.28110815698874        0.01525511629546        0.00686766526294
C           98.62372750076344       -0.06843496884129        0.11906722865332
C           97.95973127389897       -1.07725184301588        0.70186585675483
C           98.61284988470383       -2.22635731733327        1.31459707213670
C           97.67028834016998       -3.00731313893813        1.81718222508094
C           96.36809615857430       -2.38113847550845        1.55642713999272
N           96.54637243683212       -1.16243006816337        0.84013490033992
C           95.17197667512579       -2.87527826718621        1.95278911972310
C           95.12494496919179       -4.13364704321353        2.73393644836741
C           94.56844308082782       -5.29071363921009        2.16919831452384
C           94.50522098469237       -6.47447648240219        2.90795574288974
C           94.99396597315163       -6.51610130057770        4.22252389893048
N           94.92917169900248       -7.72594560358025        4.97717461661121
C           95.54500035059105       -5.35680296527681        4.78910321650484
C           95.60783278531771       -4.17260258844906        4.05104617744890
C           93.88559436840141       -2.20818687285281        1.64919205485719
C           92.60245272515513       -2.59563794978039        2.24559351541869
C           91.66517818529286       -1.81858335395668        1.73084551648404
N           93.74036982692317       -1.22638766588552        0.80413269199920
C           92.34483936809511       -0.92604038842456        0.80266048817202
C           91.74981592625565       -0.00929435714875        0.01802991600876
C           92.51573825201272        0.86940170941260       -0.88596746100677
C           91.98459183642065        1.53026409483869       -1.91833351426918
C           93.02337136056822        2.36143642084026       -2.48035129463431
C           94.12891115597944        2.16369877727192       -1.75531945094026
N           93.89143996578555        1.21111936391176       -0.72116711031406
C           95.40167427584095        2.89184008526958       -1.96011750994988
C           95.38071993018093        4.16527501393152       -2.72220664734454
C           94.64237360481954        5.25827206938741       -2.24340304027403
C           94.60140721757806        6.45275507616846       -2.96617806394034
C           95.29331143864452        6.56990134543077       -4.18106801784308
N           95.25099281699916        7.79059665145711       -4.91947325635135
C           96.02467048863765        5.47467781153212       -4.66470814120751
C           96.06563226471162        4.27975051605247       -3.94263712840433
C           96.56674439094900        2.42471519198373       -1.46478735023892
C           97.87158606728620        3.07200639225840       -1.56838923961616
C           98.73644025991872        2.24712362370013       -1.00039134020982
C           97.99007941546149        1.08486766531252       -0.52420468736411
N           96.71985042509783        1.17981308351402       -0.79072048465000
H           99.70730412105760       -0.10076886443073        0.12268180616817
H           99.67551305868204       -2.42579345753321        1.35556901395400
H           97.85923383462395       -3.94272016154482        2.32634174878402
H           94.18529134439036       -5.27360457161601        1.15526320013624
H           94.07470891425085       -7.36105875824124        2.45847244608066
H           94.52074694912579       -8.59136787199024        4.56418613098849
H           95.28933665771628       -7.76534530663423        5.95444629072976
H           95.92329099438699       -5.37321056469337        5.80400801284288
H           96.03065822980599       -3.28335757069003        4.50446608075370
H           92.42989941041944       -3.37195518098305        2.97744414375394
H           90.61209787970286       -1.86369906615289        1.97224649189922
H           90.95919937695734        1.47622332211549       -2.25492691237287
H           92.91880903347376        3.03906043972232       -3.31627700372971
H           94.10123521509119        5.18359658652422       -1.30707442637754
H           94.02981859792449        7.28895270392065       -2.58211540556021
H           94.70920615255596        8.60863556253539       -4.56782604190595
H           95.76133050044218        7.88566723573645       -5.82329570804661
H           96.55988321594005        5.54891582186182       -5.60357685590897
H           96.62726679704254        3.43976505104405       -4.33511697746385
H           98.11461095884606        4.02849564947402       -2.01085754602949
H           99.79957965872237        2.41865254568449       -0.90791669864585