216
 energy: -348.416829125484 gnorm: 1.674435119431 xtb: 6.5.1 (b24c23e)
C           27.34088700000000        1.16274200000000       -0.17701200000000
C           28.24048900000000        1.55209500000000       -1.38626900000000
C           28.15146100000000        2.70404000000000       -2.14238200000000
C           29.23865600000000        2.68087800000000       -3.05573900000000
C           29.91723600000000        1.49311600000000       -2.85613800000000
N           29.34713300000000        0.84884400000000       -1.78383700000000
C           31.20933900000000        0.96930800000000       -3.61950500000000
C           31.08128500000000        0.64536200000000       -5.06840100000000
C           31.38412900000000       -0.64190700000000       -5.53508000000000
C           31.15087300000000       -1.01706600000000       -6.86198300000000
C           30.53570300000000       -0.13551800000000       -7.74723400000000
N           30.18923800000000       -0.52215300000000       -9.06569800000000
C           29.31676100000000       -1.68836900000000       -9.09214200000000
C           30.27223300000000        1.16791300000000       -7.31031100000000
C           30.54404700000000        1.54797600000000       -5.98779300000000
C           32.31371700000000        0.69571300000000       -2.86811900000000
C           33.58938900000000        0.32914900000000       -3.44932200000000
C           34.44669200000000        0.08994800000000       -2.46271300000000
N           32.48654900000000        0.68366000000000       -1.50813500000000
C           33.75543600000000        0.26986900000000       -1.19679100000000
C           34.34774300000000        0.02397700000000       -0.00114100000000
C           33.52108200000000        0.09830500000000        1.36665500000000
C           34.05429900000000       -0.00525600000000        2.63389300000000
C           32.97835400000000       -0.02759000000000        3.55704600000000
C           31.81447100000000        0.04277100000000        2.82486000000000
N           32.15183600000000        0.18735400000000        1.49593700000000
C           30.34206900000000       -0.06302700000000        3.42910200000000
C           30.20792600000000       -0.52780200000000        4.82958900000000
C           29.97135700000000        0.38892400000000        5.86038100000000
C           29.85747400000000       -0.04581300000000        7.18465500000000
C           30.00786300000000       -1.40080300000000        7.51769700000000
N           29.83670900000000       -1.90292500000000        8.82181500000000
C           30.02326200000000       -0.99034600000000        9.93558800000000
C           30.22777100000000       -2.30658200000000        6.47118800000000
C           30.34334000000000       -1.87655600000000        5.14507500000000
C           29.26404800000000        0.22325100000000        2.65701300000000
C           27.89310500000000        0.08423400000000        3.12076500000000
C           27.07530300000000        0.42330100000000        2.12623400000000
C           27.89516200000000        0.78352500000000        0.98985900000000
N           29.19548800000000        0.64793300000000        1.36204400000000
H           26.26719500000000        1.20186900000000       -0.29216700000000
H           27.42136600000000        3.49169000000000       -2.02112300000000
H           29.49586600000000        3.45436100000000       -3.76816500000000
H           29.77832900000000        0.10529300000000       -1.24937700000000
H           31.77598800000000       -1.37955400000000       -4.83272700000000
H           31.43082600000000       -2.01617200000000       -7.17284900000000
H           29.76306400000000        0.26699900000000       -9.54342300000000
H           28.45396400000000       -1.56384700000000       -8.42665200000000
H           28.93385600000000       -1.83048500000000      -10.10437000000000
H           29.85351800000000       -2.60409400000000       -8.81500600000000
H           29.78983900000000        1.87947100000000       -7.97048200000000
H           30.31840300000000        2.55929500000000       -5.66487800000000
H           33.81409500000000        0.29185900000000       -4.49538500000000
H           35.47483200000000       -0.19200100000000       -2.60197300000000
H           35.10194700000000       -0.09090500000000        2.87835100000000
H           33.05209500000000       -0.13850800000000        4.62723100000000
H           31.48883400000000        0.30752700000000        0.73121400000000
H           29.87451700000000        1.44807300000000        5.61538900000000
H           29.66386200000000        0.70626200000000        7.94853000000000
H           30.34727400000000       -2.77335200000000        8.93057400000000
H           29.21381900000000       -0.25398300000000        9.98272300000000
H           30.99429700000000       -0.48029400000000        9.88375500000000
H           29.99772400000000       -1.56132900000000       10.87241700000000
H           30.30610900000000       -3.37006400000000        6.67250800000000
H           30.51915300000000       -2.59071800000000        4.34352300000000
H           27.58712100000000       -0.25643600000000        4.09273200000000
H           26.00174300000000        0.40299400000000        2.14956100000000
C           73.31421899999998        1.17022300000000        0.11648900000000
C           72.41461700000001        1.62067500000000        1.30434100000000
C           72.50364499999999        2.80964400000000        2.00078600000000
C           71.41644999999998        2.83304200000000        2.91413700000000
C           70.73786900000000        1.63665400000000        2.77530500000000
N           71.30797200000001        0.93859100000000        1.73721800000000
C           69.44576599999999        1.15241600000000        3.56436600000000
C           69.57382100000000        0.90270300000000        5.02788400000000
C           69.27097700000000       -0.35912000000000        5.55953600000000
C           69.50423300000000       -0.66619300000000        6.90382800000000
C           70.11940199999999        0.25930900000000        7.74302000000000
N           70.46586700000000       -0.05965600000000        9.07946800000000
C           71.33834400000001       -1.22301000000000        9.16529000000000
C           70.38287200000001        1.53878900000000        7.24026200000000
C           70.11105900000000        1.85098400000000        5.90009900000000
C           68.34138799999999        0.84089700000000        2.82789400000000
C           67.06571700000001        0.50441800000000        3.42701700000000
C           66.20841299999999        0.21526500000000        2.45387500000000
N           68.16855699999999        0.75957600000000        1.47028900000000
C           66.89967000000000        0.33046200000000        1.18043000000000
C           66.30736300000000        0.02397700000000       -0.00114100000000
C           67.13402400000000        0.02852700000000       -1.37094700000000
C           66.60080700000000       -0.13945800000000       -2.63126300000000
C           67.67675100000000       -0.20879300000000       -3.55208000000000
C           68.84063500000001       -0.10122200000000       -2.82442900000000
N           68.50327000000000        0.11087400000000       -1.50459700000000
C           70.31303699999999       -0.23766600000000       -3.42249700000000
C           70.44717899999999       -0.77318400000000       -4.79748700000000
C           70.68374900000001        0.08983900000000       -5.87364300000000
C           70.79763199999999       -0.41179800000000       -7.17405000000000
C           70.64724300000000       -1.78199500000000       -7.43763000000000
N           70.81839700000000       -2.34990300000000       -8.71447500000000
C           70.63184400000000       -1.49524900000000       -9.87329200000000
C           70.42733399999999       -2.63328400000000       -6.34633600000000
C           70.31176600000001       -2.13625800000000       -5.04385200000000
C           71.39105800000000        0.08757400000000       -2.66599400000000
C           72.76200100000000       -0.07488800000000       -3.12206200000000
C           73.57980300000000        0.31440500000000       -2.14609600000000
C           72.75994399999999        0.73205200000000       -1.02954800000000
N           71.45961799999999        0.57767700000000       -1.39434200000000
H           74.38791100000000        1.21516600000000        0.22950100000000
H           73.23373900000000        3.59009400000000        1.83955900000000
H           71.15923900000000        3.64181500000000        3.58623300000000
H           70.87677600000001        0.16877800000000        1.24133300000000
H           68.87911799999999       -1.13158900000000        4.89567400000000
H           69.22427999999999       -1.64816500000000        7.26518900000000
H           70.89204100000001        0.75280800000000        9.51637000000000
H           72.20114200000000       -1.13255300000000        8.49432100000000
H           71.72124999999998       -1.31337400000000       10.18344400000000
H           70.80158699999998       -2.15166500000000        8.93516500000000
H           70.86526700000000        2.28305500000000        7.86332500000000
H           70.33670300000000        2.84453800000000        5.52608200000000
H           66.84101099999999        0.52046700000000        4.47362100000000
H           65.18027300000000       -0.05922300000000        2.60731700000000
H           65.55315899999999       -0.23744900000000       -2.87104000000000
H           67.60301000000000       -0.37408600000000       -4.61522400000000
H           69.16627099999999        0.26984900000000       -0.74698900000000
H           70.78058900000001        1.16009300000000       -5.68292700000000
H           70.99124399999999        0.30038600000000       -7.97524700000000
H           70.30783099999999       -3.22474000000000       -8.77874900000000
H           71.44128700000000       -0.76224300000000       -9.95787900000000
H           69.66080900000000       -0.98321900000000       -9.84751100000000
H           70.65738200000000       -2.11321700000000      -10.77981600000000
H           70.34899600000000       -3.70564200000000       -6.49321600000000
H           70.13595300000000       -2.80865900000000       -4.20695900000000
H           73.06798499999999       -0.46463200000000       -4.07541200000000
H           74.65336300000000        0.29293600000000       -2.16835800000000
C           36.61356899999999        0.03917800000000        0.00949300000000
C           38.07179500000000        0.01734100000000       -0.00838100000000
C           39.20572299999999       -0.00341200000000       -0.00987200000000
C           40.56710499999999       -0.01600200000000       -0.01206300000000
C           41.84132400000000       -0.00569600000000       -0.01682800000000
C           43.02978599999999        0.01310200000000       -0.02298400000000
C           44.38214700000000        0.03788700000000       -0.00711600000000
C           45.48241400000000        0.03917800000000        0.00949300000000
C           55.04434000000000        0.03917800000000        0.00949300000000
C           56.50256700000000        0.01734100000000       -0.00838100000000
C           57.63649500000000       -0.00341200000000       -0.00987200000000
C           58.99787600000000       -0.01600200000000       -0.01206300000000
C           60.27209500000000       -0.00569600000000       -0.01682800000000
C           61.46055800000000        0.01310200000000       -0.02298400000000
C           62.81291800000000        0.03788700000000       -0.00711600000000
C           63.91318600000000        0.03917800000000        0.00949300000000
C           46.77931400000000       -0.05817700000000        0.00001500000000
C           47.55448400000000       -0.01091100000000        1.38664100000000
C           46.97337699999999        0.00345700000000        2.63909700000000
C           48.01546699999999        0.04099500000000        3.59300200000000
C           49.20940999999999        0.04936700000000        2.90171400000000
N           48.92033700000000        0.01844000000000        1.55801000000000
C           50.64947800000000        0.08505800000000        3.56373000000000
C           50.71105300000000        0.15332500000000        5.04501200000000
C           50.77661200000000       -1.01416300000000        5.80804900000000
C           50.80774299999999       -0.94177000000000        7.20499300000000
C           50.74107600000000        0.29097600000000        7.87379700000000
N           50.81695600000000        0.29415100000000        9.27808100000000
C           50.33684800000000        1.46648300000000        9.98476400000000
C           50.73062500000000        1.45499800000000        7.09485500000000
C           50.69957100000000        1.38893900000000        5.69626300000000
C           51.77718899999999        0.05625400000000        2.80596000000000
C           53.09103700000000        0.08332000000000        3.41543300000000
C           54.00100100000000        0.03948400000000        2.45156900000000
N           51.97206000000000        0.00107400000000        1.45071500000000
C           53.31674600000000       -0.01157800000000        1.17471000000000
C           54.00045299999999       -0.05817700000000        0.00001500000000
C           53.22559799999999       -0.09927700000000       -1.38705600000000
C           53.80642500000000       -0.09902200000000       -2.64008700000000
C           52.76441400000000       -0.13811600000000       -3.59422200000000
C           51.57069099999999       -0.15955500000000       -2.90257200000000
N           51.86007599999999       -0.13537500000000       -1.55855300000000
C           50.13135300000000       -0.20130100000000       -3.56325000000000
C           50.06327999999999       -0.26956300000000       -5.04404900000000
C           50.01371000000000        0.90006700000000       -5.80614900000000
C           49.94075000000000        0.83468600000000       -7.20314400000000
C           49.88463600000000       -0.39725900000000       -7.86729300000000
N           49.85365000000000       -0.52643100000000       -9.26790500000000
C           49.31241500000000        0.57744700000000      -10.03862400000000
C           49.99221000000000       -1.56291500000000       -7.09225200000000
C           50.06466900000000       -1.50385500000000       -5.69640900000000
C           49.00306400000000       -0.17378700000000       -2.80554600000000
C           47.68887300000000       -0.20402300000000       -3.41474200000000
C           46.77859100000000       -0.16047600000000       -2.45125900000000
C           47.46281300000000       -0.10594000000000       -1.17466500000000
N           48.80750999999999       -0.11654100000000       -1.45053300000000
H           45.91611099999999       -0.01431100000000        2.85409800000000
H           47.90504400000000        0.05767400000000        4.66716300000000
H           49.60769900000000        0.00872200000000        0.80819000000000
H           50.81141100000000       -1.97671600000000        5.30312500000000
H           50.88041500000000       -1.86879900000000        7.76543400000000
H           50.43583500000000       -0.57255600000000        9.64796500000000
H           49.30573700000000        1.70934200000000        9.70714400000000
H           50.35281200000000        1.26602700000000       11.06108800000000
H           50.98210200000000        2.33332100000000        9.81031700000000
H           50.74496599999999        2.43926700000000        7.54834400000000
H           50.67455000000000        2.29959400000000        5.10185300000000
H           53.30741900000000        0.12930600000000        4.46813100000000
H           55.06236599999999        0.04588800000000        2.61895500000000
H           54.86347599999999       -0.07179700000000       -2.85531500000000
H           52.87494600000000       -0.14706100000000       -4.66885700000000
H           51.17305500000000       -0.13325300000000       -0.80845500000000
H           50.03364400000000        1.86241200000000       -5.29958000000000
H           49.92469500000000        1.77182200000000       -7.74733200000000
H           49.44126700000000       -1.42055300000000       -9.52172300000000
H           49.96696500000000        1.45391700000000       -9.99958000000000
H           49.24060899999999        0.27752200000000      -11.08929400000000
H           48.30680900000000        0.84959600000000       -9.70084200000000
H           50.01250600000000       -2.53938300000000       -7.56624800000000
H           50.12294900000000       -2.41562900000000       -5.10666300000000
H           47.47229400000000       -0.25179800000000       -4.46713100000000
H           45.71722500000000       -0.16875300000000       -2.61821400000000
216
 energy: -348.903376577358 gnorm: 0.572568432308 xtb: 6.5.1 (b24c23e)
C           27.35628117872598        1.16604309230502       -0.19403654983056
C           28.23472599251843        1.55050880628217       -1.37557117377081
C           28.15303344860920        2.70181740350190       -2.14463853342236
C           29.23536108341772        2.67721670273514       -3.05728224695890
C           29.92920754058934        1.49141130842116       -2.85956693371240
N           29.34849190298470        0.85192801656924       -1.78397037539888
C           31.19229831486704        0.97109585840183       -3.60849262081063
C           31.07877895604801        0.64739903275012       -5.06321626335886
C           31.38508811645005       -0.64122698628217       -5.53439958720268
C           31.15079349867958       -1.01638666053302       -6.85737612189321
C           30.53679493497885       -0.13299529938401       -7.74567289514070
N           30.19064512435022       -0.52173148802961       -9.06068108090381
C           29.31512888465391       -1.69057922856604       -9.09379175511906
C           30.27200493405001        1.16863609834332       -7.30600179610187
C           30.54275210988306        1.54771513565462       -5.98956783830319
C           32.31520439766044        0.69082747511061       -2.86464974980662
C           33.59063380017742        0.32804257989829       -3.45401583366570
C           34.45269228220244        0.08927012254589       -2.46404571149241
N           32.48268371731953        0.68045849851615       -1.50059116308494
C           33.76050732902785        0.27277119508696       -1.19714078009772
C           34.34860053265414        0.03189987091162        0.02211301448532
C           33.53355208175508        0.09893588774207        1.35060927832357
C           34.05316677318492       -0.00692511807194        2.63706357260496
C           32.98177464206082       -0.03087876023535        3.55380451588218
C           31.79857899151665        0.04258105874049        2.82710162694766
N           32.15416627203666        0.18333928277937        1.49413444925465
C           30.36738064921534       -0.06062421191519        3.41666957319192
C           30.21401245551199       -0.52430630835856        4.82622999433164
C           29.97087445652468        0.38724138984385        5.86106753510642
C           29.85805069706745       -0.04437052089049        7.18301418608296
C           30.00568722476729       -1.39987221651559        7.51507475526208
N           29.83786782010401       -1.90058136664427        8.81696371371686
C           30.02411380166642       -0.99062928292643        9.93760533151672
C           30.22801981777367       -2.30618086998666        6.46839934757655
C           30.34329896231850       -1.87605456042339        5.14709341886690
C           29.26175488103069        0.22469433921790        2.65139795898571
C           27.89117463017829        0.08254831329828        3.12584766584964
C           27.07103600193514        0.42173537406973        2.12865870286515
C           27.89758092356127        0.78014603662478        0.99177812610429
N           29.20385539393052        0.64760456935254        1.35778271081702
H           26.27300829495331        1.20581440840763       -0.29524244821476
H           27.42279076068262        3.49021812369509       -2.02245909406320
H           29.49404492197289        3.45239128798387       -3.76720653543777
H           29.77726058613507        0.10579309935858       -1.25142669596140
H           31.77629773043437       -1.37847580946623       -4.83441088588412
H           31.42973211641495       -2.01595752320465       -7.17253943458003
H           29.76223919723378        0.26570385453670       -9.54312496446831
H           28.45439181565845       -1.56397255901222       -8.42595597027358
H           28.93480510715228       -1.82961357605470      -10.10587018372395
H           29.85399255702366       -2.60155831226122       -8.81454722360384
H           29.79121633567179        1.87951261539049       -7.97053352549012
H           30.31789779198121        2.55898675527242       -5.66647150647669
H           33.81333053450170        0.29189461669711       -4.50034588506026
H           35.47899905550504       -0.19313122457328       -2.59897762454314
H           35.10134332068611       -0.09041748683580        2.87915653270748
H           33.05310612552045       -0.13809457502376        4.62595468896722
H           31.49057969127006        0.30727035407109        0.73223819267509
H           29.87446360889883        1.44553021610460        5.61713745984445
H           29.66416514654972        0.70461360268096        7.94784089256196
H           30.34638705592707       -2.77242464296420        8.93132408486320
H           29.21522978097996       -0.25483485128866        9.98116604410349
H           30.99356192366016       -0.47932467238000        9.88337662338112
H           29.99732174861872       -1.56222958991807       10.87078806570159
H           30.30647942778552       -3.36954664470480        6.67333988246633
H           30.51911364930286       -2.59056026133976        4.34584660695673
H           27.58823279686538       -0.25740315102784        4.09711792076269
H           25.99831163114437        0.40380766924674        2.14856942705800
C           73.29878001894215        1.17441040481683        0.13334007512495
C           72.42039130586880        1.61850491936141        1.29369597612469
C           72.50205970253668        2.80755492819794        2.00321488077241
C           71.41985434454499        2.82946480679911        2.91589929237262
C           70.72583937452801        1.63508080474143        2.77887633258450
N           71.30655943917111        0.94171165645252        1.73713560851253
C           69.46305564808756        1.15377878462658        3.55339355715080
C           69.57635642644783        0.90449103256850        5.02259913765135
C           69.26999986316092       -0.35847744111173        5.55882310550731
C           69.50431216752770       -0.66575176331948        6.89918283045775
C           70.11830853422498        0.26174664045498        7.74133778824698
N           70.46446920372497       -0.05948774018624        9.07442325972903
C           71.33997468899106       -1.22513665369915        9.16705170934640
C           70.38309798097683        1.53929834726993        7.23592258258271
C           70.11237562623890        1.85081921216774        5.90190067954414
C           68.33985636839780        0.83589759649035        2.82467673870706
C           67.06443031732938        0.50353450124672        3.43169185386137
C           66.20250255291172        0.21462910228723        2.45500032197020
N           68.17325189331331        0.75624086997194        1.46367274921398
C           66.89569074115983        0.33313763105946        1.18033443164744
C           66.31179579131616        0.03160612271463       -0.02501975495197
C           67.12238944830180        0.03003969480045       -1.35434269038278
C           66.60209895636756       -0.14131296620233       -2.63439207672130
C           67.67307282481080       -0.21193516390180       -3.54864295624844
C           68.85681627523401       -0.10154849302326       -2.82660413118875
N           68.50140557031639        0.10692259821003       -1.50284434033898
C           70.28752963885950       -0.23463520645247       -3.41019254533368
C           70.44108021722613       -0.76950502777654       -4.79432223293616
C           70.68423215656644        0.08812630420852       -5.87425070794942
C           70.79705647182456       -0.41027166360864       -7.17248706123985
C           70.64941903647208       -1.78093459030412       -7.43506296391071
N           70.81723508662145       -2.34731232255511       -8.70974474276410
C           70.63099170811739       -1.49563357925868       -9.87529336791592
C           70.42708776977324       -2.63274072438408       -6.34356934843718
C           70.31181012040041       -2.13585531822102       -5.04589067826779
C           71.39336369919147        0.08931995157375       -2.66035497342430
C           72.76392824133134       -0.07682624148729       -3.12703982068884
C           73.58408321644855        0.31271679991048       -2.14842798095796
C           72.75752998304061        0.72855154267490       -1.03127569821321
N           71.45125101777781        0.57754234707770       -1.39013733036938
H           74.38208262089246        1.21927848819773        0.23237194537146
H           73.23229889790788        3.58870052479518        1.84096363551172
H           71.16106571609812        3.63980555021877        3.58536277685294
H           70.87782742732820        0.16937914071408        1.24333773234121
H           68.87880587524505       -1.13042636441674        4.89730168810689
H           69.22537471118360       -1.64796621808849        7.26486588051767
H           70.89286267381226        0.75150057474359        9.51614042649496
H           72.20071256314031       -1.13271338014097        8.49363332635818
H           71.72030011249696       -1.31242707519060       10.18489789485187
H           70.80111216694763       -2.14915650753200        8.93457766774960
H           70.86388734927279        2.28310180492973        7.86337548244840
H           70.33720985783144        2.84431511323428        5.52769413228452
H           66.84177671185670        0.52075369118075        4.47856006538160
H           65.17623686355354       -0.06051255900429        2.60443533369124
H           65.55385167861103       -0.23700261287049       -2.87191131971989
H           67.60195714240646       -0.37360209554928       -4.61397555803671
H           69.16463925035337        0.26952935742800       -0.74807089276045
H           70.78064105368055        1.15746563824984       -5.68454523692913
H           70.99094081941317        0.29877498571706       -7.97447568172842
H           70.30871845516343       -3.22385191700715       -8.77954499884366
H           71.43987642467104       -0.76301435270849       -9.95628093182232
H           69.66154494415363       -0.98223266436908       -9.84718208433964
H           70.65778430010408       -2.11403354339824      -10.77814259446744
H           70.34862472165405       -3.70516644198357       -6.49407189772946
H           70.13599139088161       -2.80861761291483       -4.20928647020244
H           73.06686828918912       -0.46581878462862       -4.07973912937860
H           74.65679935627004        0.29379967586346       -2.16740898286651
C           36.61815388325602        0.04030267603241        0.00997028329609
C           37.98097941711774        0.01611406386417       -0.00768417038438
C           39.24478449027572       -0.00407791816918       -0.00985695092394
C           40.53609479721960       -0.01563768707494       -0.01214156076918
C           41.81642385928748       -0.00578869530952       -0.01686739319869
C           43.03275638095514        0.01405235808062       -0.02318847091782
C           44.32639126391394        0.03784273282985       -0.00741742459814
C           45.52526824271546        0.03967741854687        0.01911780994249
C           55.16745643707596        0.04607696520073       -0.00349321285275
C           56.46186956075454        0.01912496240692       -0.01109265747088
C           57.68986022122282       -0.00390422037374       -0.00898414477473
C           58.97945574128708       -0.01627512579497       -0.01197277697102
C           60.25429215220490       -0.00588201726731       -0.01670717897810
C           61.47264115115993        0.01339778099253       -0.02315598963210
C           62.79590769148564        0.03727213390450       -0.00796583366877
C           64.00887589583542        0.03862746624059        0.00873666085773
C           46.83242686613749       -0.05638475899591        0.02216209315090
C           47.55647014506253       -0.01135631190390        1.37802219438320
C           46.97572110600813        0.00353993177727        2.64061919246646
C           48.01424293353122        0.04103096716737        3.59167572788926
C           49.22391378485755        0.04978850487125        2.90658613644379
N           48.92154964400053        0.01793373495408        1.55945819117799
C           50.62768877267943        0.08461645874373        3.55066010440304
C           50.70619838752383        0.15333134437958        5.04100040821842
C           50.77650267692864       -1.01253873203021        5.80961960968180
C           50.80695804610306       -0.94213080333376        7.20183729546923
C           50.74399528617734        0.29046674926143        7.87104445494878
N           50.81643779993347        0.29416739632476        9.27303727506030
C           50.33588836783589        1.46701551038392        9.98664143293337
C           50.73025158529992        1.45510088336151        7.09225094101641
C           50.69933140606530        1.38711387863036        5.69785008937122
C           51.77748873414969        0.05655330271774        2.80775902448989