120
 energy: -199.282555771768 gnorm: 0.927139606390 xtb: 6.5.1 (b24c23e)
Zn          11.37115200000000        0.04749700000000        0.00360700000000
C            8.03458900000000       -0.10857300000000       -0.00680600000000
C            8.69869900000000       -1.26077700000000       -0.13463400000000
C            8.04902000000000       -2.55751800000000       -0.28502400000000
C            8.99084900000000       -3.48123100000000       -0.33241600000000
C           10.29567800000000       -2.81681000000000       -0.21294800000000
N           10.11739200000000       -1.40523100000000       -0.09251200000000
C           11.48588100000000       -3.44853600000000       -0.16776900000000
C           12.77951400000000       -2.73249900000000       -0.01730100000000
C           14.07005800000000       -3.40729700000000        0.16761100000000
C           15.00477300000000       -2.48082100000000        0.22540500000000
N           12.92013200000000       -1.44344400000000       -0.07726900000000
C           14.31963800000000       -1.20340800000000        0.07000400000000
C           14.91421100000000       -0.00097900000000       -0.00068500000000
C           14.15319700000000        1.25660400000000       -0.17959500000000
C           14.69016500000000        2.40167500000000       -0.58179900000000
C           13.64643000000000        3.40642600000000       -0.53974200000000
C           12.54041200000000        2.80998100000000       -0.11044800000000
C           11.25530400000000        3.51199400000000        0.14075500000000
C           11.27442400000000        4.98679500000000        0.29871600000000
C           10.61516100000000        5.81274700000000       -0.62753200000000
C           10.65386300000000        7.20286000000000       -0.48243500000000
C           11.35541800000000        7.77682000000000        0.58154000000000
C           12.02146100000000        6.96158600000000        1.50103900000000
C           11.98466700000000        5.57093300000000        1.36011500000000
C           10.09025600000000        2.84199200000000        0.22945800000000
C            8.77789700000000        3.42292800000000        0.50824100000000
C            7.91630400000000        2.42585600000000        0.45575700000000
C            8.66928600000000        1.20890700000000        0.15747400000000
N            9.93743700000000        1.43901500000000        0.02404100000000
N           12.77017100000000        1.42135400000000        0.13657500000000
C           11.52466300000000       -4.92344600000000       -0.25967600000000
C           11.42367400000000       -5.55559700000000       -1.50857200000000
C           11.46176600000000       -6.95084600000000       -1.59316400000000
C           11.60168200000000       -7.71937900000000       -0.43356400000000
C           11.70353000000000       -7.09379700000000        0.81268600000000
C           11.66514900000000       -5.69884600000000        0.90153800000000
H            6.95118800000000       -0.13717300000000       -0.00979500000000
H            6.98469400000000       -2.74723500000000       -0.33954800000000
H            8.80541600000000       -4.54309700000000       -0.43020100000000
H           14.24747700000000       -4.47214700000000        0.23971600000000
H           16.06344300000000       -2.66530500000000        0.35025600000000
H           15.71950500000000        2.56935700000000       -0.86896000000000
H           13.75928000000000        4.45306800000000       -0.79116000000000
H           10.07630100000000        5.37943600000000       -1.46121300000000
H           10.14259100000000        7.83529900000000       -1.19658900000000
H           11.38531800000000        8.85308900000000        0.69183500000000
H           12.56726300000000        7.40734700000000        2.32251100000000
H           12.50575700000000        4.94904000000000        2.07773400000000
H            8.53305200000000        4.45513700000000        0.72117900000000
H            6.84902800000000        2.50732400000000        0.61463200000000
H           11.31559900000000       -4.96804800000000       -2.41203100000000
H           11.38320200000000       -7.43630900000000       -2.55728700000000
H           11.63132000000000       -8.79919800000000       -0.50070200000000
H           11.81212800000000       -7.68980600000000        1.70954300000000
H           11.74478600000000       -5.22256100000000        1.87104800000000
Zn          30.17624100000000       -0.04959700000000        0.00149800000000
C           33.51280400000000        0.10677800000000       -0.00212800000000
C           32.84869500000000        1.26344600000000       -0.07980500000000
C           33.49837400000000        2.56549500000000       -0.17374600000000
C           32.55654500000000        3.49039400000000       -0.18098400000000
C           31.25171600000000        2.82141200000000       -0.09048000000000
N           31.43000200000000        1.40593500000000       -0.03145000000000
C           30.06151200000000        3.45058100000000       -0.01791200000000
C           28.76788000000000        2.72868500000000        0.10132300000000
C           27.47733600000000        3.39481700000000        0.31536100000000
C           26.54262100000000        2.46670600000000        0.33287100000000
N           28.62726100000000        1.44345000000000       -0.01456200000000
C           27.22775600000000        1.19724500000000        0.12214900000000
C           26.63318300000000       -0.00097900000000       -0.00068500000000
C           27.39419699999999       -1.24960800000000       -0.23403300000000
C           26.85722900000000       -2.37613500000000       -0.68557900000000
C           27.90096399999999       -3.38176400000000       -0.68718900000000
C           29.00698200000000       -2.80452200000000       -0.23240200000000
C           30.29209000000000       -3.51678100000000       -0.01191800000000
C           30.27297000000000       -4.99705000000000        0.08185500000000
C           30.93223300000000       -5.78200400000000       -0.87938400000000
C           30.89353100000000       -7.17710600000000       -0.79478500000000
C           30.19197600000000       -7.79672400000000        0.24326400000000
C           29.52593200000000       -7.02218500000000        1.19729500000000
C           29.56272700000000       -5.62672500000000        1.11688900000000
C           31.45713800000000       -2.85126200000000        0.10579300000000
C           32.76949700000000       -3.44375600000000        0.35908800000000
C           33.63109000000000       -2.44534500000000        0.34994900000000
C           32.87810800000000       -1.21659200000000        0.10478900000000
N           31.60995700000000       -1.44068900000000       -0.03851000000000
N           28.77722199999999       -1.42793200000000        0.07468500000000
C           30.02273100000000        4.92809000000000       -0.04568900000000
C           30.12372000000000        5.61387500000000       -1.26595800000000
C           30.08562700000000        7.01148100000000       -1.28988600000000
C           29.94571200000000        7.72893700000000       -0.09800900000000
C           29.84386300000000        7.04983000000000        1.11990300000000
C           29.88224500000000        5.65233700000000        1.14809900000000
H           34.59620600000000        0.13548100000000       -0.00387200000000
H           34.56270000000000        2.75740000000000       -0.21998100000000
H           32.74197800000000        4.55550500000000       -0.23256900000000
H           27.29991700000000        4.45553300000000        0.43363600000000
H           25.48395000000000        2.64559500000000        0.46561500000000
H           25.82788900000000       -2.53119000000000       -0.97975000000000
H           27.78811400000000       -4.41650200000000       -0.98381800000000
H           31.47109200000000       -5.31290100000000       -1.69346300000000
H           31.40480300000000       -7.77793900000000       -1.53572700000000
H           30.16207500000000       -8.87676700000000        0.30672100000000
H           28.98013100000000       -7.50319600000000        1.99863600000000
H           29.04163700000000       -5.03657800000000        1.86083500000000
H           33.01434200000000       -4.48423700000000        0.52700500000000
H           34.69836600000000       -2.53363500000000        0.50513600000000
H           30.23179500000000        5.06611000000000       -2.19407800000000
H           30.16419100000000        7.53835000000000       -2.23201900000000
H           29.91607399999999        8.81065200000000       -0.11819600000000
H           29.73526600000000        7.60633400000000        2.04179400000000
H           29.80260800000000        5.13440300000000        2.09601400000000
C           16.27725600000000        0.01371100000000        0.00959100000000
C           17.73548200000000       -0.00812600000000       -0.00828300000000
C           18.86941000000000       -0.02887900000000       -0.00977300000000
C           20.23079200000000       -0.04146900000000       -0.01196400000000
C           21.50501100000000       -0.03116300000000       -0.01673000000000
C           22.69347300000000       -0.01236500000000       -0.02288600000000
C           24.04583400000000        0.01242000000000       -0.00701800000000
C           25.14610100000000        0.01371100000000        0.00959100000000
120
 energy: -199.481523707279 gnorm: 0.340971381854 xtb: 6.5.1 (b24c23e)
Zn          11.37534087112540        0.04269871234810        0.00279225099187
C            8.03431683936748       -0.09078588976628       -0.00448138696866
C            8.70327873791026       -1.26225296686833       -0.13456941260772
C            8.04845886078582       -2.55095875816611       -0.28434196509336
C            9.00122343752079       -3.48373244613739       -0.33213588465245
C           10.29411886317336       -2.81167870826053       -0.21318707060937
N           10.09490538130891       -1.42659598748974       -0.09656719142516
C           11.50258701455144       -3.44525039144042       -0.16640923961454
C           12.77301770324362       -2.75392288721392       -0.01840783220516
C           14.05484271182872       -3.42280149224124        0.16558733020504
C           15.00086353676152       -2.47634494480799        0.22439450046282
N           12.93563602773078       -1.44502111620915       -0.07062861942876
C           14.31574825400586       -1.21424135396789        0.07195471783625
C           14.92734137894162        0.01424002219144       -0.00381999919757
C           14.14548852989891        1.25298214403715       -0.17018683703540
C           14.69273547082530        2.42710114384429       -0.58496814875644
C           13.66891026440966        3.41143561261288       -0.54182259682698
C           12.53247734404308        2.80006536541590       -0.10044761782128
C           11.26998493810396        3.50332870872121        0.14062584280997
C           11.28328415833431        4.98508912813545        0.29434984378337
C           10.61723857324148        5.81293840805110       -0.62224899524314
C           10.65618377526784        7.19853707266966       -0.47833541939596
C           11.35528903321751        7.77212093246309        0.58106654179112
C           12.01813566186349        6.95865500559385        1.49708025149356
C           11.98453221257245        5.57325204259130        1.35540102990069
C           10.08841637691376        2.84168931565186        0.23031522783084
C            8.78470586369626        3.42221732830524        0.50640655150387
C            7.90475223970555        2.41460971997994        0.45455735752094
C            8.64755886948340        1.20175692416474        0.15650168900030
N            9.93280138915163        1.45174602950191        0.03058147484251
N           12.77940452732558        1.42794568998260        0.12851935857815
C           11.52982294864809       -4.92699804400104       -0.25945868679218
C           11.42379913703317       -5.55900532483958       -1.50395039115674
C           11.46178888716748       -6.94876316869927       -1.58817720422605
C           11.60158165466180       -7.71510806200728       -0.43329472054515
C           11.70289004035505       -7.09148297490001        0.80821518631229
C           11.66636855110654       -5.70226880091496        0.89715152116778
H            6.95119120880653       -0.13019235381698       -0.00824682756941
H            6.98477487544888       -2.73776974539816       -0.33892050673545
H            8.81755185060285       -4.54431335810585       -0.43008721557655
H           14.23758075923223       -4.48052648615157        0.23908175801888
H           16.06077729934183       -2.65396411647729        0.34980267538396
H           15.72073194154238        2.57693889345738       -0.87174549647923
H           13.76636106551425        4.45466241010898       -0.79403965819719
H           10.07838771485302        5.37866880757880       -1.45854103594494
H           10.14384898328306        7.83285538542586       -1.19498371052226
H           11.38530407485492        8.85100976321916        0.69151596529314
H           12.56576420590967        7.40563373594081        2.32068451507551
H           12.50433554249657        4.94927694720001        2.07524637196266
H            8.54409850793230        4.45454825877624        0.71962932101315
H            6.84306355745720        2.49940121455051        0.61390098374676
H           11.31617533376237       -4.96838753100957       -2.40856287139419
H           11.38335454241127       -7.43495655610539       -2.55519007028066
H           11.63129039176423       -8.79736344419555       -0.50062449035218
H           11.81173217891165       -7.68846495997878        1.70772917656605
H           11.74455836137231       -5.22277612447322        1.86790610575535
Zn          30.17322559752652       -0.04484586148299        0.00083862738541
C           33.51304057166820        0.08893268887610       -0.00057477475670
C           32.84407252606545        1.26470019343936       -0.07965576708864
C           33.49889885179991        2.55902207414597       -0.17334237891999
C           32.54642682212376        3.49288529212870       -0.18057346193546
C           31.25308915133774        2.81633431235010       -0.09086859791635
N           31.45237921470255        1.42748444625633       -0.03464601691044
C           30.04565162737028        3.44770816728840       -0.01680348561221
C           28.77560284794529        2.74981254672041        0.10109092258044
C           27.49075834286211        3.40939357233222        0.31426721822118
C           26.54642601610445        2.46221341588579        0.33126177953034
N           28.61817582473212        1.44776148299478       -0.00736576070311
C           27.23799467260818        1.20466775326571        0.12386174243528
C           26.65992360388718       -0.01289464296014       -0.00453668179756
C           27.40596933273628       -1.24431495221312       -0.22429854919464
C           26.85445631934429       -2.40123763864758       -0.68877410106178
C           27.87755681221034       -3.38627205685291       -0.68966915553643
C           29.01527054342075       -2.79509240779012       -0.22205175240271
C           30.27743186990839       -3.50823700017814       -0.01163869894739
C           30.26409962125857       -4.99525158588830        0.07756610353201
C           30.93013937585404       -5.78245567561420       -0.87412280588448
C           30.89121904735932       -7.17298581661624       -0.79049997453776
C           30.19210365190458       -7.79201988424621        0.24299569363995
C           29.52924571163988       -7.01910945078018        1.19346726477333
C           29.56287538926322       -5.62886920642323        1.11208982659404
C           31.45891213315687       -2.85098130015556        0.10666709641573
C           32.76275091036301       -3.44296138849221        0.35724764963064
C           33.64265418383420       -2.43408550025407        0.34920606355515
C           32.89992521236830       -1.20927733411883        0.10407079566387
N           31.61463957976789       -1.45378105597912       -0.03236324863914
N           28.77096780834699       -1.43527351302840        0.06575380961075
C           30.01763642298022        4.93190876654373       -0.04537524719606
C           30.12357791782013        5.61720442836091       -1.26123267334297
C           30.08561161432411        7.00925833961451       -1.28502713143369
C           29.94580812486322        7.72468714553341       -0.09792707576133
C           29.84447758900490        7.04777100123795        1.11535490113280
C           29.88101119497477        5.65603752516721        1.14386128512762
H           34.59618514583809        0.12845375931156       -0.00261328558015
H           34.56261250293883        2.74795478657729       -0.21977139254819
H           32.72994553389455        4.55673418053722       -0.23240590599944
H           27.30915626219749        4.46347806114117        0.43335552846764
H           25.48668805686942        2.63451557091444        0.46467921625526
H           25.82678539414622       -2.53851766778656       -0.98277250258264
H           27.78067549636685       -4.41777855271554       -0.98685229508244
H           31.46900538728548       -5.31225454819588       -1.69075199453881
H           31.40354968314127       -7.77557996022336       -1.53401923676870
H           30.16208917644644       -8.87468353394387        0.30649385754486
H           28.98162437518373       -7.50141906229223        1.99689086259481
H           29.04306556007861       -5.03671659976408        1.85834134853020
H           33.00331168030354       -4.48358379142257        0.52548160326089
H           34.70433702792224       -2.52571174861717        0.50475171801092
H           30.23123073357095        5.06631946903338       -2.19059008139839
H           30.16404303782996        7.53695711637921       -2.23000603869730
H           29.91610277871321        8.80883515452622       -0.11819574653684
H           29.73566254900022        7.60510976205448        2.03994276550861
H           29.80285601529093        5.13476848004892        2.09287140874450
C           16.30757152392455        0.02656026074781        0.00724892905577
C           17.63176854330283       -0.00521817866580       -0.00753406193079
C           18.90261270815026       -0.02917765676004       -0.00881477509506
C           20.18536244057257       -0.04192770467243       -0.01240814505301
C           21.47074221941999       -0.03080434295252       -0.01663468617184
C           22.69570001676040       -0.00968441648922       -0.02334479737063
C           24.01333764134297        0.00663442387837       -0.00795291479901
C           25.23667101129099       -0.00242786994480        0.00954373573741
120
 energy: -199.539499933889 gnorm: 0.158807859131 xtb: 6.5.1 (b24c23e)
Zn          11.38443538494442        0.03496058956428        0.00271707962757
C            8.03527311255135       -0.07201514852736       -0.00192424618475
C            8.70613319019614       -1.26473294427396       -0.13559135415622
C            8.05022600753117       -2.54472807820335       -0.28339454550510
C            9.01380172498866       -3.48497632630349       -0.33178948016297
C           10.29232642584032       -2.80687451957435       -0.21474882768468
N           10.06859781806621       -1.45118251199186       -0.10191786326754
C           11.52260441909792       -3.43816818971946       -0.16511597891577
C           12.76930512783840       -2.77427304817418       -0.01858737776371
C           14.04096305942408       -3.43697194910440        0.16127858611963
C           14.99317608697250       -2.47404043249680        0.22176956825903
N           12.95811434775382       -1.44371342723131       -0.05687035343547
C           14.31784065264161       -1.21705638375643        0.07421797924928
C           14.94489285025855        0.03206651987715       -0.00891328097883
C           14.14977340158779        1.25063966349701       -0.15893041622220
C           14.70035831355156        2.45930396429901       -0.58142081062630
C           13.70049216488184        3.41655549452458       -0.53674072184053
C           12.53463763129758        2.78986566422872       -0.08864211710597
C           11.29410809255146        3.48642970967125        0.14004612292539
C           11.30145189172315        4.97627762513437        0.28448977148767
C           10.62295269538208        5.80727251305271       -0.61769162039653
C           10.65808059597704        7.18969397389436       -0.47350552996489
C           11.35512292718248        7.76563214402863        0.58060120170034
C           12.01521995811935        6.95299221230545        1.49282716971007
C           11.98908079747845        5.57165917121757        1.34727082608775
C           10.08722898191076        2.83521661977902        0.23357052680616
C            8.79195606260549        3.41573042828665        0.50250191455021
C            7.89313634269689        2.40490161479985        0.45054419712083
C            8.62272292975742        1.19540805913271        0.15627052762128
N            9.92797635289200        1.46421041620934        0.04347958231468
N           12.80031401814746        1.43558359179120        0.11307725851927
C           11.53791775970719       -4.92729023860123       -0.25863931242954
C           11.42510655951676       -5.56032163455025       -1.49840213197969
C           11.46126910347451       -6.94590693856961       -1.58301013328628
C           11.60141779789616       -7.71157449379612       -0.43293162381049
C           11.70236830627404       -7.08915761567092        0.80429002458052
C           11.66969196420284       -5.70419511084611        0.89299261600413
H            6.95192447109937       -0.12018782345853       -0.00366468054143
H            6.98618846466859       -2.72227109358443       -0.33781236425524
H            8.84028358041571       -4.54591714574948       -0.42988468900299
H           14.22150051359996       -4.49377848353940        0.23685524557226
H           16.05380772391261       -2.63867845899643        0.34894308904272
H           15.72624876364213        2.59272136917474       -0.87651551527721
H           13.77856051232655        4.45815495728347       -0.79753511311319
H           10.08249309737594        5.37395160893746       -1.45403006731091
H           10.14526809015273        7.82484466207612       -1.19139958540553
H           11.38499359172247        8.84580525722641        0.69065179580944
H           12.56218332219679        7.40072310028348        2.31804347021541
H           12.50429274407308        4.94758201911305        2.07067452044146
H            8.56405830343550        4.45029716405907        0.71608955283913
H            6.83298999208330        2.48895585814753        0.61160698224212
H           11.31743127028375       -4.96757050142745       -2.40228396887709
H           11.38299767724676       -7.43167370016258       -2.55146990754259
H           11.63125015680690       -8.79458761921918       -0.50062408502160
H           11.81060182083023       -7.68607475382610        1.70503120021119
H           11.74519832768883       -5.22230377283527        1.86322631852168
Zn          30.16605634980375       -0.03693777278172        0.00095282309014
C           33.51230022324985        0.07010166137095        0.00115361761473
C           32.84166240090021        1.26736231196468       -0.08061011767514
C           33.49780310392918        2.55279271889185       -0.17271247856985
C           32.53486874552637        3.49437957476377       -0.18027460519814
C           31.25611021350898        2.81238678505964       -0.09264289682547
N           31.47925984800627        1.45279449840888       -0.03888238856376
C           30.02826032989100        3.44337740511853       -0.01568028816057
C           28.78300650804873        2.77511083314682        0.10223051979896
C           27.50677192525287        3.42643496163347        0.31063953603367
C           26.55818708992694        2.46122239782701        0.32899422243320
N           28.60367698252862        1.45149381090670        0.00684049866802
C           27.24596534278911        1.21333606713579        0.12772249525497
C           26.65971787651575       -0.03223685166479       -0.01181136042573
C           27.41008472154657       -1.24603257206349       -0.21504866696840
C           26.85008095219385       -2.43416969381955       -0.68654921629290
C           27.84734212925623       -3.39297826986491       -0.68433826098348
C           29.01572543958974       -2.78824457251122       -0.21043995732150
C           30.25497923221573       -3.49288813319515       -0.01161072699063
C           30.24671866875660       -4.98688078233626        0.06834624092506
C           30.92469980094349       -5.77747537670486       -0.86940733721028
C           30.88935452378800       -7.16471086054114       -0.78538426189200
C           30.19227287892441       -7.78570011989699        0.24280968928400
C           29.53212270781624       -7.01348220246124        1.18947955317802
C           29.55846300352218       -5.62721159496143        1.10409612004225
C           31.46084844358082       -2.84514651400934        0.11015928872988
C           32.75606685719336       -3.43645026396741        0.35373514835069
C           33.65462655044984       -2.42424507253842        0.34566511931669
C           32.92504280553020       -1.20303101871336        0.10414972514723
N           31.61986827830263       -1.46709691502766       -0.02007107660723
N           28.75668514027619       -1.44602220635250        0.04851711200450
C           30.01104649222500        4.93375091290247       -0.04452056591846
C           30.12259334276349        5.61901124445517       -1.25587504098253
C           30.08604861737633        7.00672877632773       -1.28016206361165
C           29.94596051315387        7.72148852628658       -0.09773704223765
C           29.84490322624946        7.04612170890631        1.11141731757693
C           29.87798410606952        5.65883076344269        1.13994205548119
H           34.59561887847150        0.11823344267393        0.00152279851780
H           34.56176510488336        2.73230476079718       -0.21936100378645
H           32.70783422325457        4.55857529342935       -0.23216960698832
H           27.32545213833000        4.47858138007671        0.43169961064804
H           25.49652849660843        2.61758283834439        0.46274977784235
H           25.82342701750676       -2.55260567608077       -0.98737326045779
H           27.76839953664982       -4.42192814634149       -0.99028519147305
H           31.46499085555147       -5.30794659222003       -1.68608932797557
H           31.40215564310966       -7.76800283611965       -1.53017874096310
H           30.16237716769328       -8.86959324664598        0.30587013860449
H           28.98514834462486       -7.49652302018024        1.99449086692190
H           29.04322469386321       -5.03489807255411        1.85377226364120
H           32.98372928081981       -4.47931176788077        0.52218377163630
H           34.71470888864880       -2.51512977447461        0.50292875588455
H           30.23007693354506        5.06550305931547       -2.18437290907702
H           30.16434064345236        7.53392461670268       -2.22660108949857
H           29.91613298601507        8.80634738563540       -0.11831615104406
H           29.73670565114654        7.60318710514512        2.03725167630492
H           29.80233731910277        5.13473695829408        2.08810422513131
C           16.36121572246987        0.04570013915908       -0.00144342159694
C           17.55332929676421        0.00321367204516       -0.00773976500931
C           18.88844280150266       -0.02501801280364       -0.00641019835105
C           20.12147629534319       -0.03955538589716       -0.01338672504208
C           21.44833434918920       -0.02851302561503       -0.01462949823590
C           22.69671481870418       -0.00655520742831       -0.02332318935842
C           24.02255583140931       -0.00950892432784       -0.01171378886390
C           25.26087542925776       -0.03764975559165        0.00645082658000
120
 energy: -199.557576898970 gnorm: 0.074853954592 xtb: 6.5.1 (b24c23e)
Zn          11.39044337134464        0.02866509944076        0.00423655958211
C            8.03247796620807       -0.06430986940437        0.00129146406630
C            8.70222263131521       -1.26931404596396       -0.13737721376058
C            8.04960153726409       -2.54463296716651       -0.28376082888478
C            9.01964206558580       -3.48803288430584       -0.33323608725409
C           10.28720187613016       -2.80805317693136       -0.21755691735795
N           10.05209316020105       -1.46584022780143       -0.10692811548473
C           11.52809831529520       -3.43818240327031       -0.16338106826274
C           12.76075539450663       -2.79123558698445       -0.01412226765426
C           14.03062910621122       -3.44604298874462        0.15498645896319
C           14.97620463931192       -2.46883129072739        0.21680022051045
N           12.94986626751603       -1.44894854278341       -0.03892360180176
C           14.29086053010269       -1.21497006810851        0.07978932431332
C           14.89523696741758        0.05095936670214       -0.01244552104406
C           14.14123759573094        1.26313881901795       -0.15888788159662
C           14.71225967247824        2.49064903146906       -0.56856885178145
C           13.72925457527632        3.43594414055965       -0.52149468552775
C           12.54356380638486        2.79579809992386       -0.08259964035031
C           11.31266179995672        3.47152787259407        0.13927330149755
C           11.32264817385554        4.96254489288512        0.27322392498147