      -----------------------------------------------------------      
     |                   =====================                   |     
     |                           x T B                           |     
     |                   =====================                   |     
     |                         S. Grimme                         |     
     |          Mulliken Center for Theoretical Chemistry        |     
     |                    University of Bonn                     |     
      -----------------------------------------------------------      

   * xtb version 6.5.1 (b24c23e) compiled by 'conda@728c89f4b128' on 2022-07-12

   xtb is free software: you can redistribute it and/or modify it under
   the terms of the GNU Lesser General Public License as published by
   the Free Software Foundation, either version 3 of the License, or
   (at your option) any later version.
   
   xtb is distributed in the hope that it will be useful,
   but WITHOUT ANY WARRANTY; without even the implied warranty of
   MERCHANTABILITY or FITNESS FOR A PARTICULAR PURPOSE.  See the
   GNU Lesser General Public License for more details.
   
   Cite this work as:
   * C. Bannwarth, E. Caldeweyher, S. Ehlert, A. Hansen, P. Pracht,
     J. Seibert, S. Spicher, S. Grimme, WIREs Comput. Mol. Sci., 2020, 11,
     e01493. DOI: 10.1002/wcms.1493
   
   for GFN2-xTB:
   * C. Bannwarth, S. Ehlert and S. Grimme., J. Chem. Theory Comput., 2019,
     15, 1652-1671. DOI: 10.1021/acs.jctc.8b01176
   for GFN1-xTB:
   * S. Grimme, C. Bannwarth, P. Shushkov, J. Chem. Theory Comput., 2017,
     13, 1989-2009. DOI: 10.1021/acs.jctc.7b00118
   for GFN0-xTB:
   * P. Pracht, E. Caldeweyher, S. Ehlert, S. Grimme, ChemRxiv, 2019, preprint.
     DOI: 10.26434/chemrxiv.8326202.v1
   for GFN-FF:
   * S. Spicher and S. Grimme, Angew. Chem. Int. Ed., 2020, 59, 15665-15673.
     DOI: 10.1002/anie.202004239
   
   for ALPB and GBSA implicit solvation:
   * S. Ehlert, M. Stahn, S. Spicher, S. Grimme, J. Chem. Theory Comput.,
     2021, 17, 4250-4261. DOI: 10.1021/acs.jctc.1c00471
   
   for DFT-D4:
   * E. Caldeweyher, C. Bannwarth and S. Grimme, J. Chem. Phys., 2017,
     147, 034112. DOI: 10.1063/1.4993215
   * E. Caldeweyher, S. Ehlert, A. Hansen, H. Neugebauer, S. Spicher,
     C. Bannwarth and S. Grimme, J. Chem. Phys., 2019, 150, 154122.
     DOI: 10.1063/1.5090222
   * E. Caldeweyher, J.-M. Mewes, S. Ehlert and S. Grimme, Phys. Chem. Chem. Phys.
     2020, 22, 8499-8512. DOI: 10.1039/D0CP00502A
   
   for sTDA-xTB:
   * S. Grimme and C. Bannwarth, J. Chem. Phys., 2016, 145, 054103.
     DOI: 10.1063/1.4959605
   
   in the mass-spec context:
   * V. Asgeirsson, C. Bauer and S. Grimme, Chem. Sci., 2017, 8, 4879.
     DOI: 10.1039/c7sc00601b
   * J. Koopman and S. Grimme, ACS Omega 2019, 4, 12, 15120-15133.
     DOI: 10.1021/acsomega.9b02011
   
   for metadynamics refer to:
   * S. Grimme, J. Chem. Theory Comput., 2019, 155, 2847-2862
     DOI: 10.1021/acs.jctc.9b00143
   
   for SPH calculations refer to:
   * S. Spicher and S. Grimme, J. Chem. Theory Comput., 2021, 17, 1701-1714
     DOI: 10.1021/acs.jctc.0c01306
   
   with help from (in alphabetical order)
   P. Atkinson, C. Bannwarth, F. Bohle, G. Brandenburg, E. Caldeweyher
   M. Checinski, S. Dohm, S. Ehlert, S. Ehrlich, I. Gerasimov, C. Hölzer
   A. Katbashev, J. Koopman, C. Lavigne, S. Lehtola, F. März, M. Müller,
   F. Musil, H. Neugebauer, J. Pisarek, C. Plett, P. Pracht, F. Pultar,
   J. Seibert, P. Shushkov, S. Spicher, M. Stahn, M. Steiner, T. Strunk,
   J. Stückrath, T. Rose, and J. Unsleber
   
 * started run on 2022/07/30 at 02:04:03.706     

           -------------------------------------------------
          |                Calculation Setup                |
           -------------------------------------------------

          program call               : xtb Ni_H_C2_2.xyz --gfn 1 --opt -T 48
          hostname                   : cx3-14-19.cx3.hpc.ic.ac.uk
          coordinate file            : Ni_H_C2_2.xyz
          omp threads                :                     1

   ID    Z sym.   atoms
    1   28 Ni     1, 37
    2    6 C      2-6, 8-11, 13-18, 20-24, 38-42, 44-47, 49-54, 56-60, 73, 74
    3    7 N      7, 12, 19, 25, 43, 48, 55, 61
    4    1 H      26-36, 62-72
########################################################################
[WARNING] Please study the warnings concerning your input carefully
-1- prog_main_parseArguments: Unknown option '-T' provided
########################################################################

           -------------------------------------------------
          |                 G F N 1 - x T B                 |
           -------------------------------------------------

        Reference                      10.1021/acs.jctc.7b00118
      * Hamiltonian:
        H0-scaling (s, p, d)           1.850000    2.250000    2.000000
        zeta-weighting                 0.000000
      * Dispersion:
        s8                             2.400000
        a1                             0.630000
        a2                             5.000000
        s9                             0.000000
      * Repulsion:
        kExp                           1.500000
        rExp                           1.000000
      * Coulomb:
        alpha                          2.000000
        third order                    atomic
        anisotropic                    false
      * Halogen bond correction:
        rad-scale                      1.300000
        damping                        0.440000


          ...................................................
          :                      SETUP                      :
          :.................................................:
          :  # basis functions                 264          :
          :  # atomic orbitals                 262          :
          :  # shells                          150          :
          :  # electrons                       250          :
          :  # halogen bonds                     0          :
          :  max. iterations                   250          :
          :  Hamiltonian                  GFN1-xTB          :
          :  restarted?                      false          :
          :  GBSA solvation                  false          :
          :  PC potential                    false          :
          :  electronic temp.          300.0000000     K    :
          :  accuracy                    1.0000000          :
          :  -> integral cutoff          0.2500000E+02      :
          :  -> integral neglect         0.1000000E-07      :
          :  -> SCF convergence          0.1000000E-05 Eh   :
          :  -> wf. convergence          0.2000000E-04 e    :
          :  Broyden damping             0.4000000          :
          ...................................................

 iter      E             dE          RMSdq      gap      omega  full diag
   1   -135.9647355 -0.135965E+03  0.109E+01    0.50       0.0  T
   2   -135.7044124  0.260323E+00  0.674E+00    0.26       1.0  T
   3   -134.5878567  0.111656E+01  0.454E+00    0.12       1.0  T
   4   -135.9027358 -0.131488E+01  0.161E+00    0.68       1.0  T
   5   -136.2987933 -0.396057E+00  0.774E-01    1.34       1.0  T
   6   -136.3153260 -0.165327E-01  0.536E-01    1.24       1.0  T
   7   -136.3234996 -0.817355E-02  0.355E-01    1.28       1.0  T
   8   -136.3260959 -0.259634E-02  0.132E-01    1.25       1.0  T
   9   -136.3268643 -0.768407E-03  0.297E-02    1.23       1.0  T
  10   -136.3269242 -0.599246E-04  0.125E-02    1.23       1.0  T
  11   -136.3269306 -0.634523E-05  0.373E-03    1.22       3.1  T
  12   -136.3269316 -0.104908E-05  0.122E-03    1.22       9.5  T
  13   -136.3269318 -0.163602E-06  0.743E-04    1.22      15.6  T
  14   -136.3269318 -0.150035E-07  0.215E-04    1.22      54.1  T
  15   -136.3269318 -0.176712E-08  0.100E-04    1.22     116.3  T
  16   -136.3269318 -0.684480E-09  0.147E-05    1.22     792.9  T

   *** convergence criteria satisfied after 16 iterations ***

         #    Occupation            Energy/Eh            Energy/eV
      -------------------------------------------------------------
         1        2.0000           -0.7800741             -21.2269
       ...           ...                  ...                  ...
       119        2.0000           -0.3962665             -10.7830
       120        2.0000           -0.3962280             -10.7819
       121        2.0000           -0.3954414             -10.7605
       122        2.0000           -0.3954368             -10.7604
       123        2.0000           -0.3941189             -10.7245
       124        2.0000           -0.3849418             -10.4748
       125        2.0000           -0.3833297             -10.4309 (HOMO)
       126                         -0.3383976              -9.2083 (LUMO)
       127                         -0.3332602              -9.0685
       128                         -0.3332590              -9.0684
       129                         -0.3298817              -8.9765
       130                         -0.3276281              -8.9152
       ...                                ...                  ...
       262                          1.2744654              34.6800
      -------------------------------------------------------------
                  HL-Gap            0.0449322 Eh            1.2227 eV
             Fermi-level           -0.3607881 Eh           -9.8175 eV

 SCC (total)                   0 d,  0 h,  0 min,  0.619 sec
 SCC setup                      ...        0 min,  0.002 sec (  0.380%)
 Dispersion                     ...        0 min,  0.002 sec (  0.300%)
 classical contributions        ...        0 min,  0.001 sec (  0.123%)
 integral evaluation            ...        0 min,  0.095 sec ( 15.351%)
 iterations                     ...        0 min,  0.292 sec ( 47.258%)
 molecular gradient             ...        0 min,  0.221 sec ( 35.701%)
 printout                       ...        0 min,  0.005 sec (  0.883%)

         :::::::::::::::::::::::::::::::::::::::::::::::::::::
         ::                     SUMMARY                     ::
         :::::::::::::::::::::::::::::::::::::::::::::::::::::
         :: total energy            -134.300622101623 Eh    ::
         :: gradient norm              0.384597226349 Eh/a0 ::
         :: HOMO-LUMO gap              1.222666632247 eV    ::
         ::.................................................::
         :: SCC energy              -136.326931814455 Eh    ::
         :: -> electrostatic           0.099544203175 Eh    ::
         :: repulsion energy           2.090464947117 Eh    ::
         :: dispersion energy         -0.064155234285 Eh    ::
         :: halogen bond corr.         0.000000000000 Eh    ::
         :: add. restraining           0.000000000000 Eh    ::
         :: total charge               0.000000000019 e     ::
         :::::::::::::::::::::::::::::::::::::::::::::::::::::

      ----------------------------------------------------------- 
     |                   =====================                   |
     |                        A N C O P T                        |
     |                   =====================                   |
     |               Approximate Normal Coordinate               |
     |                Rational Function Optimizer                |
      ----------------------------------------------------------- 

          ...................................................
          :                      SETUP                      :
          :.................................................:
          :   optimization level            normal          :
          :   max. optcycles                   222          :
          :   ANC micro-cycles                  20          :
          :   degrees of freedom               216          :
          :.................................................:
          :   RF solver                   davidson          :
          :   write xtbopt.log                true          :
          :   linear?                        false          :
          :   energy convergence         0.5000000E-05 Eh   :
          :   grad. convergence          0.1000000E-02 Eh/α :
          :   maximium RF displ.         1.0000000          :
          :   Hlow (freq-cutoff)         0.1000000E-01      :
          :   Hmax (freq-cutoff)         5.0000000          :
          :   S6 in model hess.         20.0000000          :
          ...................................................

generating ANC from model Hessian ...
Using Lindh-Hessian (1995)
 Shifting diagonal of input Hessian by    1.0024508102455388E-002
 Lowest  eigenvalues of input Hessian
    0.010000    0.000000    0.000000    0.000000    0.000000    0.000000
    0.000000    0.010053    0.010087    0.010531    0.010891    0.010912
    0.011165    0.011807    0.011956    0.012722    0.012909    0.012972
 Highest eigenvalues
    2.103904    2.106803    2.108939    2.144635    2.144655    2.537502


........................................................................
.............................. CYCLE    1 ..............................
........................................................................
   1   -136.3269318 -0.136327E+03  0.443E-06    1.22       0.0  T
   2   -136.3269318 -0.767386E-12  0.182E-06    1.22    6376.0  T
   3   -136.3269318  0.227374E-12  0.141E-06    1.22    8268.4  T
     SCC iter.                  ...        0 min,  0.057 sec
     gradient                   ...        0 min,  0.220 sec
 * total energy  :  -134.3006221 Eh     change       -0.1554668E-10 Eh
   gradient norm :     0.3845975 Eh/α   predicted     0.0000000E+00 (-100.00%)
   displ. norm   :     0.3645074 α      lambda       -0.9171209E-01
   maximum displ.:     0.1587484 α      in ANC's #73, #39, #210, ...

........................................................................
.............................. CYCLE    2 ..............................
........................................................................
   1   -136.3293056 -0.136329E+03  0.182E-01    1.29       0.0  T
   2   -136.3318889 -0.258326E-02  0.827E-02    1.30       1.0  T
   3   -136.3331626 -0.127376E-02  0.377E-02    1.31       1.0  T
   4   -136.3334341 -0.271418E-03  0.156E-02    1.30       1.0  T
   5   -136.3334529 -0.188513E-04  0.106E-02    1.31       1.1  T
   6   -136.3334711 -0.181877E-04  0.299E-03    1.31       3.9  T
   7   -136.3334727 -0.164545E-05  0.987E-04    1.31      11.8  T
   8   -136.3334729 -0.152106E-06  0.444E-04    1.31      26.2  T
   9   -136.3334729 -0.215885E-07  0.110E-04    1.31     106.1  T
  10   -136.3334729 -0.158522E-08  0.201E-05    1.31     579.0  T
     SCC iter.                  ...        0 min,  0.184 sec
     gradient                   ...        0 min,  0.220 sec
 * total energy  :  -134.3719198 Eh     change       -0.7129773E-01 Eh
   gradient norm :     0.2172379 Eh/α   predicted    -0.5196036E-01 ( -27.12%)
   displ. norm   :     0.4419437 α      lambda       -0.6395786E-01
   maximum displ.:     0.1525853 α      in ANC's #39, #73, #210, ...

........................................................................
.............................. CYCLE    3 ..............................
........................................................................
   1   -136.3731824 -0.136373E+03  0.219E-01    1.38       0.0  T
   2   -136.3758677 -0.268539E-02  0.101E-01    1.37       1.0  T
   3   -136.3776041 -0.173636E-02  0.552E-02    1.38       1.0  T
   4   -136.3784396 -0.835522E-03  0.226E-02    1.38       1.0  T
   5   -136.3784939 -0.542863E-04  0.120E-02    1.38       1.0  T
   6   -136.3785103 -0.164051E-04  0.503E-03    1.38       2.3  T
   7   -136.3785173 -0.693813E-05  0.105E-03    1.38      11.1  T
   8   -136.3785174 -0.158245E-06  0.427E-04    1.38      27.3  T
   9   -136.3785174 -0.121326E-07  0.126E-04    1.38      92.2  T
  10   -136.3785174 -0.212364E-08  0.243E-05    1.38     478.4  T
     SCC iter.                  ...        0 min,  0.182 sec
     gradient                   ...        0 min,  0.222 sec
 * total energy  :  -134.4109580 Eh     change       -0.3903818E-01 Eh
   gradient norm :     0.0546197 Eh/α   predicted    -0.3822507E-01 (  -2.08%)
   displ. norm   :     0.4332544 α      lambda       -0.1095279E-01
   maximum displ.:     0.2358049 α      in ANC's #39, #12, #34, ...

........................................................................
.............................. CYCLE    4 ..............................
........................................................................
   1   -136.4115207 -0.136412E+03  0.616E-02    1.39       0.0  T
   2   -136.4116042 -0.835153E-04  0.303E-02    1.39       1.0  T
   3   -136.4117120 -0.107829E-03  0.196E-02    1.39       1.0  T
   4   -136.4118403 -0.128287E-03  0.922E-03    1.39       1.3  T
   5   -136.4118475 -0.718985E-05  0.350E-03    1.39       3.3  T
   6   -136.4118495 -0.202689E-05  0.125E-03    1.39       9.3  T
   7   -136.4118500 -0.425853E-06  0.303E-04    1.39      38.4  T
   8   -136.4118500 -0.811642E-08  0.126E-04    1.39      92.4  T
   9   -136.4118500 -0.130774E-08  0.308E-05    1.39     377.3  T
     SCC iter.                  ...        0 min,  0.165 sec
     gradient                   ...        0 min,  0.221 sec
 * total energy  :  -134.4188751 Eh     change       -0.7917088E-02 Eh
   gradient norm :     0.0290684 Eh/α   predicted    -0.6504851E-02 ( -17.84%)
   displ. norm   :     0.4919468 α      lambda       -0.5885486E-02
   maximum displ.:     0.3080711 α      in ANC's #12, #39, #10, ...

........................................................................
.............................. CYCLE    5 ..............................
........................................................................
   1   -136.4320321 -0.136432E+03  0.290E-02    1.39       0.0  T
   2   -136.4320468 -0.146659E-04  0.166E-02    1.39       1.0  T
   3   -136.4320756 -0.288292E-04  0.893E-03    1.39       1.3  T
   4   -136.4320962 -0.206300E-04  0.627E-03    1.39       1.9  T
   5   -136.4321012 -0.491241E-05  0.195E-03    1.39       6.0  T
   6   -136.4321019 -0.775941E-06  0.382E-04    1.39      30.5  T
   7   -136.4321020 -0.302794E-07  0.153E-04    1.39      76.0  T
   8   -136.4321020 -0.403833E-08  0.560E-05    1.39     207.7  T
     SCC iter.                  ...        0 min,  0.145 sec
     gradient                   ...        0 min,  0.221 sec
 * total energy  :  -134.4230235 Eh     change       -0.4148361E-02 Eh
   gradient norm :     0.0190424 Eh/α   predicted    -0.3655078E-02 ( -11.89%)
   displ. norm   :     0.4625671 α      lambda       -0.2687697E-02
   maximum displ.:     0.3535500 α      in ANC's #12, #10, #39, ...

........................................................................
.............................. CYCLE    6 ..............................
........................................................................
   1   -136.4438070 -0.136444E+03  0.142E-02    1.39       0.0  T
   2   -136.4438177 -0.107150E-04  0.748E-03    1.39       1.6  T
   3   -136.4438223 -0.462402E-05  0.382E-03    1.39       3.0  T
   4   -136.4438223  0.528630E-07  0.271E-03    1.39       4.3  T
   5   -136.4438227 -0.423426E-06  0.136E-03    1.39       8.6  T
   6   -136.4438234 -0.719196E-06  0.172E-04    1.39      67.7  T
   7   -136.4438234 -0.383744E-08  0.513E-05    1.39     226.7  T
     SCC iter.                  ...        0 min,  0.129 sec
     gradient                   ...        0 min,  0.220 sec
 * total energy  :  -134.4250036 Eh     change       -0.1980174E-02 Eh
   gradient norm :     0.0142494 Eh/α   predicted    -0.1631392E-02 ( -17.61%)
   displ. norm   :     0.4324005 α      lambda       -0.1548145E-02
   maximum displ.:     0.3489392 α      in ANC's #12, #10, #39, ...

........................................................................
.............................. CYCLE    7 ..............................
........................................................................
   1   -136.4509797 -0.136451E+03  0.107E-02    1.38       0.0  T
   2   -136.4509845 -0.485265E-05  0.486E-03    1.38       2.4  T
   3   -136.4509871 -0.257587E-05  0.366E-03    1.38       3.2  T
   4   -136.4509891 -0.200688E-05  0.154E-03    1.38       7.5  T
   5   -136.4509891  0.438142E-07  0.973E-04    1.38      12.0  T
   6   -136.4509893 -0.219416E-06  0.209E-04    1.38      55.6  T
   7   -136.4509893 -0.118120E-07  0.676E-05    1.38     172.0  T
   8   -136.4509893 -0.793193E-09  0.247E-05    1.38     471.5  T
     SCC iter.                  ...        0 min,  0.147 sec
     gradient                   ...        0 min,  0.220 sec
 * total energy  :  -134.4261458 Eh     change       -0.1142146E-02 Eh
   gradient norm :     0.0093878 Eh/α   predicted    -0.9188031E-03 ( -19.55%)
   displ. norm   :     0.3249876 α      lambda       -0.7593861E-03
   maximum displ.:     0.2546953 α      in ANC's #12, #10, #7, ...

........................................................................
.............................. CYCLE    8 ..............................
........................................................................
   1   -136.4548780 -0.136455E+03  0.746E-03    1.38       0.0  T
   2   -136.4548794 -0.138628E-05  0.367E-03    1.38       3.2  T
   3   -136.4548811 -0.174533E-05  0.262E-03    1.38       4.4  T
   4   -136.4548829 -0.177277E-05  0.944E-04    1.38      12.3  T
   5   -136.4548829 -0.727465E-08  0.452E-04    1.38      25.7  T
   6   -136.4548829 -0.314342E-07  0.123E-04    1.38      94.8  T
   7   -136.4548829 -0.334549E-08  0.453E-05    1.38     256.4  T
     SCC iter.                  ...        0 min,  0.128 sec
     gradient                   ...        0 min,  0.221 sec
 * total energy  :  -134.4267040 Eh     change       -0.5582697E-03 Eh
   gradient norm :     0.0070102 Eh/α   predicted    -0.4198035E-03 ( -24.80%)
   displ. norm   :     0.2499079 α      lambda       -0.3621538E-03
   maximum displ.:     0.1845106 α      in ANC's #12, #10, #7, ...

........................................................................
.............................. CYCLE    9 ..............................
........................................................................
   1   -136.4573449 -0.136457E+03  0.522E-03    1.38       0.0  T
   2   -136.4573461 -0.124590E-05  0.261E-03    1.38       4.5  T
   3   -136.4573467 -0.577605E-06  0.142E-03    1.38       8.2  T
   4   -136.4573469 -0.246564E-06  0.845E-04    1.38      13.8  T
   5   -136.4573470 -0.840870E-07  0.337E-04    1.38      34.5  T
   6   -136.4573470 -0.220979E-07  0.755E-05    1.38     153.9  T
   7   -136.4573470 -0.128421E-08  0.270E-05    1.38     430.7  T
     SCC iter.                  ...        0 min,  0.127 sec
     gradient                   ...        0 min,  0.221 sec
 * total energy  :  -134.4269545 Eh     change       -0.2504495E-03 Eh
   gradient norm :     0.0054061 Eh/α   predicted    -0.1923875E-03 ( -23.18%)
   displ. norm   :     0.1669639 α      lambda       -0.1394129E-03
   maximum displ.:     0.1122314 α      in ANC's #12, #10, #7, ...

........................................................................
.............................. CYCLE   10 ..............................
........................................................................
   1   -136.4588445 -0.136459E+03  0.360E-03    1.38       0.0  T
   2   -136.4588452 -0.697648E-06  0.177E-03    1.38       6.6  T
   3   -136.4588455 -0.316010E-06  0.873E-04    1.38      13.3  T
   4   -136.4588456 -0.754926E-07  0.574E-04    1.38      20.3  T
   5   -136.4588456 -0.343480E-07  0.135E-04    1.38      86.3  T
   6   -136.4588456 -0.239547E-08  0.595E-05    1.38     195.5  T
     SCC iter.                  ...        0 min,  0.110 sec
     gradient                   ...        0 min,  0.220 sec
 * total energy  :  -134.4270327 Eh     change       -0.7816959E-04 Eh
   gradient norm :     0.0038964 Eh/α   predicted    -0.7165086E-04 (  -8.34%)
   displ. norm   :     0.1598051 α      lambda       -0.1142684E-03
   maximum displ.:     0.0916729 α      in ANC's #12, #10, #6, ...

........................................................................
.............................. CYCLE   11 ..............................
........................................................................
   1   -136.4601177 -0.136460E+03  0.364E-03    1.37       0.0  T
   2   -136.4601183 -0.576607E-06  0.193E-03    1.37       6.0  T
   3   -136.4601189 -0.535345E-06  0.981E-04    1.37      11.9  T
   4   -136.4601191 -0.203845E-06  0.576E-04    1.37      20.2  T
   5   -136.4601191 -0.242737E-07  0.206E-04    1.37      56.5  T
   6   -136.4601191 -0.962072E-08  0.975E-05    1.37     119.2  T
   7   -136.4601191 -0.312480E-08  0.180E-05    1.37     645.8  T
     SCC iter.                  ...        0 min,  0.128 sec
     gradient                   ...        0 min,  0.217 sec
 * total energy  :  -134.4270371 Eh     change       -0.4383204E-05 Eh
   gradient norm :     0.0039406 Eh/α   predicted    -0.5859389E-04 (1236.78%)
   displ. norm   :     0.0555012 α      lambda       -0.7993120E-04
   maximum displ.:     0.0390751 α      in ANC's #12, #10, #32, ...

........................................................................
.............................. CYCLE   12 ..............................
........................................................................
   1   -136.4598622 -0.136460E+03  0.145E-03    1.37       0.0  T
   2   -136.4598623 -0.100614E-06  0.757E-04    1.37      15.3  T
   3   -136.4598623 -0.561454E-07  0.363E-04    1.37      32.1  T
   4   -136.4598623 -0.108672E-07  0.245E-04    1.37      47.5  T
   5   -136.4598624 -0.597274E-08  0.995E-05    1.37     116.8  T
   6   -136.4598624 -0.260061E-08  0.255E-05    1.37     456.0  T
     SCC iter.                  ...        0 min,  0.109 sec
     gradient                   ...        0 min,  0.218 sec
 * total energy  :  -134.4270870 Eh     change       -0.4993918E-04 Eh
   gradient norm :     0.0020032 Eh/α   predicted    -0.4008928E-04 ( -19.72%)
   displ. norm   :     0.0442818 α      lambda       -0.2548771E-04
   maximum displ.:     0.0279300 α      in ANC's #6, #1, #12, ...

........................................................................
.............................. CYCLE   13 ..............................
........................................................................
   1   -136.4598338 -0.136460E+03  0.105E-03    1.37       0.0  T
   2   -136.4598339 -0.363397E-07  0.573E-04    1.37      20.3  T
   3   -136.4598339 -0.387089E-07  0.284E-04    1.37      40.9  T
   4   -136.4598339 -0.129347E-07  0.193E-04    1.37      60.4  T
   5   -136.4598339 -0.416955E-08  0.626E-05    1.37     185.7  T
     SCC iter.                  ...        0 min,  0.092 sec
     gradient                   ...        0 min,  0.218 sec
 * total energy  :  -134.4271075 Eh     change       -0.2046815E-04 Eh
   gradient norm :     0.0013713 Eh/α   predicted    -0.1276966E-04 ( -37.61%)
   displ. norm   :     0.1506566 α      lambda       -0.3854116E-04
   maximum displ.:     0.0975555 α      in ANC's #6, #1, #7, ...

........................................................................
.............................. CYCLE   14 ..............................
........................................................................
   1   -136.4598370 -0.136460E+03  0.237E-03    1.37       0.0  T
   2   -136.4598372 -0.236894E-06  0.120E-03    1.37       9.7  T
   3   -136.4598374 -0.161676E-06  0.581E-04    1.37      20.0  T
   4   -136.4598374 -0.368145E-07  0.401E-04    1.37      29.0  T
   5   -136.4598374 -0.137343E-07  0.152E-04    1.37      76.2  T
   6   -136.4598374 -0.729906E-08  0.315E-05    1.37     368.8  T
     SCC iter.                  ...        0 min,  0.108 sec
     gradient                   ...        0 min,  0.217 sec
 * total energy  :  -134.4271446 Eh     change       -0.3713039E-04 Eh
   gradient norm :     0.0022868 Eh/α   predicted    -0.1946918E-04 ( -47.57%)
   displ. norm   :     0.0872062 α      lambda       -0.2317208E-04
   maximum displ.:     0.0546236 α      in ANC's #6, #1, #7, ...

........................................................................
.............................. CYCLE   15 ..............................
........................................................................
   1   -136.4599549 -0.136460E+03  0.501E-04    1.37       0.0  T
   2   -136.4599549 -0.121913E-07  0.297E-04    1.37      39.1  T
   3   -136.4599549 -0.138428E-07  0.147E-04    1.37      79.3  T
   4   -136.4599549 -0.354026E-08  0.808E-05    1.37     143.9  T
     SCC iter.                  ...        0 min,  0.073 sec
     gradient                   ...        0 min,  0.217 sec
 * total energy  :  -134.4271649 Eh     change       -0.2027256E-04 Eh
   gradient norm :     0.0021456 Eh/α   predicted    -0.1167805E-04 ( -42.39%)
   displ. norm   :     0.1892212 α      lambda       -0.5139849E-04
   maximum displ.:     0.1163647 α      in ANC's #6, #1, #7, ...

........................................................................
.............................. CYCLE   16 ..............................
........................................................................
   1   -136.4600458 -0.136460E+03  0.121E-03    1.36       0.0  T
   2   -136.4600458 -0.319119E-09  0.892E-04    1.36      13.0  T
   3   -136.4600460 -0.172534E-06  0.369E-04    1.36      31.5  T
   4   -136.4600460 -0.297843E-07  0.225E-04    1.36      51.7  T
   5   -136.4600461 -0.502428E-08  0.927E-05    1.36     125.4  T
   6   -136.4600461 -0.164295E-08  0.266E-05    1.36     436.6  T
     SCC iter.                  ...        0 min,  0.108 sec
     gradient                   ...        0 min,  0.218 sec
 * total energy  :  -134.4271972 Eh     change       -0.3229717E-04 Eh
   gradient norm :     0.0018529 Eh/α   predicted    -0.2661984E-04 ( -17.58%)
   displ. norm   :     0.2812412 α      lambda       -0.4741263E-04
   maximum displ.:     0.1748520 α      in ANC's #6, #1, #7, ...

........................................................................
.............................. CYCLE   17 ..............................
........................................................................
   1   -136.4597736 -0.136460E+03  0.173E-03    1.36       0.0  T
   2   -136.4597736  0.128944E-07  0.124E-03    1.36       9.4  T
   3   -136.4597739 -0.291207E-06  0.511E-04    1.36      22.8  T
   4   -136.4597740 -0.649147E-07  0.368E-04    1.36      31.6  T
   5   -136.4597740 -0.171732E-07  0.109E-04    1.36     106.3  T
   6   -136.4597740 -0.204804E-08  0.385E-05    1.36     302.3  T
     SCC iter.                  ...        0 min,  0.108 sec
     gradient                   ...        0 min,  0.219 sec
 * total energy  :  -134.4272287 Eh     change       -0.3151022E-04 Eh
   gradient norm :     0.0024582 Eh/α   predicted    -0.2454011E-04 ( -22.12%)
   displ. norm   :     0.0629637 α      lambda       -0.2038402E-04
   maximum displ.:     0.0408121 α      in ANC's #6, #1, #7, ...

........................................................................
.............................. CYCLE   18 ..............................
........................................................................
   1   -136.4598906 -0.136460E+03  0.406E-04    1.36       0.0  T
   2   -136.4598906 -0.664755E-08  0.229E-04    1.36      50.7  T
   3   -136.4598906 -0.922122E-08  0.111E-04    1.36     105.1  T
   4   -136.4598906 -0.214516E-08  0.538E-05    1.36     216.0  T
     SCC iter.                  ...        0 min,  0.072 sec
     gradient                   ...        0 min,  0.219 sec
 * total energy  :  -134.4272461 Eh     change       -0.1741297E-04 Eh
   gradient norm :     0.0018545 Eh/α   predicted    -0.1023317E-04 ( -41.23%)
   displ. norm   :     0.1570256 α      lambda       -0.3624063E-04
   maximum displ.:     0.0974678 α      in ANC's #1, #6, #12, ...

........................................................................
.............................. CYCLE   19 ..............................
........................................................................
   1   -136.4599742 -0.136460E+03  0.194E-03    1.36       0.0  T
   2   -136.4599743 -0.132489E-06  0.127E-03    1.36       9.2  T
   3   -136.4599746 -0.298348E-06  0.545E-04    1.36      21.3  T
   4   -136.4599747 -0.533180E-07  0.307E-04    1.36      37.9  T
   5   -136.4599747 -0.443154E-08  0.167E-04    1.36      69.6  T
   6   -136.4599747 -0.558651E-08  0.437E-05    1.36     265.7  T
     SCC iter.                  ...        0 min,  0.107 sec
     gradient                   ...        0 min,  0.218 sec
 * total energy  :  -134.4272765 Eh     change       -0.3040808E-04 Eh
   gradient norm :     0.0017354 Eh/α   predicted    -0.1832058E-04 ( -39.75%)
   displ. norm   :     0.0900947 α      lambda       -0.1119237E-04
   maximum displ.:     0.0597923 α      in ANC's #1, #6, #2, ...

........................................................................
.............................. CYCLE   20 ..............................
........................................................................
   1   -136.4592643 -0.136459E+03  0.515E-04    1.35       0.0  T
   2   -136.4592643 -0.129840E-07  0.308E-04    1.35      37.8  T
   3   -136.4592643 -0.614716E-08  0.148E-04    1.35      78.4  T
   4   -136.4592643  0.463785E-09  0.124E-04    1.35      93.5  T
     SCC iter.                  ...        0 min,  0.073 sec
     gradient                   ...        0 min,  0.218 sec
 * total energy  :  -134.4272912 Eh     change       -0.1471917E-04 Eh
   gradient norm :     0.0012333 Eh/α   predicted    -0.5619731E-05 ( -61.82%)
   displ. norm   :     0.1271897 α      lambda       -0.1859928E-04
   maximum displ.:     0.0856364 α      in ANC's #1, #6, #2, ...
 * RMSD in coord.:     0.3698616 α      energy gain  -0.1266691E+00 Eh

generating ANC from model Hessian ...
Using Lindh-Hessian (1995)
 Shifting diagonal of input Hessian by    1.0017836219146072E-002
 Lowest  eigenvalues of input Hessian
    0.010000    0.010002    0.000000    0.000000    0.000000    0.000000
    0.000000    0.000000    0.010071    0.010389    0.011034    0.011127
    0.011169    0.012437    0.012613    0.013273    0.013347    0.013364
 Highest eigenvalues
    2.139797    2.147677    2.148415    2.149063    2.149101    2.640185


........................................................................
.............................. CYCLE   21 ..............................
........................................................................
   1   -136.4586688 -0.136459E+03  0.455E-04    1.35       0.0  T
   2   -136.4586688 -0.133622E-08  0.346E-04    1.35      33.6  T
   3   -136.4586688 -0.167797E-07  0.144E-04    1.35      80.8  T
   4   -136.4586688 -0.149180E-08  0.129E-04    1.35      90.3  T
     SCC iter.                  ...        0 min,  0.073 sec
     gradient                   ...        0 min,  0.217 sec
 * total energy  :  -134.4273139 Eh     change       -0.2272777E-04 Eh
   gradient norm :     0.0009505 Eh/α   predicted     0.0000000E+00 (-100.00%)
   displ. norm   :     0.0303304 α      lambda       -0.8394373E-06
   maximum displ.:     0.0179856 α      in ANC's #1, #12, #7, ...

........................................................................
.............................. CYCLE   22 ..............................
........................................................................
   1   -136.4590575 -0.136459E+03  0.364E-04    1.35       0.0  T
   2   -136.4590575 -0.458948E-08  0.221E-04    1.35      52.5  T
   3   -136.4590575 -0.692788E-08  0.131E-04    1.35      88.5  T
   4   -136.4590575 -0.197056E-08  0.644E-05    1.35     180.5  T
     SCC iter.                  ...        0 min,  0.073 sec
     gradient                   ...        0 min,  0.219 sec
 * total energy  :  -134.4273220 Eh     change       -0.8036620E-05 Eh
   gradient norm :     0.0007766 Eh/α   predicted    -0.3350580E-05 ( -58.31%)
   displ. norm   :     0.1185440 α      lambda       -0.2055316E-04
   maximum displ.:     0.0666448 α      in ANC's #1, #12, #7, ...

........................................................................
.............................. CYCLE   23 ..............................
........................................................................
   1   -136.4602264 -0.136460E+03  0.133E-03    1.35       0.0  T
   2   -136.4602265 -0.726367E-07  0.754E-04    1.35      15.4  T
   3   -136.4602265 -0.715371E-07  0.450E-04    1.35      25.8  T
   4   -136.4602266 -0.226631E-07  0.227E-04    1.35      51.3  T
   5   -136.4602266 -0.137976E-08  0.129E-04    1.35      90.2  T
   6   -136.4602266 -0.383093E-08  0.277E-05    1.35     419.1  T
     SCC iter.                  ...        0 min,  0.109 sec
     gradient                   ...        0 min,  0.218 sec
 * total energy  :  -134.4273405 Eh     change       -0.1854422E-04 Eh
   gradient norm :     0.0010306 Eh/α   predicted    -0.1034151E-04 ( -44.23%)
   displ. norm   :     0.0805810 α      lambda       -0.9568814E-05
   maximum displ.:     0.0521188 α      in ANC's #1, #7, #12, ...

........................................................................
.............................. CYCLE   24 ..............................
........................................................................
   1   -136.4602938 -0.136460E+03  0.624E-04    1.35       0.0  T
   2   -136.4602938 -0.143035E-07  0.353E-04    1.35      33.0  T
   3   -136.4602939 -0.121753E-07  0.183E-04    1.35      63.4  T
   4   -136.4602939 -0.136180E-08  0.111E-04    1.35     104.4  T
     SCC iter.                  ...        0 min,  0.073 sec
     gradient                   ...        0 min,  0.218 sec
 * total energy  :  -134.4273498 Eh     change       -0.9283119E-05 Eh
   gradient norm :     0.0009941 Eh/α   predicted    -0.4801011E-05 ( -48.28%)
   displ. norm   :     0.0673631 α      lambda       -0.7604358E-05
   maximum displ.:     0.0467262 α      in ANC's #1, #7, #9, ...

........................................................................
.............................. CYCLE   25 ..............................
........................................................................
   1   -136.4600630 -0.136460E+03  0.396E-04    1.35       0.0  T
   2   -136.4600630 -0.752956E-08  0.175E-04    1.35      66.3  T
   3   -136.4600630 -0.740528E-09  0.113E-04    1.35     103.1  T
     SCC iter.                  ...        0 min,  0.056 sec
     gradient                   ...        0 min,  0.220 sec
 * total energy  :  -134.4273599 Eh     change       -0.1009149E-04 Eh
   gradient norm :     0.0008286 Eh/α   predicted    -0.3810179E-05 ( -62.24%)
   displ. norm   :     0.1183024 α      lambda       -0.1484395E-04
   maximum displ.:     0.0816466 α      in ANC's #1, #7, #10, ...

........................................................................
.............................. CYCLE   26 ..............................
........................................................................
   1   -136.4596906 -0.136460E+03  0.816E-04    1.34       0.0  T
   2   -136.4596907 -0.312443E-07  0.399E-04    1.34      29.1  T
   3   -136.4596907 -0.169884E-07  0.216E-04    1.34      53.7  T
   4   -136.4596907 -0.617635E-08  0.121E-04    1.34      95.7  T
   5   -136.4596907 -0.102233E-08  0.514E-05    1.34     226.2  T
     SCC iter.                  ...        0 min,  0.090 sec
     gradient                   ...        0 min,  0.219 sec
 * total energy  :  -134.4273777 Eh     change       -0.1778994E-04 Eh
   gradient norm :     0.0006806 Eh/α   predicted    -0.7470446E-05 ( -58.01%)
   displ. norm   :     0.1423095 α      lambda       -0.1219498E-04
   maximum displ.:     0.0993361 α      in ANC's #1, #7, #9, ...

........................................................................
.............................. CYCLE   27 ..............................
........................................................................
   1   -136.4593125 -0.136459E+03  0.615E-04    1.34       0.0  T
   2   -136.4593125 -0.981504E-08  0.418E-04    1.34      27.8  T
   3   -136.4593125 -0.268915E-07  0.154E-04    1.34      75.7  T
   4   -136.4593125 -0.299437E-08  0.137E-04    1.34      84.9  T
     SCC iter.                  ...        0 min,  0.073 sec
     gradient                   ...        0 min,  0.218 sec
 * total energy  :  -134.4273914 Eh     change       -0.1366872E-04 Eh
   gradient norm :     0.0008715 Eh/α   predicted    -0.6155711E-05 ( -54.96%)
   displ. norm   :     0.1001452 α      lambda       -0.6347542E-05
   maximum displ.:     0.0713581 α      in ANC's #1, #7, #9, ...

........................................................................
.............................. CYCLE   28 ..............................
........................................................................
   1   -136.4591344 -0.136459E+03  0.309E-04    1.34       0.0  T
   2   -136.4591344  0.380703E-08  0.287E-04    1.34      40.5  T
   3   -136.4591344 -0.183495E-07  0.837E-05    1.34     139.0  T
   4   -136.4591344  0.202618E-09  0.935E-05    1.34     124.3  T
     SCC iter.                  ...        0 min,  0.073 sec
     gradient                   ...        0 min,  0.218 sec
 * total energy  :  -134.4273991 Eh     change       -0.7783537E-05 Eh
   gradient norm :     0.0008655 Eh/α   predicted    -0.3190773E-05 ( -59.01%)
   displ. norm   :     0.0727540 α      lambda       -0.5017885E-05
   maximum displ.:     0.0527507 α      in ANC's #1, #7, #2, ...

........................................................................
.............................. CYCLE   29 ..............................
........................................................................
   1   -136.4592440 -0.136459E+03  0.396E-04    1.34       0.0  T
   2   -136.4592440 -0.332869E-08  0.202E-04    1.34      57.4  T
   3   -136.4592440 -0.597834E-08  0.124E-04    1.34      93.7  T
   4   -136.4592440 -0.483317E-08  0.557E-05    1.34     208.9  T
     SCC iter.                  ...        0 min,  0.073 sec
     gradient                   ...        0 min,  0.218 sec
 * total energy  :  -134.4274058 Eh     change       -0.6636264E-05 Eh
   gradient norm :     0.0007418 Eh/α   predicted    -0.2516697E-05 ( -62.08%)
   displ. norm   :     0.0794022 α      lambda       -0.6137223E-05
   maximum displ.:     0.0580039 α      in ANC's #1, #7, #2, ...

........................................................................
.............................. CYCLE   30 ..............................
........................................................................
   1   -136.4593867 -0.136459E+03  0.546E-04    1.34       0.0  T
   2   -136.4593867 -0.107086E-07  0.261E-04    1.34      44.6  T
   3   -136.4593867 -0.105944E-07  0.151E-04    1.34      77.1  T
   4   -136.4593867 -0.580576E-08  0.631E-05    1.34     184.4  T
     SCC iter.                  ...        0 min,  0.074 sec
     gradient                   ...        0 min,  0.218 sec
 * total energy  :  -134.4274137 Eh     change       -0.7896276E-05 Eh
   gradient norm :     0.0007809 Eh/α   predicted    -0.3080010E-05 ( -60.99%)
   displ. norm   :     0.1073840 α      lambda       -0.8347008E-05
   maximum displ.:     0.0775674 α      in ANC's #1, #7, #2, ...

........................................................................
.............................. CYCLE   31 ..............................
........................................................................
   1   -136.4593854 -0.136459E+03  0.613E-04    1.34       0.0  T
   2   -136.4593854 -0.183495E-07  0.292E-04    1.34      39.9  T
   3   -136.4593855 -0.119345E-07  0.145E-04    1.34      80.1  T
   4   -136.4593855 -0.382462E-08  0.710E-05    1.34     163.7  T
     SCC iter.                  ...        0 min,  0.074 sec
     gradient                   ...        0 min,  0.219 sec
 * total energy  :  -134.4274239 Eh     change       -0.1025733E-04 Eh
   gradient norm :     0.0009725 Eh/α   predicted    -0.4197690E-05 ( -59.08%)
   displ. norm   :     0.1286701 α      lambda       -0.9024031E-05
   maximum displ.:     0.0923435 α      in ANC's #1, #7, #5, ...

........................................................................
.............................. CYCLE   32 ..............................
........................................................................
   1   -136.4592703 -0.136459E+03  0.420E-04    1.34       0.0  T
   2   -136.4592703 -0.108126E-07  0.217E-04    1.34      53.5  T
   3   -136.4592703 -0.462870E-08  0.981E-05    1.34     118.4  T
   4   -136.4592703 -0.309598E-09  0.679E-05    1.34     171.2  T
     SCC iter.                  ...        0 min,  0.073 sec
     gradient                   ...        0 min,  0.217 sec
 * total energy  :  -134.4274356 Eh     change       -0.1170282E-04 Eh
   gradient norm :     0.0009948 Eh/α   predicted    -0.4546929E-05 ( -61.15%)
   displ. norm   :     0.1404519 α      lambda       -0.8880502E-05
   maximum displ.:     0.1009250 α      in ANC's #1, #7, #5, ...

........................................................................
.............................. CYCLE   33 ..............................
........................................................................
   1   -136.4592625 -0.136459E+03  0.340E-04    1.33       0.0  T
   2   -136.4592625 -0.575756E-08  0.153E-04    1.33      75.9  T
   3   -136.4592625 -0.118487E-08  0.893E-05    1.33     130.2  T
     SCC iter.                  ...        0 min,  0.056 sec
     gradient                   ...        0 min,  0.218 sec
 * total energy  :  -134.4274471 Eh     change       -0.1142551E-04 Eh
   gradient norm :     0.0007847 Eh/α   predicted    -0.4482462E-05 ( -60.77%)
   displ. norm   :     0.1203479 α      lambda       -0.6468012E-05
   maximum displ.:     0.0881888 α      in ANC's #1, #7, #5, ...

........................................................................
.............................. CYCLE   34 ..............................
........................................................................
   1   -136.4590915 -0.136459E+03  0.472E-04    1.33       0.0  T
   2   -136.4590915 -0.116418E-07  0.183E-04    1.33      63.7  T
   3   -136.4590915 -0.197426E-08  0.112E-04    1.33     103.6  T
     SCC iter.                  ...        0 min,  0.055 sec
     gradient                   ...        0 min,  0.218 sec
 * total energy  :  -134.4274550 Eh     change       -0.7940446E-05 Eh
   gradient norm :     0.0004352 Eh/α   predicted    -0.3256182E-05 ( -58.99%)
   displ. norm   :     0.0725819 α      lambda       -0.3077656E-05
   maximum displ.:     0.0557968 α      in ANC's #1, #7, #5, ...

........................................................................
.............................. CYCLE   35 ..............................
........................................................................
   1   -136.4592011 -0.136459E+03  0.380E-04    1.33       0.0  T
   2   -136.4592011 -0.582321E-08  0.166E-04    1.33      70.0  T
   3   -136.4592011 -0.133497E-08  0.928E-05    1.33     125.3  T
     SCC iter.                  ...        0 min,  0.055 sec
     gradient                   ...        0 min,  0.219 sec
 * total energy  :  -134.4274589 Eh     change       -0.3862308E-05 Eh
   gradient norm :     0.0002763 Eh/α   predicted    -0.1544773E-05 ( -60.00%)
   displ. norm   :     0.0328223 α      lambda       -0.1389214E-05
   maximum displ.:     0.0278507 α      in ANC's #1, #7, #2, ...

   *** GEOMETRY OPTIMIZATION CONVERGED AFTER 35 ITERATIONS ***

------------------------------------------------------------------------
 total energy gain   :        -0.1268368 Eh      -79.5913 kcal/mol
 total RMSD          :         0.4530660 a0        0.2398 Å
 total power (kW/mol):        -9.5145672 (step)  -22.5858 (real)
------------------------------------------------------------------------

 ANCopt (total)                0 d,  0 h,  0 min, 14.744 sec
 optimizer setup                ...        0 min,  0.000 sec (  0.002%)
 model hessian                  ...        0 min,  0.047 sec (  0.316%)
 ANC generation                 ...        0 min,  0.018 sec (  0.119%)
 coordinate transformation      ...        0 min,  0.003 sec (  0.019%)
 single point calculation       ...        0 min, 14.645 sec ( 99.330%)
 optimization log               ...        0 min,  0.016 sec (  0.107%)
 hessian update                 ...        0 min,  0.002 sec (  0.017%)
 rational function              ...        0 min,  0.011 sec (  0.072%)

================
 final structure:
================
74
 xtb: 6.5.1 (b24c23e)
Ni           9.08597160580803       -0.04030007186702       -0.01608317850877
C            5.67552037604591       -0.05316668025044       -0.03502296401316
C            6.33409024689025       -0.90230867293815       -0.90040160095027
C            5.66473742145103       -1.78742809986211       -1.80763840454981
C            6.62839692769944       -2.48751856496330       -2.45014312006872
C            7.88407056033836       -2.02817993197503       -1.93424576998258
N            7.69476197279993       -1.04730067961584       -0.99434294389438
C            9.10450448294615       -2.54117646641740       -2.32142369853479
C           10.31693965254624       -2.10242749753475       -1.83136881976896
C           11.57677521363362       -2.64379719880521       -2.24057474113315
C           12.53182451642332       -1.93770638722672       -1.58977746369579
N           10.49646078559464       -1.08191757726149       -0.92727327634866
C           11.85234326640808       -0.96904024896556       -0.78528713305166
C           12.51423163322443       -0.01572460908098       -0.00940540623691
C           11.83571970144538        0.92518872983326        0.76724955235601
C           12.49817787319119        1.89831659388274        1.58055393422853
C           11.53077125267756        2.58414925383759        2.23473433326136
C           10.28038357694148        2.02748198824940        1.81708966233545
N           10.47785738661210        1.01659244963742        0.90599250217433
C            9.05978749683544        2.44828005580465        2.30258318363581
C            7.84768308082914        1.92747676016209        1.90001944526310
C            6.58290086824229        2.37502874662634        2.40389628729051
C            5.63164954477801        1.67389209880064        1.74427056023614
C            6.31774580305124        0.79828499852589        0.84031644477787
N            7.67616168091075        0.95142816081169        0.95174194494065
H            4.59177761921508       -0.05663026420098       -0.04183047830511
H            4.59374022934998       -1.85021785808699       -1.91868607487310
H            6.52210009871054       -3.25093995139072       -3.20459533958563
H            9.11224686320552       -3.33792670650445       -3.05624144198945
H           11.69437169746165       -3.45580731605764       -2.94038593924762
H           13.60334996221566       -2.04478043533358       -1.64312369491007
H           13.56777820587741        2.02132818733693        1.63778692221744
H           11.63412558573553        3.39214528983240        2.94143049411698
H            9.05357215881906        3.23942597809650        3.04344180253794
H            6.46247268420166        3.13276486526252        3.16194767674653
H            4.55899051810008        1.72942899510272        1.84236867062355
Ni          19.98028337062988        0.04063662653087        0.01523875063204
C           23.39073480419798        0.06290284246780        0.00989128023635
C           22.73215324479577        1.27333889230548       -0.05905067196580
C           23.40150297976400        2.53856268860588       -0.13473886805127
C           22.43784290448580        3.48878104325288       -0.13906854608543
C           21.18217110410843        2.80185519320862       -0.06641351356812
N           21.37148189522716        1.44380876481311       -0.03099816329677
C           19.96173956384768        3.44187818977192       -0.00770009294591
C           18.74930358126137        2.78757427563294        0.05966676682406
C           17.48946584604676        3.46340232819131        0.12115934411738
C           16.53441921020894        2.50315825468677        0.12755171695980
N           18.56978764313399        1.42429990261592        0.04193675190266
C           17.21390641388723        1.24525728231280        0.07101270188456
C           16.55202377999995        0.01795514930738        0.00362620949180
C           17.23054117133555       -1.20068619402846       -0.05482420608940
C           16.56808747834221       -2.46782427816322       -0.10784180297395
C           17.53549933689395       -3.41534726522296       -0.08531526565528
C           18.78588608480408       -2.72251573958746       -0.01979378023153
N           18.58840560384726       -1.36165000526638       -0.01368599675665
C           20.00648257885168       -3.36047641031407        0.05625025297184
C           21.21858837755238       -2.70433322933657        0.10884624160896
C           22.48337202205530       -3.37445081801796        0.18048726267600
C           23.43462051705191       -2.41193231586933        0.16426649237392
C           22.74852130976918       -1.15595682579023        0.08462348714608
N           21.39010670896554       -1.34422790049668        0.06399076186470
H           24.47447750061616        0.07005943189931        0.00718575480699
H           24.47249906999323        2.65972876653181       -0.17465732053004
H           22.54413658531028        4.56117379476728       -0.18361176426505
H           19.95400064195076        4.52571846857297       -0.01528613881854
H           17.37186349593768        4.53497886439056        0.14974030396559
H           15.46289218768509        2.61826145176685        0.16009709891531
H           15.49848605655071       -2.59734194132598       -0.14825164285461
H           17.43215151364883       -4.48858789101003       -0.10612025395241
H           20.01269473649112       -4.44423616818748        0.07202118021186
H           22.60380436534255       -4.44506064677607        0.23147658833753
H           24.50727934170765       -2.51901926037335        0.19950415747493
C           13.92560261885081       -0.00494966498046       -0.00695871795803
C           15.14065280458474        0.00834740972377       -0.00182928549067

 Bond Distances (Angstroems)
 ---------------------------
Ni1-N7=1.9765        Ni1-N12=1.9760       Ni1-N19=1.9760       Ni1-N25=1.9768       C2-C3=1.3797         C2-C24=1.3797        
C2-H26=1.0838        C3-C2=1.3797         C3-C4=1.4334         C3-N7=1.3716         C4-C3=1.4334         C4-C5=1.3534         
C4-H27=1.0786        C5-C4=1.3534         C5-C6=1.4331         C5-H28=1.0786        C6-C5=1.4331         C6-N7=1.3716         
C6-C8=1.3793         N7-Ni1=1.9765        N7-C3=1.3716         N7-C6=1.3716         C8-C6=1.3793         C8-C9=1.3794         
C8-H29=1.0839        C9-C8=1.3794         C9-C10=1.4310        C9-N12=1.3752        C10-C9=1.4310        C10-C11=1.3543       
C10-H30=1.0784       C11-C10=1.3543       C11-C13=1.4308       C11-H31=1.0782       N12-Ni1=1.9760       N12-C9=1.3752        
N12-C13=1.3680       C13-C11=1.4308       C13-N12=1.3680       C13-C14=1.3960       C14-C13=1.3960       C14-C15=1.3960       
C14-C73=1.4114       C15-C14=1.3960       C15-C16=1.4308       C15-N19=1.3680       C16-C15=1.4308       C16-C17=1.3543       
C16-H32=1.0782       C17-C16=1.3543       C17-C18=1.4310       C17-H33=1.0784       C18-C17=1.4310       C18-N19=1.3751       
C18-C20=1.3794       N19-Ni1=1.9760       N19-C15=1.3680       N19-C18=1.3751       C20-C18=1.3794       C20-C21=1.3793       
C20-H34=1.0839       C21-C20=1.3793       C21-C22=1.4331       C21-N25=1.3716       C22-C21=1.4331       C22-C23=1.3534       
C22-H35=1.0786       C23-C22=1.3534       C23-C24=1.4334       C23-H36=1.0786       C24-C2=1.3797        C24-C23=1.4334       
C24-N25=1.3716       N25-Ni1=1.9768       N25-C21=1.3716       N25-C24=1.3716       H26-C2=1.0838        H27-C4=1.0786        
H28-C5=1.0786        H29-C8=1.0839        H30-C10=1.0784       H31-C11=1.0782       H32-C16=1.0782       H33-C17=1.0784       
H34-C20=1.0839       H35-C22=1.0786       H36-C23=1.0786       Ni37-N43=1.9765      Ni37-N48=1.9760      Ni37-N55=1.9760      
Ni37-N61=1.9768      C38-C39=1.3797       C38-C60=1.3797       C38-H62=1.0838       C39-C38=1.3797       C39-C40=1.4334       
C39-N43=1.3716       C40-C39=1.4334       C40-C41=1.3534       C40-H63=1.0786       C41-C40=1.3534       C41-C42=1.4331       
C41-H64=1.0786       C42-C41=1.4331       C42-N43=1.3716       C42-C44=1.3793       N43-Ni37=1.9765      N43-C39=1.3716       
N43-C42=1.3716       C44-C42=1.3793       C44-C45=1.3794       C44-H65=1.0839       C45-C44=1.3794       C45-C46=1.4310       
C45-N48=1.3752       C46-C45=1.4310       C46-C47=1.3543       C46-H66=1.0784       C47-C46=1.3543       C47-C49=1.4308       
C47-H67=1.0782       N48-Ni37=1.9760      N48-C45=1.3752       N48-C49=1.3680       C49-C47=1.4308       C49-N48=1.3680       
C49-C50=1.3960       C50-C49=1.3960       C50-C51=1.3960       C50-C74=1.4114       C51-C50=1.3960       C51-C52=1.4308       
C51-N55=1.3680       C52-C51=1.4308       C52-C53=1.3543       C52-H68=1.0782       C53-C52=1.3543       C53-C54=1.4310       
C53-H69=1.0784       C54-C53=1.4310       C54-N55=1.3751       C54-C56=1.3794       N55-Ni37=1.9760      N55-C51=1.3680       
N55-C54=1.3751       C56-C54=1.3794       C56-C57=1.3793       C56-H70=1.0839       C57-C56=1.3793       C57-C58=1.4331       
C57-N61=1.3716       C58-C57=1.4331       C58-C59=1.3534       C58-H71=1.0786       C59-C58=1.3534       C59-C60=1.4334       
C59-H72=1.0786       C60-C38=1.3797       C60-C59=1.4334       C60-N61=1.3716       N61-Ni37=1.9768      N61-C57=1.3716       
N61-C60=1.3716       H62-C38=1.0838       H63-C40=1.0786       H64-C41=1.0786       H65-C44=1.0839       H66-C46=1.0784       
H67-C47=1.0782       H68-C52=1.0782       H69-C53=1.0784       H70-C56=1.0839       H71-C58=1.0786       H72-C59=1.0786       
C73-C14=1.4114       C73-C74=1.2151       C74-C50=1.4114       C74-C73=1.2151       
 C  H  Rav=1.0799 sigma=0.0024  Rmin=1.0782  Rmax=1.0839    22
 C  C  Rav=1.3935 sigma=0.0407  Rmin=1.2151  Rmax=1.4334    43
 N  C  Rav=1.3716 sigma=0.0025  Rmin=1.3680  Rmax=1.3752    16
 Ni N  Rav=1.9763 sigma=0.0003  Rmin=1.9760  Rmax=1.9768     8

 selected bond angles (degree)
 --------------------
N12-Ni1-N7= 90.32              N19-Ni1-N7=177.82              N19-Ni1-N12= 89.67             N25-Ni1-N7= 89.77              
N25-Ni1-N12=177.81             N25-Ni1-N19= 90.32             C24-C2-C3=123.75               H26-C2-C3=118.13               
H26-C2-C24=118.13              C4-C3-C2=123.65                N7-C3-C2=125.56                N7-C3-C4=110.77                
C5-C4-C3=106.70                H27-C4-C3=124.39               H27-C4-C5=128.91               C6-C5-C4=106.69                
H28-C5-C4=128.91               H28-C5-C6=124.40               N7-C6-C5=110.79                C8-C6-C5=123.71                
C8-C6-N7=125.48                C3-N7-Ni1=127.63               C6-N7-Ni1=127.33               C6-N7-C3=105.04                
C9-C8-C6=124.04                H29-C8-C6=118.03               H29-C8-C9=117.93               C10-C9-C8=123.50               
N12-C9-C8=125.76               N12-C9-C10=110.72              C11-C10-C9=106.63              H30-C10-C9=124.50              
H30-C10-C11=128.87             

 selected dihedral angles (degree)
 ---------------------------------
C4-C3-C2-C24=179.91           C4-C3-C2-H26=  0.04           N7-C3-C2-C24=  1.67           N7-C3-C2-H26=181.80           
C5-C4-C3-C2=182.14            C5-C4-C3-N7=  0.61            H27-C4-C3-C2=  1.93           H27-C4-C3-N7=180.39           
C6-C5-C4-C3=  0.00            C6-C5-C4-H27=180.21           H28-C5-C4-C3=179.79           H28-C5-C4-H27=  0.00          
N7-C6-C5-C4=359.42            N7-C6-C5-H28=179.60           C8-C6-C5-C4=177.94            C8-C6-C5-H28=358.12           
C3-N7-Ni1-N12=179.68          C3-N7-Ni1-N19=269.60          C3-N7-Ni1-N25=  1.87          C6-N7-Ni1-N12=358.39          
C6-N7-Ni1-N19= 88.32          C6-N7-Ni1-N25=180.58          Ni1-N7-C3-C2=356.43           Ni1-N7-C3-C4=178.00           
C6-N7-C3-C2=177.49            C6-N7-C3-C4=359.05            Ni1-N7-C6-C5=181.99           Ni1-N7-C6-C8=  3.50           
C3-N7-C6-C5=  0.93            C3-N7-C6-C8=182.44            C9-C8-C6-C5=179.87            C9-C8-C6-N7=358.17            
H29-C8-C6-C5=359.89           H29-C8-C6-N7=178.19           C10-C9-C8-C6=179.95           C10-C9-C8-H29=359.93          
N12-C9-C8-C6=358.12           N12-C9-C8-H29=178.10          C11-C10-C9-C8=177.82          C11-C10-C9-N12=359.41         
H30-C10-C9-C8=358.12          H30-C10-C9-N12=179.71         
           -------------------------------------------------
          |                Final Singlepoint                |
           -------------------------------------------------

          ...................................................
          :                      SETUP                      :
          :.................................................:
          :  # basis functions                 264          :
          :  # atomic orbitals                 262          :
          :  # shells                          150          :
          :  # electrons                       250          :
          :  # halogen bonds                     0          :
          :  max. iterations                   250          :
          :  Hamiltonian                  GFN1-xTB          :
          :  restarted?                      false          :
          :  GBSA solvation                  false          :
          :  PC potential                    false          :
          :  electronic temp.          300.0000000     K    :
          :  accuracy                    1.0000000          :
          :  -> integral cutoff          0.2500000E+02      :
          :  -> integral neglect         0.1000000E-07      :
          :  -> SCF convergence          0.1000000E-05 Eh   :
          :  -> wf. convergence          0.2000000E-04 e    :
          :  Broyden damping             0.4000000          :
          ...................................................

 iter      E             dE          RMSdq      gap      omega  full diag
   1   -136.4592011 -0.136459E+03  0.716E-05    1.33       0.0  T
   2   -136.4592011  0.705739E-09  0.673E-05    1.33     172.7  T
   3   -136.4592011 -0.156300E-08  0.277E-05    1.33     419.3  T

   *** convergence criteria satisfied after 3 iterations ***

         #    Occupation            Energy/Eh            Energy/eV
      -------------------------------------------------------------
         1        2.0000           -0.7804451             -21.2370
       ...           ...                  ...                  ...
       119        2.0000           -0.3969635             -10.8019
       120        2.0000           -0.3969632             -10.8019
       121        2.0000           -0.3960461             -10.7770
       122        2.0000           -0.3960450             -10.7769
       123        2.0000           -0.3959307             -10.7738
       124        2.0000           -0.3959296             -10.7738
       125        2.0000           -0.3873349             -10.5399 (HOMO)
       126                         -0.3384526              -9.2098 (LUMO)
       127                         -0.3293156              -8.9611
       128                         -0.3293136              -8.9611
       129                         -0.3286218              -8.9423
       130                         -0.3286075              -8.9419
       ...                                ...                  ...
       262                          1.3448264              36.5946
      -------------------------------------------------------------
                  HL-Gap            0.0488823 Eh            1.3302 eV
             Fermi-level           -0.3628937 Eh           -9.8748 eV

 SCC (total)                   0 d,  0 h,  0 min,  0.376 sec
 SCC setup                      ...        0 min,  0.002 sec (  0.634%)
 Dispersion                     ...        0 min,  0.002 sec (  0.445%)
 classical contributions        ...        0 min,  0.001 sec (  0.189%)
 integral evaluation            ...        0 min,  0.092 sec ( 24.452%)
 iterations                     ...        0 min,  0.055 sec ( 14.590%)
 molecular gradient             ...        0 min,  0.219 sec ( 58.304%)
 printout                       ...        0 min,  0.005 sec (  1.378%)

         :::::::::::::::::::::::::::::::::::::::::::::::::::::
         ::                     SUMMARY                     ::
         :::::::::::::::::::::::::::::::::::::::::::::::::::::
         :: total energy            -134.427458857783 Eh    ::
         :: gradient norm              0.000276388842 Eh/a0 ::
         :: HOMO-LUMO gap              1.330153959290 eV    ::
         ::.................................................::
         :: SCC energy              -136.459201062985 Eh    ::
         :: -> electrostatic           0.092443123270 Eh    ::
         :: repulsion energy           2.096838572023 Eh    ::
         :: dispersion energy         -0.065096366821 Eh    ::
         :: halogen bond corr.         0.000000000000 Eh    ::
         :: add. restraining           0.000000000000 Eh    ::
         :: total charge              -0.000000000000 e     ::
         :::::::::::::::::::::::::::::::::::::::::::::::::::::

           -------------------------------------------------
          |                Property Printout                |
           -------------------------------------------------

    * Orbital Energies and Occupations

         #    Occupation            Energy/Eh            Energy/eV
      -------------------------------------------------------------
         1        2.0000           -0.7804451             -21.2370
       ...           ...                  ...                  ...
       113        2.0000           -0.4293415             -11.6830
       114        2.0000           -0.4000865             -10.8869
       115        2.0000           -0.3981812             -10.8351
       116        2.0000           -0.3981462             -10.8341
       117        2.0000           -0.3979417             -10.8285
       118        2.0000           -0.3979241             -10.8281
       119        2.0000           -0.3969635             -10.8019
       120        2.0000           -0.3969632             -10.8019
       121        2.0000           -0.3960461             -10.7770
       122        2.0000           -0.3960450             -10.7769
       123        2.0000           -0.3959307             -10.7738
       124        2.0000           -0.3959296             -10.7738
       125        2.0000           -0.3873349             -10.5399 (HOMO)
       126                         -0.3384526              -9.2098 (LUMO)
       127                         -0.3293156              -8.9611
       128                         -0.3293136              -8.9611
       129                         -0.3286218              -8.9423
       130                         -0.3286075              -8.9419
       131                         -0.3245356              -8.8311
       132                         -0.2953463              -8.0368
       133                         -0.2878906              -7.8339
       134                         -0.2318592              -6.3092
       135                         -0.2318544              -6.3091
       136                         -0.2161796              -5.8825
       ...                                ...                  ...
       262                          1.3448264              36.5946
      -------------------------------------------------------------
                  HL-Gap            0.0488823 Eh            1.3302 eV
             Fermi-level           -0.3628937 Eh           -9.8748 eV

  Mulliken/CM5 charges         n(s)   n(p)   n(d)
     1Ni    0.21419  0.58151   0.557  0.672  8.556
     2C    -0.06124 -0.10252   1.060  3.001  0.000
     3C     0.14664  0.20751   1.044  2.809  0.000
     4C    -0.05862 -0.10507   1.062  2.996  0.000
     5C    -0.05835 -0.10481   1.062  2.996  0.000
     6C     0.14575  0.20653   1.044  2.810  0.000
     7N    -0.27488 -0.52630   1.492  3.783  0.000
     8C    -0.05880 -0.10014   1.060  2.998  0.000
     9C     0.14435  0.20455   1.044  2.812  0.000
    10C    -0.05918 -0.10566   1.062  2.997  0.000
    11C    -0.05760 -0.10331   1.061  2.996  0.000
    12N    -0.27327 -0.52432   1.492  3.781  0.000
    13C     0.14379  0.20899   1.046  2.810  0.000
    14C     0.00139  0.00830   1.066  2.932  0.000
    15C     0.14380  0.20900   1.046  2.810  0.000
    16C    -0.05761 -0.10332   1.061  2.996  0.000
    17C    -0.05918 -0.10567   1.062  2.997  0.000
    18C     0.14436  0.20456   1.044  2.812  0.000
    19N    -0.27326 -0.52432   1.492  3.781  0.000
    20C    -0.05881 -0.10015   1.060  2.998  0.000
    21C     0.14575  0.20654   1.044  2.810  0.000
    22C    -0.05835 -0.10481   1.062  2.996  0.000
    23C    -0.05862 -0.10508   1.062  2.996  0.000
    24C     0.14664  0.20752   1.044  2.809  0.000
    25N    -0.27490 -0.52627   1.492  3.783  0.000
    26H     0.03793  0.09688   0.962  0.000  0.000
    27H     0.03633  0.09291   0.964  0.000  0.000
    28H     0.03637  0.09296   0.964  0.000  0.000
    29H     0.03827  0.09726   0.962  0.000  0.000
    30H     0.03658  0.09320   0.963  0.000  0.000
    31H     0.03675  0.09509   0.963  0.000  0.000
    32H     0.03674  0.09510   0.963  0.000  0.000
    33H     0.03658  0.09320   0.963  0.000  0.000
    34H     0.03827  0.09726   0.962  0.000  0.000
    35H     0.03637  0.09296   0.964  0.000  0.000
    36H     0.03632  0.09291   0.964  0.000  0.000
    37Ni    0.21419  0.58151   0.557  0.672  8.556
    38C    -0.06124 -0.10252   1.060  3.001  0.000
    39C     0.14664  0.20751   1.044  2.809  0.000
    40C    -0.05862 -0.10507   1.062  2.996  0.000
    41C    -0.05835 -0.10481   1.062  2.996  0.000
    42C     0.14575  0.20653   1.044  2.810  0.000
    43N    -0.27488 -0.52630   1.492  3.783  0.000
    44C    -0.05880 -0.10014   1.060  2.998  0.000
    45C     0.14435  0.20454   1.044  2.812  0.000
    46C    -0.05918 -0.10566   1.062  2.997  0.000
    47C    -0.05760 -0.10331   1.061  2.996  0.000
    48N    -0.27327 -0.52432   1.492  3.781  0.000
    49C     0.14379  0.20899   1.046  2.810  0.000
    50C     0.00139  0.00830   1.066  2.932  0.000
    51C     0.14380  0.20900   1.046  2.810  0.000
    52C    -0.05761 -0.10332   1.061  2.996  0.000
    53C    -0.05918 -0.10567   1.062  2.997  0.000
    54C     0.14436  0.20456   1.044  2.812  0.000
    55N    -0.27326 -0.52432   1.492  3.781  0.000
    56C    -0.05881 -0.10015   1.060  2.998  0.000
    57C     0.14575  0.20654   1.044  2.810  0.000
    58C    -0.05835 -0.10481   1.062  2.996  0.000
    59C    -0.05862 -0.10508   1.062  2.996  0.000
    60C     0.14664  0.20752   1.044  2.809  0.000
    61N    -0.27490 -0.52627   1.492  3.783  0.000
    62H     0.03793  0.09688   0.962  0.000  0.000
    63H     0.03633  0.09291   0.964  0.000  0.000
    64H     0.03637  0.09296   0.964  0.000  0.000
    65H     0.03827  0.09726   0.962  0.000  0.000
    66H     0.03658  0.09320   0.963  0.000  0.000
    67H     0.03675  0.09509   0.963  0.000  0.000
    68H     0.03674  0.09510   0.963  0.000  0.000
    69H     0.03658  0.09320   0.963  0.000  0.000
    70H     0.03827  0.09726   0.962  0.000  0.000
    71H     0.03637  0.09296   0.964  0.000  0.000
    72H     0.03632  0.09291   0.964  0.000  0.000
    73C    -0.04053 -0.04298   1.098  2.942  0.000
    74C    -0.04053 -0.04298   1.098  2.942  0.000

Wiberg/Mayer (AO) data.
largest (>0.10) Wiberg bond orders for each atom

 ---------------------------------------------------------------------------
     #   Z sym  total        # sym  WBO       # sym  WBO       # sym  WBO
 ---------------------------------------------------------------------------
     1  28 Ni   3.016 --     7 N    0.665    25 N    0.665    12 N    0.662
                            19 N    0.662
     2   6 C    3.941 --     3 C    1.365    24 C    1.365    26 H    0.970
     3   6 C    3.923 --     2 C    1.365     7 N    1.218     4 C    1.170
     4   6 C    3.960 --     5 C    1.656     3 C    1.170    27 H    0.975
     5   6 C    3.962 --     4 C    1.656     6 C    1.171    28 H    0.975
     6   6 C    3.922 --     8 C    1.365     7 N    1.217     5 C    1.171
     7   7 N    3.407 --     3 C    1.218     6 C    1.217     1 Ni   0.665
     8   6 C    3.945 --     9 C    1.367     6 C    1.365    29 H    0.970
     9   6 C    3.917 --     8 C    1.367    12 N    1.205    10 C    1.177
    10   6 C    3.959 --    11 C    1.643     9 C    1.177    30 H    0.975
    11   6 C    3.962 --    10 C    1.643    13 C    1.185    31 H    0.972
    12   7 N    3.411 --    13 C    1.239     9 C    1.205     1 Ni   0.662
    13   6 C    3.912 --    14 C    1.275    12 N    1.239    11 C    1.185
    14   6 C    3.949 --    13 C    1.275    15 C    1.275    73 C    1.160
    15   6 C    3.912 --    14 C    1.275    19 N    1.239    16 C    1.185
    16   6 C    3.962 --    17 C    1.643    15 C    1.185    32 H    0.972
    17   6 C    3.959 --    16 C    1.643    18 C    1.177    33 H    0.975
    18   6 C    3.917 --    20 C    1.367    19 N    1.205    17 C    1.177
    19   7 N    3.411 --    15 C    1.239    18 C    1.205     1 Ni   0.662
    20   6 C    3.945 --    18 C    1.367    21 C    1.365    34 H    0.970
    21   6 C    3.922 --    20 C    1.365    25 N    1.217    22 C    1.171
    22   6 C    3.962 --    23 C    1.656    21 C    1.171    35 H    0.975
    23   6 C    3.960 --    22 C    1.656    24 C    1.170    36 H    0.975
    24   6 C    3.923 --     2 C    1.365    25 N    1.218    23 C    1.170
    25   7 N    3.407 --    24 C    1.218    21 C    1.217     1 Ni   0.665
    26   1 H    1.000 --     2 C    0.970
    27   1 H    0.998 --     4 C    0.975
    28   1 H    0.998 --     5 C    0.975
    29   1 H    1.000 --     8 C    0.970
    30   1 H    0.998 --    10 C    0.975
    31   1 H    1.004 --    11 C    0.972
    32   1 H    1.004 --    16 C    0.972
    33   1 H    0.998 --    17 C    0.975
    34   1 H    1.000 --    20 C    0.970
    35   1 H    0.998 --    22 C    0.975
    36   1 H    0.998 --    23 C    0.975
    37  28 Ni   3.016 --    43 N    0.665    61 N    0.665    48 N    0.662
                            55 N    0.662
    38   6 C    3.941 --    39 C    1.365    60 C    1.365    62 H    0.970
    39   6 C    3.923 --    38 C    1.365    43 N    1.218    40 C    1.170
    40   6 C    3.960 --    41 C    1.656    39 C    1.170    63 H    0.975
    41   6 C    3.962 --    40 C    1.656    42 C    1.171    64 H    0.975
    42   6 C    3.922 --    44 C    1.365    43 N    1.217    41 C    1.171
    43   7 N    3.407 --    39 C    1.218    42 C    1.217    37 Ni   0.665
    44   6 C    3.945 --    45 C    1.367    42 C    1.365    65 H    0.970
    45   6 C    3.917 --    44 C    1.367    48 N    1.205    46 C    1.177
    46   6 C    3.959 --    47 C    1.643    45 C    1.177    66 H    0.975
    47   6 C    3.962 --    46 C    1.643    49 C    1.185    67 H    0.972
    48   7 N    3.411 --    49 C    1.239    45 C    1.205    37 Ni   0.662
    49   6 C    3.912 --    50 C    1.275    48 N    1.239    47 C    1.185
    50   6 C    3.949 --    49 C    1.275    51 C    1.275    74 C    1.160
    51   6 C    3.912 --    50 C    1.275    55 N    1.239    52 C    1.185
    52   6 C    3.962 --    53 C    1.643    51 C    1.185    68 H    0.972
    53   6 C    3.959 --    52 C    1.643    54 C    1.177    69 H    0.975
    54   6 C    3.917 --    56 C    1.367    55 N    1.205    53 C    1.177
    55   7 N    3.411 --    51 C    1.239    54 C    1.205    37 Ni   0.662
    56   6 C    3.945 --    54 C    1.367    57 C    1.365    70 H    0.970
    57   6 C    3.922 --    56 C    1.365    61 N    1.217    58 C    1.171
    58   6 C    3.962 --    59 C    1.656    57 C    1.171    71 H    0.975
    59   6 C    3.960 --    58 C    1.656    60 C    1.170    72 H    0.975
    60   6 C    3.923 --    38 C    1.365    61 N    1.218    59 C    1.170
    61   7 N    3.407 --    60 C    1.218    57 C    1.217    37 Ni   0.665
    62   1 H    1.000 --    38 C    0.970
    63   1 H    0.998 --    40 C    0.975
    64   1 H    0.998 --    41 C    0.975
    65   1 H    1.000 --    44 C    0.970
    66   1 H    0.998 --    46 C    0.975
    67   1 H    1.004 --    47 C    0.972
    68   1 H    1.004 --    52 C    0.972
    69   1 H    0.998 --    53 C    0.975
    70   1 H    1.000 --    56 C    0.970
    71   1 H    0.998 --    58 C    0.975
    72   1 H    0.998 --    59 C    0.975
    73   6 C    3.937 --    74 C    2.596    14 C    1.160
    74   6 C    3.937 --    73 C    2.596    50 C    1.160
 ---------------------------------------------------------------------------

Topologies differ in total number of bonds
Writing topology from bond orders to xtbtopo.mol

 dipole moment from electron density (au)
     X       Y       Z   
   0.0000  -0.0007   0.0018  total (Debye):    0.005

           -------------------------------------------------
          |                Geometry Summary                 |
           -------------------------------------------------

      molecular mass/u    :      756.0659242
   center of mass at/Å    :       14.5331292       0.0001041      -0.0002659
  moments of inertia/u·Å² :        0.3674740E+04   0.2597994E+05   0.2865185E+05
rotational constants/cm⁻¹ :        0.4587435E-02   0.6488712E-03   0.5883611E-03

 * 79 selected distances

     #   Z          #   Z                                           value/Å
     2   6 C        3   6 C                                       1.3797235
     3   6 C        4   6 C                                       1.4333697
     4   6 C        5   6 C                                       1.3533584
     5   6 C        6   6 C                                       1.4331290
     3   6 C        7   7 N                                       1.3715960
     6   6 C        7   7 N                                       1.3716339
     6   6 C        8   6 C                                       1.3793228
     8   6 C        9   6 C                                       1.3793672
     9   6 C       10   6 C                                       1.4309845
    10   6 C       11   6 C                                       1.3543341
     9   6 C       12   7 N                                       1.3751572
    11   6 C       13   6 C                                       1.4308088
    12   7 N       13   6 C                                       1.3679616
    13   6 C       14   6 C                                       1.3960300
    14   6 C       15   6 C                                       1.3960264
    15   6 C       16   6 C                                       1.4308365
    16   6 C       17   6 C                                       1.3543243
    17   6 C       18   6 C                                       1.4310050
    15   6 C       19   7 N                                       1.3679893
    18   6 C       19   7 N                                       1.3751334
    18   6 C       20   6 C                                       1.3793586
    20   6 C       21   6 C                                       1.3793082
    21   6 C       22   6 C                                       1.4331326
    22   6 C       23   6 C                                       1.3533581
     2   6 C       24   6 C                                       1.3797257
    23   6 C       24   6 C                                       1.4333699
    21   6 C       25   7 N                                       1.3716126
    24   6 C       25   7 N                                       1.3715548
     2   6 C       26   1 H                                       1.0837698
     4   6 C       27   1 H                                       1.0785682
     5   6 C       28   1 H                                       1.0785683
     8   6 C       29   1 H                                       1.0838949
    10   6 C       30   1 H                                       1.0783901
    11   6 C       31   1 H                                       1.0781826
    16   6 C       32   1 H                                       1.0781709 (min)
    17   6 C       33   1 H                                       1.0784059
    20   6 C       34   1 H                                       1.0838922
    22   6 C       35   1 H                                       1.0785681
    23   6 C       36   1 H                                       1.0785663
    38   6 C       39   6 C                                       1.3797240
    39   6 C       40   6 C                                       1.4333699
    40   6 C       41   6 C                                       1.3533568
    41   6 C       42   6 C                                       1.4331287
    39   6 C       43   7 N                                       1.3715953
    42   6 C       43   7 N                                       1.3716353
    42   6 C       44   6 C                                       1.3793224
    44   6 C       45   6 C                                       1.3793670
    45   6 C       46   6 C                                       1.4309844
    46   6 C       47   6 C                                       1.3543352
    45   6 C       48   7 N                                       1.3751573
    47   6 C       49   6 C                                       1.4308091
    48   7 N       49   6 C                                       1.3679605
    49   6 C       50   6 C                                       1.3960302
    50   6 C       51   6 C                                       1.3960263
    51   6 C       52   6 C                                       1.4308372
    52   6 C       53   6 C                                       1.3543239
    53   6 C       54   6 C                                       1.4310052
    51   6 C       55   7 N                                       1.3679904
    54   6 C       55   7 N                                       1.3751334
    54   6 C       56   6 C                                       1.3793595
    56   6 C       57   6 C                                       1.3793082
    57   6 C       58   6 C                                       1.4331323
    58   6 C       59   6 C                                       1.3533584
    38   6 C       60   6 C                                       1.3797255
    59   6 C       60   6 C                                       1.4333701 (max)
    57   6 C       61   7 N                                       1.3716112
    60   6 C       61   7 N                                       1.3715547
    38   6 C       62   1 H                                       1.0837698
    40   6 C       63   1 H                                       1.0785674
    41   6 C       64   1 H                                       1.0785680
    44   6 C       65   1 H                                       1.0838946
    46   6 C       66   1 H                                       1.0783894
    47   6 C       67   1 H                                       1.0781829
    52   6 C       68   1 H                                       1.0781722
    53   6 C       69   1 H                                       1.0784059
    56   6 C       70   1 H                                       1.0838924
    58   6 C       71   1 H                                       1.0785683
    59   6 C       72   1 H                                       1.0785669
    73   6 C       74   6 C                                       1.2151339

 * 3 distinct bonds (by element types)

   Z      Z             #   av. dist./Å        max./Å        min./Å
   1 H    6 C          22     1.0799070     1.0838949     1.0781709
   6 C    6 C          41     1.3926069     1.4333701     1.2151339
   6 C    7 N          16     1.3715798     1.3751573     1.3679605


optimized geometry written to: xtbopt.xyz


           -------------------------------------------------
          | TOTAL ENERGY             -134.427458857783 Eh   |
          | GRADIENT NORM               0.000276388842 Eh/α |
          | HOMO-LUMO GAP               1.330153959290 eV   |
           -------------------------------------------------

------------------------------------------------------------------------
 * finished run on 2022/07/30 at 02:04:19.572     
------------------------------------------------------------------------
 total:
 * wall-time:     0 d,  0 h,  0 min, 15.866 sec
 *  cpu-time:     0 d,  0 h,  0 min, 15.706 sec
 * ratio c/w:     0.990 speedup
 SCF:
 * wall-time:     0 d,  0 h,  0 min,  0.620 sec
 *  cpu-time:     0 d,  0 h,  0 min,  0.615 sec
 * ratio c/w:     0.991 speedup
 ANC optimizer:
 * wall-time:     0 d,  0 h,  0 min, 15.138 sec
 *  cpu-time:     0 d,  0 h,  0 min, 14.988 sec
 * ratio c/w:     0.990 speedup

