134
 energy: -245.391268954533 gnorm: 2.338003316967 xtb: 6.5.1 (b24c23e)
C            9.91079800000000       -0.19020200000000       -0.39194500000000
C           10.62259100000000        1.16112900000000       -0.69986100000000
C            9.98721800000000        2.35293200000000       -0.96465500000000
C           10.99807500000000        3.32487000000000       -1.17306800000000
C           12.21973100000000        2.69258600000000       -1.03030400000000
N           11.97791100000000        1.37431700000000       -0.73284400000000
C           13.64787200000000        3.37098800000000       -1.15540000000000
C           13.68495700000000        4.78968600000000       -1.58665800000000
C           13.84232900000000        5.82379600000000       -0.65544600000000
C           13.83333300000000        7.15454000000000       -1.08524800000000
C           14.02197500000000        8.22820900000000       -0.08247900000000
O           13.61168400000000        9.43317800000000       -0.53233000000000
O           14.48422700000000        8.12023500000000        1.03705900000000
C           13.66681200000000        7.45236900000000       -2.44671100000000
C           13.51588200000000        6.42241000000000       -3.37600500000000
C           13.52527600000000        5.09606000000000       -2.94581100000000
C           14.78180300000000        2.66828700000000       -0.89189800000000
C           16.09052700000000        3.28809700000000       -0.94469400000000
C           16.99647700000000        2.38204900000000       -0.59650800000000
N           14.98170600000000        1.35823200000000       -0.54018000000000
C           16.31965800000000        1.12434000000000       -0.34514800000000
C           17.00171000000000       -0.00093200000000       -0.00065200000000
C           16.25321600000000       -1.39317800000000        0.17301000000000
C           16.85968500000000       -2.63499300000000        0.19475500000000
C           15.84453900000000       -3.60625000000000        0.36530800000000
C           14.64103100000000       -2.93605200000000        0.42984700000000
N           14.89664200000000       -1.58889800000000        0.29641300000000
C           13.21543800000000       -3.61008800000000        0.60196600000000
C           13.16669600000000       -5.03428400000000        1.00241200000000
C           13.18267000000000       -6.04110500000000        0.02768800000000
C           13.14795900000000       -7.38547100000000        0.39791700000000
C           13.09128500000000       -7.72966000000000        1.74919700000000
C           13.07300100000000       -6.72842800000000        2.73266900000000
C           13.00316800000000       -7.14412800000000        4.15278500000000
O           13.18358600000000       -6.12397100000000        5.01003900000000
O           12.82252100000000       -8.28135100000000        4.55499900000000
C           13.11375200000000       -5.38170800000000        2.35808300000000
C           12.08527800000000       -2.89040600000000        0.38305100000000
C           10.75713600000000       -3.46844800000000        0.50005700000000
C            9.86579100000000       -2.52488200000000        0.21702200000000
C           10.58727100000000       -1.31146500000000       -0.08104000000000
N           11.91627800000000       -1.58056700000000        0.03111100000000
H            8.82717800000000       -0.21027700000000       -0.42472200000000
H            8.91895100000000        2.50687500000000       -0.99907900000000
H           10.85049200000000        4.36994900000000       -1.39943600000000
H           12.69094800000000        0.66794900000000       -0.56840300000000
H           13.96773600000000        5.57392200000000        0.39643600000000
H           13.78684800000000       10.00930400000000        0.23941400000000
H           13.66343200000000        8.48268800000000       -2.79047900000000
H           13.39243600000000        6.64396100000000       -4.43174600000000
H           13.40655900000000        4.28221600000000       -3.66081100000000
H           16.30842000000000        4.30882600000000       -1.20162700000000
H           18.05373800000000        2.56764200000000       -0.54376500000000
H           17.91751900000000       -2.82963400000000        0.09729100000000
H           15.97973200000000       -4.67633900000000        0.42345400000000
H           14.18342400000000       -0.86476000000000        0.24283600000000
H           13.22175600000000       -5.75731100000000       -1.02232300000000
H           13.16463500000000       -8.15653000000000       -0.36753700000000
H           13.06146100000000       -8.77820300000000        2.03564200000000
H           13.11182600000000       -6.52268100000000        5.89811500000000
H           13.09699800000000       -4.58499300000000        3.10032000000000
H           10.52727500000000       -4.48514200000000        0.76525500000000
H            8.79715900000000       -2.63805400000000        0.21356800000000
C           34.99815300000000        0.01157200000000       -0.43513600000000
C           34.28636100000000       -1.34739500000000       -0.16288800000000
C           34.92173400000000       -2.54315900000000        0.08340000000000
C           33.91087700000000       -3.51524500000000        0.29112400000000
C           32.68922000000000       -2.87992400000000        0.16254500000000
N           32.93104100000000       -1.55540300000000       -0.10571000000000
C           31.26108000000000       -3.55008900000000        0.32612200000000
C           31.22399500000000       -5.02101000000000        0.51341500000000
C           31.06662300000000       -5.58330100000000        1.78635100000000
C           31.07561800000000       -6.97337900000000        1.93896700000000
C           30.88697700000000       -7.54247000000000        3.29338400000000
O           31.29726700000000       -8.82600200000000        3.37622100000000
O           30.42472400000000       -6.98566200000000        4.27061900000000
C           31.24214000000000       -7.80244100000000        0.81872600000000
C           31.39307000000000       -7.24315200000000       -0.45076200000000
C           31.38367600000000       -5.85692200000000       -0.60122200000000
C           30.12714900000000       -2.80109600000000        0.27887500000000
C           28.81842400000000       -3.38820600000000        0.48443200000000
C           27.91247500000000       -2.41902000000000        0.43120600000000
N           29.92724600000000       -1.46185900000000        0.06348700000000
C           28.58929400000000       -1.16862300000000        0.14568200000000
C           27.90724200000000       -0.00093200000000       -0.00065200000000
C           28.65573500000000        1.34040500000000       -0.41214000000000
C           28.04926600000000        2.48230400000000       -0.90065000000000
C           29.06441300000000        3.43826900000000       -1.14263800000000
C           30.26792100000000        2.85321900000000       -0.80940200000000
N           30.01230900000000        1.56949000000000       -0.37967000000000
C           31.69351300000000        3.53865000000000       -0.92828900000000
C           31.74225600000000        5.00197400000000       -1.14594500000000
C           31.72628200000000        5.52155500000000       -2.44740900000000
C           31.76099300000000        6.89967500000000       -2.65995400000000
C           31.81766700000000        7.76686500000000       -1.56798100000000
C           31.83595100000000        7.25596500000000       -0.26082200000000
C           31.90578400000000        8.21657800000000        0.86468100000000
O           31.72536600000000        7.63674200000000        2.06442800000000
O           32.08643000000000        9.41880000000000        0.76611300000000
C           31.79520000000000        5.87391300000000       -0.05128900000000
C           32.82367400000000        2.79241700000000       -0.83341200000000
C           34.15181599999999        3.36770300000000       -0.96328600000000
C           35.04316000000000        2.39095700000000       -0.83526000000000
C           34.32168100000000        1.16185300000000       -0.61047700000000
N           32.99267300000000        1.45328500000000       -0.61831400000000
H           36.08177300000000        0.01647000000000       -0.47326000000000
H           35.99000000000000       -2.69770400000000        0.11501000000000
H           34.05846000000000       -4.56141200000000        0.51240600000000
H           32.21800400000000       -0.84361700000000       -0.24483800000000
H           30.94121500000000       -4.92472300000000        2.64377100000000
H           31.12210400000000       -9.03572100000000        4.31618300000000
H           31.24551900000000       -8.88320100000000        0.92685400000000
H           31.51651600000000       -7.87746800000000       -1.32329600000000
H           31.50239300000000       -5.40708600000000       -1.58672400000000
H           28.60053200000000       -4.42467000000000        0.66786100000000
H           26.85521300000000       -2.56675800000000        0.55530200000000
H           26.99143200000000        2.61999000000000       -1.06925300000000
H           28.92922000000000        4.43839100000000       -1.52764000000000
H           30.72552700000000        0.88687500000000       -0.13211800000000
H           31.68719600000000        4.83279500000000       -3.28923600000000
H           31.74431700000000        7.28982000000000       -3.67397500000000
H           31.84749100000000        8.84078700000000       -1.73587000000000
H           31.79712500000000        8.36405800000000        2.71146700000000
H           31.81195400000000        5.45085600000000        0.95205200000000
H           34.38167700000000        4.40386900000000       -1.13752300000000
H           36.11179300000000        2.49279700000000       -0.88473900000000
C           17.95411200000000        0.01468700000000        0.01027400000000
C           19.41233900000000       -0.00715000000000       -0.00760000000000
C           20.54626700000000       -0.02790300000000       -0.00909100000000
C           21.90764900000000       -0.04049300000000       -0.01128200000000
C           23.18186700000000       -0.03018700000000       -0.01604700000000
C           24.37033000000000       -0.01138900000000       -0.02220300000000
C           25.72269100000000        0.01339600000000       -0.00633500000000
C           26.82295800000000        0.01468700000000        0.01027400000000
134
 energy: -245.993787956727 gnorm: 0.511693589988 xtb: 6.5.1 (b24c23e)
C            9.92156686510180       -0.17230167276501       -0.39607177956652
C           10.61864575066835        1.14946791540051       -0.69689175960394
C            9.98936419367736        2.35622515661625       -0.96546163937745
C           10.99641801908550        3.32365533897527       -1.17308637462950
C           12.23138391391051        2.69689620158676       -1.03114566139954
N           11.97771940954410        1.37437524168498       -0.73297666208480
C           13.63064828164536        3.36055787731600       -1.15355011903627
C           13.68162000868408        4.78733671440290       -1.58596309740822
C           13.84263788462417        5.82185741141159       -0.65720994915546
C           13.83410356343070        7.15290777274650       -1.08590840653553
C           14.02224207343859        8.22911845022699       -0.08161454374502
O           13.61320719955931        9.43249326190560       -0.52895454790086
O           14.48230645792557        8.11775760233350        1.03254249445033
C           13.66661732871473        7.45088788893432       -2.44662241770453
C           13.51642063666477        6.42174756853441       -3.37360030491906
C           13.52485598739992        5.09619772162546       -2.94456792629649
C           14.78306645736677        2.67045371988291       -0.89284887688444
C           16.08972277471786        3.29421927519254       -0.94620232999152
C           16.99796965913485        2.38075140902686       -0.59646567506034
N           14.97288046617656        1.35676723615373       -0.53984693246469
C           16.27632647000138        1.14865738275157       -0.35175125321301
C           16.86202158022528       -0.01744280377476       -0.00109849705709
C           16.23606528060786       -1.39860399036873        0.17274438998257
C           16.85764485222091       -2.63535557057637        0.19560812711372
C           15.84500577978181       -3.60541010421898        0.36558055127427
C           14.62895521988129       -2.94173572881876        0.43111096327032
N           14.89136709386343       -1.59311877431866        0.29725358758993
C           13.23185059262714       -3.59990108726140        0.59993616507387
C           13.16962778074395       -5.03267541351322        1.00177670950308
C           13.18288417795493       -6.04083930355799        0.02878337766325
C           13.14782835327673       -7.38394136215268        0.39940767395686
C           13.09115274888004       -7.72874005134989        1.74759267469091
C           13.07257254166909       -6.72928518936049        2.73088314835428
C           13.00366290027648       -7.14575747796068        4.15359971272564
O           13.18264479749188       -6.12646743638599        5.01066436721312
O           12.82312701013327       -8.27690953534401        4.55206973795516
C           13.11395950643100       -5.38162245358422        2.35633851453320
C           12.08282993007862       -2.88785364643304        0.38288701398787
C           10.75606506148635       -3.47321566164870        0.50128167973192
C            9.86208212613122       -2.52721095141623        0.21751700360187
C           10.59028761426689       -1.31397379220408       -0.08038076215144
N           11.92146017841681       -1.57647437920818        0.03026286556823
H            8.83133986451496       -0.20657892092252       -0.42540359814114
H            8.92010826943344        2.50774764634121       -0.99933336600067
H           10.85002038526735        4.36930041938515       -1.39936254774530
H           12.69019522396282        0.66857226447700       -0.56850414574671
H           13.96761193040914        5.57513163667384        0.39536016201842
H           13.78587179576750       10.01165543526870        0.23744491076972
H           13.66344871216921        8.48192969196062       -2.78949106427907
H           13.39263013500701        6.64403804589367       -4.43046630150070
H           13.40661919215277        4.28349123979685       -3.66002044424146
H           16.30732238143906        4.31175282150011       -1.20238166969951
H           18.05583880383340        2.56457815497296       -0.54263695140782
H           17.91669857293113       -2.82876288334664        0.09758860133548
H           15.98030331487016       -4.67543158505524        0.42349578449097
H           14.18361193293240       -0.86584997841217        0.24298922892337
H           13.22180302450252       -5.75793173724948       -1.02122853810367
H           13.16455381397737       -8.15578732873310       -0.36647164367737
H           13.06145212063959       -8.77694940363155        2.03609125109508
H           13.11216252943074       -6.52114914620593        5.89850114912259
H           13.09711175530017       -4.58672567011997        3.09991219822845
H           10.52839168252472       -4.48785564532766        0.76600753388599
H            8.79476046762188       -2.63743326988992        0.21331520080878
C           34.98717824529404       -0.00680675839352       -0.43148741336538
C           34.29050169791797       -1.33521513798034       -0.16502279651049
C           34.91964536356281       -2.54662639415625        0.08402787914539
C           33.91273723482448       -3.51405247453214        0.29060170845559
C           32.67755564073073       -2.88380917072377        0.16346106492920
N           32.93107854589882       -1.55569859624875       -0.10577670497417
C           31.27810263486541       -3.53967075263341        0.32354041896341
C           31.22735749846576       -5.01858501578436        0.51305499334714
C           31.06631881910657       -5.58227771132411        1.78392966787027
C           31.07482611478342       -6.97217064614090        1.93772321122336
C           30.88669988808168       -7.54290341131354        3.29447419566037
O           31.29576199815309       -8.82404607413570        3.37904251510465
O           30.42664710780624       -6.98526828676496        4.26553057697049
C           31.24233853678280       -7.80106439301281        0.81819568109041
C           31.39253788321692       -7.24158961500778       -0.44884780695943
C           31.38409050082101       -5.85658048075439       -0.60000441151560
C           30.12603460070096       -2.80157211166650        0.27871503986073
C           28.81798969933153       -3.39372863786333        0.48557090032305
C           27.91007368716227       -2.41909516989024        0.43103585253378
N           29.93529467638047       -1.46001497471004        0.06343628067171
C           28.62211871581812       -1.18579634628564        0.14849700667363
C           28.01623154940390        0.01434647210271       -0.00733062320201
C           28.66625864726167        1.33807897906387       -0.41197374186797
C           28.05127857528054        2.48380387352619       -0.90009953785767
C           29.06280724649802        3.43740923126016       -1.14198724673316
C           30.28065853903112        2.85835198078051       -0.81029493799596
N           30.01565579044061        1.57242881911997       -0.38068252568986
C           31.67581828156862        3.52827859831127       -0.92592822305070
C           31.73930641376424        5.00020040172664       -1.14590229944731
C           31.72608040534543        5.52174410203773       -2.44631190360520
C           31.76112158104555        6.89888340234527       -2.65796222650410
C           31.81779924247716        7.76536397444656       -1.56906425262109
C           31.83637781978607        7.25599746067310       -0.26281810995806
C           31.90527962007149        8.21841105149680        0.86479051568746
O           31.72631823076564        7.63927927163356        2.06395275564752
O           32.08582662201925        9.41352911858905        0.76524508197356
C           31.79500394514807        5.87308322993774       -0.05284735968293
C           32.82638328570354        2.78962667123435       -0.83237072555309
C           34.15278624680275        3.37253936422384       -0.96411781760507
C           35.04693150330044        2.39318151029070       -0.83575269461126
C           34.31872805933644        1.16451736236458       -0.61094610019546
N           32.98757678561095        1.44956531679042       -0.61747148710077
H           36.07757263274404        0.01280620740550       -0.47235980259525
H           35.98887786876664       -2.69861890140156        0.11513721743332
H           34.05894981202054       -4.56075730126458        0.51220187046481
H           32.21857217926551       -0.84432852338069       -0.24464228736444
H           30.94133786934607       -4.92626711784076        2.64327183845841
H           31.12307376824519       -9.03866235522480        4.31534710752831
H           31.24550084505359       -8.88211129265104        0.92744227714249
H           31.51632151450184       -7.87703707733147       -1.32210206556762
H           31.50232865684771       -5.40792927049636       -1.58547257774144
H           28.60161357330827       -4.42761246420850        0.66833711290238
H           26.85293900069215       -2.56421603862570        0.55520951989116
H           26.99234320440353        2.61976180299163       -1.06882030696193
H           28.92863810653802        4.43760889173168       -1.52727620918055
H           30.72498683358746        0.88787885336186       -0.13241619089106
H           31.68714229622999        4.83380830491388       -3.28849460430420
H           31.74439598277660        7.28957121432519       -3.67269492169581
H           31.84750065906793        8.83982495126837       -1.73494501016934
H           31.79678329757983        8.36281421445434        2.71245213283334
H           31.81183310263458        5.45226815298238        0.95097510480026
H           34.38053075336767        4.40663836315654       -1.13794509091105
H           36.11419895904690        2.49211420700052       -0.88471180106905
C           18.12543224136374        0.00553880927984        0.01670030889945
C           19.38981799518528       -0.00763202043585       -0.00551962813320
C           20.59608227664723       -0.02830762714383       -0.00950722282056
C           21.89617539556955       -0.04049764638116       -0.01150889623028
C           23.15749556894254       -0.03071494990232       -0.01622967401533
C           24.37458664598804       -0.01161150754586       -0.02212392426443
C           25.63638388136768        0.01591113229616       -0.00624874328250
C           26.79696116194065        0.02462240817154        0.01089307512906
134
 energy: -246.116559318698 gnorm: 0.238777931010 xtb: 6.5.1 (b24c23e)
C            9.95829422273083       -0.13710657360319       -0.40335961997771
C           10.62067584465906        1.13606763886300       -0.69230288484862
C            9.99796653530903        2.36045846696920       -0.96699561443330
C           10.99655932111479        3.31913113701663       -1.17372078535229
C           12.24698485602350        2.69822631864016       -1.03169597594181
N           11.98122373705687        1.37425914095987       -0.73298626574431
C           13.59008152775509        3.33699437634204       -1.14931422306626
C           13.65852060020513        4.77400969740811       -1.58137912228498
C           13.84115938374899        5.81290847736665       -0.66194203537330
C           13.83711488258279        7.14545678499997       -1.08822811663287
C           14.02200006892453        8.22640976052008       -0.08410770947908
O           13.61626563284927        9.43143314531166       -0.52394835182533
O           14.47806222001625        8.10377154275922        1.02465849055166
C           13.66649952389983        7.44570718033110       -2.44463433979095
C           13.51865659603076        6.41725473502556       -3.36639937840701
C           13.51952576299352        5.09266065786018       -2.93859958241562
C           14.77156426183011        2.67120200855471       -0.89395661038775
C           16.08359223458302        3.30393911617987       -0.94766006180527
C           16.99440554873027        2.38215623423288       -0.59660781565323
N           14.94632599647221        1.35719599283570       -0.53590717430357
C           16.24896895698272        1.15506274274413       -0.35207911783096
C           16.83525343464187       -0.06016006695604       -0.00678868869565
C           16.22077417887737       -1.38725980750161        0.16806573799380
C           16.84595516145914       -2.63540026013846        0.20130561235298
C           15.84282213912283       -3.60153460258842        0.36916727705346
C           14.60645692332158       -2.94914887538793        0.43287956242804
N           14.87653811100266       -1.60012101962950        0.29565140437897
C           13.26563902455169       -3.57451589335850        0.59568727265491
C           13.18819849327230       -5.02007310085522        0.99764391839075
C           13.18670014782093       -6.03456583610908        0.03125951044044
C           13.14679239438573       -7.37651583038933        0.40195366748666
C           13.09024292833757       -7.72440453315115        1.74446479502190
C           13.07119516699063       -6.72651882938153        2.72456495434799
C           13.00598978932710       -7.14409940267823        4.15040237440970
O           13.17996650099996       -6.12905713555888        5.01157264833978
O           12.82422285106213       -8.27072391698619        4.54095513780607
C           13.11737626041256       -5.37850520341722        2.34895056487266
C           12.08619366765906       -2.87922704860962        0.38435655127603
C           10.75854692224594       -3.48030501410844        0.50352734794743
C            9.85957805546006       -2.52835902348034        0.21775222464766
C           10.60251986853054       -1.31184855403967       -0.08083470523605
N           11.93443309654481       -1.56839967625889        0.02966531100742
H            8.86368899792075       -0.17914363540872       -0.43040473346843
H            8.92817446285905        2.51257218122794       -1.00077687049311
H           10.84799199988772        4.36495870560676       -1.39904508567974
H           12.69177847599929        0.66948676526862       -0.56826747633114
H           13.96675949082741        5.57805231172110        0.39152540900710
H           13.78308105515653       10.02187086851091        0.23196684950437
H           13.66332382590722        8.47747120363620       -2.78435822136230
H           13.39435670917295        6.64272960941650       -4.42288210553073
H           13.40535025098929        4.28647526918921       -3.65789962419815
H           16.29903926144580        4.32378880553459       -1.20591913301797
H           18.05738142818818        2.55311088789891       -0.53919329263779
H           17.90647394400513       -2.82646047555349        0.10034258886997
H           15.98304403021513       -4.67092665769139        0.42415558819158
H           14.17572678852223       -0.87046293785703        0.24317723104182
H           13.22301685943397       -5.75900016352790       -1.01853522599479
H           13.16366486029583       -8.15009057362984       -0.36192633577122
H           13.06131673729992       -8.77079860830771        2.03746368196795
H           13.11309165608072       -6.51644616417232        5.90110858374986
H           13.09855666849912       -4.59243130496021        3.09856457031797
H           10.53631028766826       -4.49828738498931        0.76893859866204
H            8.78846615995490       -2.63290267289165        0.21173696370216
C           34.95043781779039       -0.04183775295789       -0.42374603291304
C           34.28835847738075       -1.32117334569767       -0.16629162440814
C           34.91103021397014       -2.55112087641227        0.08437078038493
C           33.91288861434192       -3.51031264555256        0.28816389013745
C           32.66215090121971       -2.88579384929923        0.16357080043429
N           32.92761005760860       -1.55566745318494       -0.10579029289092
C           31.32079757274286       -3.51875951078056        0.31806283369446
C           31.25081419375162       -5.00555330330786        0.51190938760882
C           31.06778783771443       -5.57636317312339        1.77610568647034
C           31.07180456010989       -6.96651550199537        1.93261911930541
C           30.88693763339825       -7.54153575114111        3.29117898776306
O           31.29268924830533       -8.82104548788390        3.38320273695774
O           30.43089292329545       -6.97575909087794        4.25260105453628
C           31.24245550707149       -7.79564084978096        0.81790048065596
C           31.39030428177681       -7.23478046970339       -0.44416359186214
C           31.38949763423926       -5.85128079483616       -0.59612298027934
C           30.14047692227202       -2.80624975302386        0.27838993858179
C           28.82629697953825       -3.40409396230265        0.48814343593802
C           27.91936189322499       -2.41731953524807        0.42997044594804
N           29.97561793634034       -1.46397260983906        0.06726259261027
C           28.67624247903481       -1.19821793529292        0.15295169235778
C           28.10211439039681        0.05078188252377       -0.02896025639223
C           28.69801120925044        1.33330855756072       -0.41512965721743
C           28.06639331258289        2.48593216645609       -0.89491164373545
C           29.06648730804869        3.43643732211992       -1.13747217052217
C           30.30528600903456        2.86863566636463       -0.81261862773764
N           30.03866133336120        1.58218599279747       -0.38573934606369
C           31.64362386767451        3.50407675625146       -0.91962316552629
C           31.72096990039244        4.98732442120782       -1.14456139341715
C           31.72229744708016        5.51714698170058       -2.44153663581223
C           31.76218884714192        6.89322191305740       -2.65263811474437
C           31.81871832267241        7.76016334317200       -1.57014986063518
C           31.83778208288694        7.25095072766214       -0.26743612172917
C           31.90297060731419        8.21560668690788        0.86255254629727
O           31.72898204696370        7.64201957848698        2.06373759550079
O           32.08472464025076        9.40337271279083        0.75765275029703
C           31.79160972471197        5.86733194472777       -0.05829891465989
C           32.82329320299453        2.78263563887744       -0.82758131922408
C           34.15054686404589        3.37996882744923       -0.96497878038161
C           35.04947869792338        2.39432233204046       -0.83600108391977
C           34.30644756827141        1.16232324360279       -0.61046298168474
N           32.97453444043399        1.44191497672562       -0.61469101767754
H           36.04514280883211       -0.01428065419540       -0.46568266144726
H           35.98083190713795       -2.70356218944342        0.11579536195225
H           34.06117659868629       -4.55673988107548        0.51073022290916
H           32.21705416140652       -0.84513272812376       -0.24402807166276
H           30.94221859748536       -4.93057614501054        2.64096349646917
H           31.12586434691219       -9.05024887716473        4.31457207904114
H           31.24561947930466       -8.87602604805457        0.93032053290186
H           31.51459859070060       -7.87287854593276       -1.31576966521339