      -----------------------------------------------------------      
     |                   =====================                   |     
     |                           x T B                           |     
     |                   =====================                   |     
     |                         S. Grimme                         |     
     |          Mulliken Center for Theoretical Chemistry        |     
     |                    University of Bonn                     |     
      -----------------------------------------------------------      

   * xtb version 6.5.1 (b24c23e) compiled by 'conda@728c89f4b128' on 2022-07-12

   xtb is free software: you can redistribute it and/or modify it under
   the terms of the GNU Lesser General Public License as published by
   the Free Software Foundation, either version 3 of the License, or
   (at your option) any later version.
   
   xtb is distributed in the hope that it will be useful,
   but WITHOUT ANY WARRANTY; without even the implied warranty of
   MERCHANTABILITY or FITNESS FOR A PARTICULAR PURPOSE.  See the
   GNU Lesser General Public License for more details.
   
   Cite this work as:
   * C. Bannwarth, E. Caldeweyher, S. Ehlert, A. Hansen, P. Pracht,
     J. Seibert, S. Spicher, S. Grimme, WIREs Comput. Mol. Sci., 2020, 11,
     e01493. DOI: 10.1002/wcms.1493
   
   for GFN2-xTB:
   * C. Bannwarth, S. Ehlert and S. Grimme., J. Chem. Theory Comput., 2019,
     15, 1652-1671. DOI: 10.1021/acs.jctc.8b01176
   for GFN1-xTB:
   * S. Grimme, C. Bannwarth, P. Shushkov, J. Chem. Theory Comput., 2017,
     13, 1989-2009. DOI: 10.1021/acs.jctc.7b00118
   for GFN0-xTB:
   * P. Pracht, E. Caldeweyher, S. Ehlert, S. Grimme, ChemRxiv, 2019, preprint.
     DOI: 10.26434/chemrxiv.8326202.v1
   for GFN-FF:
   * S. Spicher and S. Grimme, Angew. Chem. Int. Ed., 2020, 59, 15665-15673.
     DOI: 10.1002/anie.202004239
   
   for ALPB and GBSA implicit solvation:
   * S. Ehlert, M. Stahn, S. Spicher, S. Grimme, J. Chem. Theory Comput.,
     2021, 17, 4250-4261. DOI: 10.1021/acs.jctc.1c00471
   
   for DFT-D4:
   * E. Caldeweyher, C. Bannwarth and S. Grimme, J. Chem. Phys., 2017,
     147, 034112. DOI: 10.1063/1.4993215
   * E. Caldeweyher, S. Ehlert, A. Hansen, H. Neugebauer, S. Spicher,
     C. Bannwarth and S. Grimme, J. Chem. Phys., 2019, 150, 154122.
     DOI: 10.1063/1.5090222
   * E. Caldeweyher, J.-M. Mewes, S. Ehlert and S. Grimme, Phys. Chem. Chem. Phys.
     2020, 22, 8499-8512. DOI: 10.1039/D0CP00502A
   
   for sTDA-xTB:
   * S. Grimme and C. Bannwarth, J. Chem. Phys., 2016, 145, 054103.
     DOI: 10.1063/1.4959605
   
   in the mass-spec context:
   * V. Asgeirsson, C. Bauer and S. Grimme, Chem. Sci., 2017, 8, 4879.
     DOI: 10.1039/c7sc00601b
   * J. Koopman and S. Grimme, ACS Omega 2019, 4, 12, 15120-15133.
     DOI: 10.1021/acsomega.9b02011
   
   for metadynamics refer to:
   * S. Grimme, J. Chem. Theory Comput., 2019, 155, 2847-2862
     DOI: 10.1021/acs.jctc.9b00143
   
   for SPH calculations refer to:
   * S. Spicher and S. Grimme, J. Chem. Theory Comput., 2021, 17, 1701-1714
     DOI: 10.1021/acs.jctc.0c01306
   
   with help from (in alphabetical order)
   P. Atkinson, C. Bannwarth, F. Bohle, G. Brandenburg, E. Caldeweyher
   M. Checinski, S. Dohm, S. Ehlert, S. Ehrlich, I. Gerasimov, C. Hölzer
   A. Katbashev, J. Koopman, C. Lavigne, S. Lehtola, F. März, M. Müller,
   F. Musil, H. Neugebauer, J. Pisarek, C. Plett, P. Pracht, F. Pultar,
   J. Seibert, P. Shushkov, S. Spicher, M. Stahn, M. Steiner, T. Strunk,
   J. Stückrath, T. Rose, and J. Unsleber
   
 * started run on 2022/07/29 at 14:05:59.853     

           -------------------------------------------------
          |                Calculation Setup                |
           -------------------------------------------------

          program call               : xtb PhNH2_C4_3.xyz --gfn 1 --opt -T 48
          hostname                   : cx3-6-25.cx3.hpc.ic.ac.uk
          coordinate file            : PhNH2_C4_3.xyz
          omp threads                :                     1

   ID    Z sym.   atoms
    1    6 C      1-5, 7-11, 13-17, 19-24, 26-30, 32-37, 62-66, 68-72, 74-78,
                  80-85, 87-91, 93-98, 123-135, 137-141, 143-147, 149-154,
                  156-160, 162-167
    2    7 N      6, 12, 18, 25, 31, 38, 67, 73, 79, 86, 92, 99, 136, 142,
                  148, 155, 161, 168
    3    1 H      39-61, 100-122, 169-190

molecular fragmentation (1/2 indicates fragments):
111111111111111111111111111111111111111111111111111111111111122222222222
222222222222222222222222222222222222222222222222222222222222222222222222
2222222222222222222222222222222222222222222222
# atoms in fragment 1/2:    61   129
 fragment masses (1/2) :      491.57     1078.21
CMA distance (Bohr)    :  41.845
constraining FC (au)   :  0.0500
########################################################################
[WARNING] Please study the warnings concerning your input carefully
-1- prog_main_parseArguments: Unknown option '-T' provided
########################################################################

           -------------------------------------------------
          |                 G F N 1 - x T B                 |
           -------------------------------------------------

        Reference                      10.1021/acs.jctc.7b00118
      * Hamiltonian:
        H0-scaling (s, p, d)           1.850000    2.250000    2.000000
        zeta-weighting                 0.000000
      * Dispersion:
        s8                             2.400000
        a1                             0.630000
        a2                             5.000000
        s9                             0.000000
      * Repulsion:
        kExp                           1.500000
        rExp                           1.000000
      * Coulomb:
        alpha                          2.000000
        third order                    atomic
        anisotropic                    false
      * Halogen bond correction:
        rad-scale                      1.300000
        damping                        0.440000


          ...................................................
          :                      SETUP                      :
          :.................................................:
          :  # basis functions                 624          :
          :  # atomic orbitals                 624          :
          :  # shells                          380          :
          :  # electrons                       574          :
          :  # halogen bonds                     0          :
          :  max. iterations                   250          :
          :  Hamiltonian                  GFN1-xTB          :
          :  restarted?                      false          :
          :  GBSA solvation                  false          :
          :  PC potential                    false          :
          :  electronic temp.          300.0000000     K    :
          :  accuracy                    1.0000000          :
          :  -> integral cutoff          0.2500000E+02      :
          :  -> integral neglect         0.1000000E-07      :
          :  -> SCF convergence          0.1000000E-05 Eh   :
          :  -> wf. convergence          0.2000000E-04 e    :
          :  Broyden damping             0.4000000          :
          ...................................................

 iter      E             dE          RMSdq      gap      omega  full diag
   1   -317.3752287 -0.317375E+03  0.101E+01    0.02       0.0  T
   2   -317.1920227  0.183206E+00  0.614E+00    0.02       1.0  T
   3   -281.7391082  0.354529E+02  0.583E+00    0.09       1.0  T
   4   -285.8533362 -0.411423E+01  0.415E+00    0.19       1.0  T
   5   -303.8541899 -0.180009E+02  0.331E+00    0.00       1.0  T
   6   -315.1393773 -0.112852E+02  0.181E+00    0.44       1.0  T
   7   -316.0969317 -0.957554E+00  0.140E+00    0.53       1.0  T
   8   -315.1639846  0.932947E+00  0.160E+00    0.05       1.0  T
   9   -316.4412697 -0.127729E+01  0.102E+00    0.05       1.0  T
  10   -317.3125035 -0.871234E+00  0.635E-01    0.01       1.0  T
  11   -317.7090940 -0.396591E+00  0.291E-01    0.05       1.0  T
  12   -317.6518235  0.572706E-01  0.370E-01    0.01       1.0  T
  13   -317.7098807 -0.580573E-01  0.255E-01    0.10       1.0  T
  14   -317.3372136  0.372667E+00  0.689E-01    0.10       1.0  T
  15   -317.7136611 -0.376447E+00  0.226E-01    0.12       1.0  T
  16   -317.6781730  0.354881E-01  0.268E-01    0.02       1.0  T
  17   -317.7297527 -0.515797E-01  0.161E-01    0.08       1.0  T
  18   -317.7350326 -0.527987E-02  0.133E-01    0.08       1.0  T
  19   -317.7364270 -0.139443E-02  0.117E-01    0.06       1.0  T
  20   -317.7459283 -0.950126E-02  0.809E-02    0.08       1.0  T
  21   -317.7476589 -0.173064E-02  0.620E-02    0.07       1.0  T
  22   -317.7484581 -0.799256E-03  0.502E-02    0.07       1.0  T
  23   -317.7489628 -0.504627E-03  0.394E-02    0.06       1.0  T
  24   -317.7488213  0.141469E-03  0.390E-02    0.06       1.0  T
  25   -317.7495852 -0.763875E-03  0.227E-02    0.06       1.0  T
  26   -317.7495109  0.742822E-04  0.220E-02    0.06       1.0  T
  27   -317.7497479 -0.237021E-03  0.121E-02    0.06       1.0  T
  28   -317.7496128  0.135117E-03  0.163E-02    0.06       1.0  T
  29   -317.7497020 -0.891730E-04  0.128E-02    0.06       1.0  T
  30   -317.7498218 -0.119788E-03  0.446E-03    0.06       1.6  T
  31   -317.7498354 -0.136089E-04  0.108E-03    0.06       6.7  T
  32   -317.7498328  0.260954E-05  0.194E-03    0.06       3.7  T
  33   -317.7498343 -0.156909E-05  0.155E-03    0.06       4.7  T
  34   -317.7498361 -0.175727E-05  0.671E-04    0.06      10.8  T
  35   -317.7498363 -0.183480E-06  0.469E-04    0.06      15.5  T
  36   -317.7498365 -0.189972E-06  0.673E-05    0.06     107.7  T
  37   -317.7498365  0.886814E-09  0.650E-05    0.06     111.6  T

   *** convergence criteria satisfied after 37 iterations ***

         #    Occupation            Energy/Eh            Energy/eV
      -------------------------------------------------------------
         1        2.0000           -0.7949776             -21.6324
       ...           ...                  ...                  ...
       281        2.0000           -0.3990161             -10.8578
       282        2.0000           -0.3912568             -10.6466
       283        2.0000           -0.3900719             -10.6144
       284        2.0000           -0.3843352             -10.4583
       285        2.0000           -0.3728831             -10.1467
       286        1.9998           -0.3715411             -10.1101
       287        1.3236           -0.3633524              -9.8873 (HOMO)
       288        0.3423           -0.3612159              -9.8292 (LUMO)
       289        0.3343           -0.3611890              -9.8285
       290        0.0000           -0.3489931              -9.4966
       291                         -0.3464354              -9.4270
       292                         -0.3450988              -9.3906
       ...                                ...                  ...
       624                          1.2719866              34.6125
      -------------------------------------------------------------
                  HL-Gap            0.0021365 Eh            0.0581 eV
             Fermi-level           -0.3627146 Eh           -9.8700 eV

 SCC (total)                   0 d,  0 h,  0 min,  4.673 sec
 SCC setup                      ...        0 min,  0.010 sec (  0.223%)
 Dispersion                     ...        0 min,  0.006 sec (  0.138%)
 classical contributions        ...        0 min,  0.002 sec (  0.051%)
 integral evaluation            ...        0 min,  0.177 sec (  3.791%)
 iterations                     ...        0 min,  4.002 sec ( 85.638%)
 molecular gradient             ...        0 min,  0.450 sec (  9.628%)
 printout                       ...        0 min,  0.025 sec (  0.531%)

         :::::::::::::::::::::::::::::::::::::::::::::::::::::
         ::                     SUMMARY                     ::
         :::::::::::::::::::::::::::::::::::::::::::::::::::::
         :: total energy            -312.935634211801 Eh    ::
         :: gradient norm              0.600673371929 Eh/a0 ::
         :: HOMO-LUMO gap              0.058136744920 eV    ::
         ::.................................................::
         :: SCC energy              -317.749836457235 Eh    ::
         :: -> electrostatic           0.263555903428 Eh    ::
         :: repulsion energy           4.967088939560 Eh    ::
         :: dispersion energy         -0.152886694126 Eh    ::
         :: halogen bond corr.         0.000000000000 Eh    ::
         :: add. restraining           0.000000000000 Eh    ::
         :: total charge              -0.000000000182 e     ::
         :::::::::::::::::::::::::::::::::::::::::::::::::::::

      ----------------------------------------------------------- 
     |                   =====================                   |
     |                        A N C O P T                        |
     |                   =====================                   |
     |               Approximate Normal Coordinate               |
     |                Rational Function Optimizer                |
      ----------------------------------------------------------- 

          ...................................................
          :                      SETUP                      :
          :.................................................:
          :   optimization level            normal          :
          :   max. optcycles                   570          :
          :   ANC micro-cycles                  20          :
          :   degrees of freedom               564          :
          :.................................................:
          :   RF solver                   davidson          :
          :   write xtbopt.log                true          :
          :   linear?                        false          :
          :   energy convergence         0.5000000E-05 Eh   :
          :   grad. convergence          0.1000000E-02 Eh/α :
          :   maximium RF displ.         1.0000000          :
          :   Hlow (freq-cutoff)         0.1000000E-01      :
          :   Hmax (freq-cutoff)         5.0000000          :
          :   S6 in model hess.         20.0000000          :
          ...................................................

generating ANC from model Hessian ...
Using Lindh-Hessian (1995)
 Shifting diagonal of input Hessian by    1.0013363085734145E-002
 Lowest  eigenvalues of input Hessian
    0.010000    0.010007    0.010012    0.010012    0.000000    0.000000
    0.000000    0.000000    0.000000    0.000000    0.010014    0.010015
    0.010018    0.010023    0.010030    0.010033    0.010083    0.010097
 Highest eigenvalues
    2.098593    2.104666    2.139407    2.139408    2.443622    2.552048


........................................................................
.............................. CYCLE    1 ..............................
........................................................................
   1   -317.7498365 -0.317750E+03  0.376E-05    0.06       0.0  T
   2   -317.7498356  0.872319E-06  0.917E-04    0.06       7.9  T
   3   -317.7498364 -0.823443E-06  0.230E-04    0.06      31.5  T
   4   -317.7498365 -0.499721E-07  0.150E-05    0.06     483.7  T
   5   -317.7498365 -0.100727E-09  0.861E-06    0.06     842.3  T
     SCC iter.                  ...        0 min,  0.583 sec
     gradient                   ...        0 min,  0.432 sec
 * total energy  :  -312.9356342 Eh     change       -0.3702382E-08 Eh
   gradient norm :     0.6006728 Eh/α   predicted     0.0000000E+00 (-100.00%)
   displ. norm   :     0.4964002 α      lambda       -0.2514016E+00
   maximum displ.:     0.1264056 α      in ANC's #465, #432, #305, ...

........................................................................
.............................. CYCLE    2 ..............................
........................................................................
   1   -317.8715600 -0.317872E+03  0.218E-01    0.07       0.0  T
   2   -317.3347869  0.536773E+00  0.864E-01    0.21       1.0  T
   3   -317.8064652 -0.471678E+00  0.356E-01    0.13       1.0  T
   4   -317.8515710 -0.451057E-01  0.206E-01    0.04       1.0  T
   5   -317.8549955 -0.342454E-02  0.224E-01    0.16       1.0  T
   6   -317.8739411 -0.189456E-01  0.144E-01    0.07       1.0  T
   7   -317.8762760 -0.233493E-02  0.114E-01    0.09       1.0  T
   8   -317.8838401 -0.756402E-02  0.741E-02    0.06       1.0  T
   9   -317.8865409 -0.270083E-02  0.437E-02    0.08       1.0  T
  10   -317.8872723 -0.731435E-03  0.303E-02    0.08       1.0  T
  11   -317.8863447  0.927655E-03  0.430E-02    0.07       1.0  T
  12   -317.8879015 -0.155685E-02  0.176E-02    0.08       1.0  T
  13   -317.8881605 -0.258945E-03  0.576E-03    0.08       1.3  T
  14   -317.8881880 -0.275300E-04  0.304E-03    0.08       2.4  T
  15   -317.8881755  0.125320E-04  0.432E-03    0.08       1.7  T
  16   -317.8881928 -0.173290E-04  0.130E-03    0.08       5.6  T
  17   -317.8881943 -0.145969E-05  0.243E-04    0.08      29.9  T
  18   -317.8881942  0.139721E-07  0.239E-04    0.08      30.3  T
  19   -317.8881942  0.411437E-07  0.315E-04    0.08      23.1  T
  20   -317.8881943 -0.861938E-07  0.983E-05    0.08      73.8  T
  21   -317.8881943 -0.941708E-08  0.139E-05    0.08     522.5  T
     SCC iter.                  ...        0 min,  2.667 sec
     gradient                   ...        0 min,  0.429 sec
 * total energy  :  -313.1485590 Eh     change       -0.2129248E+00 Eh
   gradient norm :     0.3987859 Eh/α   predicted    -0.1566945E+00 ( -26.41%)
   displ. norm   :     0.6249522 α      lambda       -0.2182413E+00
   maximum displ.:     0.1381147 α      in ANC's #465, #305, #563, ...

........................................................................
.............................. CYCLE    3 ..............................
........................................................................
   1   -318.1134306 -0.318113E+03  0.227E-01    0.20       0.0  T
   2   -317.5427378  0.570693E+00  0.917E-01    0.13       1.0  T
   3   -317.8869707 -0.344233E+00  0.544E-01    0.03       1.0  T
   4   -318.1042488 -0.217278E+00  0.212E-01    0.25       1.0  T
   5   -318.0381719  0.660769E-01  0.339E-01    0.01       1.0  T
   6   -318.1195655 -0.813935E-01  0.134E-01    0.21       1.0  T
   7   -318.1189648  0.600629E-03  0.129E-01    0.22       1.0  T
   8   -318.1218484 -0.288362E-02  0.109E-01    0.20       1.0  T
   9   -318.1240485 -0.220010E-02  0.907E-02    0.21       1.0  T
  10   -318.1263592 -0.231062E-02  0.723E-02    0.17       1.0  T
  11   -318.1203502  0.600895E-02  0.995E-02    0.08       1.0  T
  12   -318.1283922 -0.804198E-02  0.497E-02    0.15       1.0  T
  13   -318.1281382  0.253936E-03  0.501E-02    0.12       1.0  T
  14   -318.1286619 -0.523653E-03  0.433E-02    0.13       1.0  T
  15   -318.1298215 -0.115965E-02  0.242E-02    0.13       1.0  T
  16   -318.1303137 -0.492199E-03  0.449E-03    0.12       1.6  T
  17   -318.1303110  0.274692E-05  0.441E-03    0.11       1.6  T
  18   -318.1303286 -0.176185E-04  0.304E-04    0.12      23.9  T
  19   -318.1303278  0.837279E-06  0.105E-03    0.12       6.9  T
  20   -318.1303284 -0.622111E-06  0.512E-04    0.12      14.2  T
  21   -318.1303286 -0.158284E-06  0.321E-04    0.12      22.6  T
  22   -318.1303287 -0.927904E-07  0.404E-05    0.12     179.8  T
  23   -318.1303287 -0.126852E-08  0.296E-05    0.12     245.5  T
     SCC iter.                  ...        0 min,  2.599 sec
     gradient                   ...        0 min,  0.438 sec
 * total energy  :  -313.2390249 Eh     change       -0.9046594E-01 Eh
   gradient norm :     0.3735411 Eh/α   predicted    -0.1517583E+00 (  67.75%)
   displ. norm   :     0.4346625 α      lambda       -0.9717190E-01
   maximum displ.:     0.0984124 α      in ANC's #151, #49, #110, ...

........................................................................
.............................. CYCLE    4 ..............................
........................................................................
   1   -318.0985355 -0.318099E+03  0.145E-01    0.11       0.0  T
   2   -317.8470939  0.251442E+00  0.640E-01    0.06       1.0  T
   3   -318.0298894 -0.182795E+00  0.375E-01    0.08       1.0  T
   4   -318.0965276 -0.666383E-01  0.143E-01    0.19       1.0  T
   5   -317.8269402  0.269587E+00  0.564E-01    0.06       1.0  T
   6   -317.9969015 -0.169961E+00  0.362E-01    0.01       1.0  T
   7   -318.0844730 -0.875715E-01  0.161E-01    0.05       1.0  T
   8   -318.1007750 -0.163020E-01  0.106E-01    0.14       1.0  T
   9   -318.1010757 -0.300727E-03  0.101E-01    0.16       1.0  T
  10   -318.1043050 -0.322928E-02  0.714E-02    0.14       1.0  T
  11   -318.1056058 -0.130081E-02  0.587E-02    0.12       1.0  T
  12   -318.1055692  0.365940E-04  0.591E-02    0.12       1.0  T
  13   -318.1066326 -0.106335E-02  0.482E-02    0.12       1.0  T
  14   -318.1082676 -0.163500E-02  0.207E-02    0.12       1.0  T
  15   -318.1081983  0.692332E-04  0.200E-02    0.10       1.0  T
  16   -318.1085833 -0.385030E-03  0.612E-03    0.10       1.2  T
  17   -318.1086096 -0.262095E-04  0.353E-03    0.10       2.1  T
  18   -318.1086173 -0.770097E-05  0.197E-03    0.10       3.7  T
  19   -318.1086206 -0.335630E-05  0.585E-04    0.10      12.4  T
  20   -318.1086209 -0.308529E-06  0.108E-04    0.10      67.2  T
  21   -318.1086209  0.459394E-07  0.238E-04    0.10      30.4  T
  22   -318.1086209 -0.534758E-07  0.516E-05    0.10     140.6  T
     SCC iter.                  ...        0 min,  2.633 sec
     gradient                   ...        0 min,  0.432 sec
 * total energy  :  -313.2818127 Eh     change       -0.4278780E-01 Eh
   gradient norm :     0.1067319 Eh/α   predicted    -0.5776540E-01 (  35.00%)
   displ. norm   :     0.6316438 α      lambda       -0.2938558E-01
   maximum displ.:     0.2371629 α      in ANC's #49, #48, #110, ...

........................................................................
.............................. CYCLE    5 ..............................
........................................................................
   1   -318.1927288 -0.318193E+03  0.570E-02    0.08       0.0  T
   2   -318.1472029  0.455259E-01  0.253E-01    0.04       1.0  T
   3   -318.1806536 -0.334507E-01  0.139E-01    0.25       1.0  T
   4   -318.1930496 -0.123961E-01  0.481E-02    0.13       1.0  T
   5   -318.1940970 -0.104736E-02  0.330E-02    0.11       1.0  T
   6   -318.1924748  0.162224E-02  0.504E-02    0.08       1.0  T
   7   -318.1934300 -0.955250E-03  0.372E-02    0.11       1.0  T
   8   -318.1944303 -0.100034E-02  0.195E-02    0.11       1.0  T
   9   -318.1947071 -0.276745E-03  0.308E-03    0.10       2.4  T
  10   -318.1947115 -0.437122E-05  0.179E-03    0.10       4.1  T
  11   -318.1947143 -0.279689E-05  0.538E-04    0.10      13.5  T
  12   -318.1947141  0.145755E-06  0.654E-04    0.10      11.1  T
  13   -318.1947139  0.258703E-06  0.792E-04    0.10       9.2  T
  14   -318.1947144 -0.508138E-06  0.268E-04    0.10      27.0  T
  15   -318.1947144 -0.178406E-07  0.209E-04    0.10      34.8  T
  16   -318.1947144 -0.393197E-07  0.374E-05    0.10     194.2  T
  17   -318.1947144 -0.104410E-08  0.625E-06    0.10    1160.8  T
     SCC iter.                  ...        0 min,  2.055 sec
     gradient                   ...        0 min,  0.443 sec
 * total energy  :  -313.3049563 Eh     change       -0.2314361E-01 Eh
   gradient norm :     0.0584334 Eh/α   predicted    -0.2055492E-01 ( -11.19%)
   displ. norm   :     0.7635175 α      lambda       -0.2341998E-01
   maximum displ.:     0.3019771 α      in ANC's #49, #48, #110, ...

........................................................................
.............................. CYCLE    6 ..............................
........................................................................
   1   -318.2958278 -0.318296E+03  0.712E-02    0.08       0.0  T
   2   -318.2570362  0.387916E-01  0.272E-01    0.06       1.0  T
   3   -318.2849768 -0.279406E-01  0.144E-01    0.23       1.0  T
   4   -318.2954932 -0.105164E-01  0.733E-02    0.11       1.0  T
   5   -318.2957418 -0.248549E-03  0.722E-02    0.09       1.0  T
   6   -318.2986684 -0.292657E-02  0.316E-02    0.09       1.0  T
   7   -318.2973846  0.128380E-02  0.472E-02    0.09       1.0  T
   8   -318.2992102 -0.182561E-02  0.238E-02    0.11       1.0  T
   9   -318.2995547 -0.344548E-03  0.746E-03    0.10       1.0  T
  10   -318.2995655 -0.107565E-04  0.564E-03    0.10       1.3  T
  11   -318.2995841 -0.186186E-04  0.330E-03    0.10       2.2  T
  12   -318.2995945 -0.104326E-04  0.538E-04    0.10      13.5  T
  13   -318.2995948 -0.227611E-06  0.126E-04    0.10      57.5  T
  14   -318.2995947  0.160739E-07  0.173E-04    0.10      42.0  T
     SCC iter.                  ...        0 min,  1.659 sec
     gradient                   ...        0 min,  0.438 sec
 * total energy  :  -313.3225783 Eh     change       -0.1762197E-01 Eh
   gradient norm :     0.0435217 Eh/α   predicted    -0.1853646E-01 (   5.19%)
   displ. norm   :     0.7721009 α      lambda       -0.1499444E-01
   maximum displ.:     0.3305906 α      in ANC's #49, #48, #42, ...

........................................................................
.............................. CYCLE    7 ..............................
........................................................................
   1   -318.3635073 -0.318364E+03  0.306E-02    0.09       0.0  T
   2   -318.3536695  0.983772E-02  0.121E-01    0.09       1.0  T
   3   -318.3610878 -0.741829E-02  0.591E-02    0.10       1.0  T
   4   -318.3629908 -0.190296E-02  0.334E-02    0.09       1.0  T
   5   -318.3634958 -0.504971E-03  0.273E-02    0.10       1.0  T
   6   -318.3634951  0.689885E-06  0.243E-02    0.11       1.0  T
   7   -318.3631576  0.337435E-03  0.301E-02    0.09       1.0  T
   8   -318.3638082 -0.650569E-03  0.127E-02    0.10       1.0  T
   9   -318.3639588 -0.150624E-03  0.251E-03    0.10       2.9  T
  10   -318.3639624 -0.359113E-05  0.153E-03    0.10       4.7  T
  11   -318.3639646 -0.221653E-05  0.343E-04    0.10      21.2  T
  12   -318.3639647 -0.808353E-07  0.161E-04    0.10      45.1  T
  13   -318.3639647 -0.216099E-07  0.431E-05    0.10     168.5  T
     SCC iter.                  ...        0 min,  1.554 sec
     gradient                   ...        0 min,  0.428 sec
 * total energy  :  -313.3343752 Eh     change       -0.1179691E-01 Eh
   gradient norm :     0.0360850 Eh/α   predicted    -0.1196667E-01 (   1.44%)
   displ. norm   :     0.8213507 α      lambda       -0.1207961E-01
   maximum displ.:     0.3616734 α      in ANC's #49, #48, #11, ...

........................................................................
.............................. CYCLE    8 ..............................
........................................................................
   1   -318.3961880 -0.318396E+03  0.327E-02    0.11       0.0  T
   2   -318.1904477  0.205740E+00  0.495E-01    0.05       1.0  T
   3   -318.3757440 -0.185296E+00  0.157E-01    0.05       1.0  T
   4   -318.3960614 -0.203174E-01  0.332E-02    0.12       1.0  T
   5   -318.3966261 -0.564674E-03  0.178E-02    0.10       1.0  T
   6   -318.3967906 -0.164543E-03  0.112E-02    0.11       1.0  T
   7   -318.3967815  0.912661E-05  0.115E-02    0.10       1.0  T
   8   -318.3968405 -0.589827E-04  0.436E-03    0.10       1.7  T
   9   -318.3968495 -0.905689E-05  0.297E-03    0.10       2.4  T
  10   -318.3968550 -0.549659E-05  0.167E-03    0.10       4.3  T
  11   -318.3968578 -0.279163E-05  0.229E-04    0.10      31.7  T
  12   -318.3968578  0.180012E-08  0.238E-04    0.10      30.4  T
  13   -318.3968578 -0.279513E-07  0.150E-04    0.10      48.5  T
  14   -318.3968579 -0.216177E-07  0.395E-05    0.10     183.8  T
     SCC iter.                  ...        0 min,  1.726 sec
     gradient                   ...        0 min,  0.442 sec
 * total energy  :  -313.3435527 Eh     change       -0.9177459E-02 Eh
   gradient norm :     0.0314132 Eh/α   predicted    -0.1011437E-01 (  10.21%)
   displ. norm   :     0.8418791 α      lambda       -0.1226609E-01
   maximum displ.:     0.4453260 α      in ANC's #49, #48, #11, ...

........................................................................
.............................. CYCLE    9 ..............................
........................................................................
   1   -318.4185369 -0.318419E+03  0.657E-02    0.15       0.0  T
   2   -318.1418389  0.276698E+00  0.590E-01    0.02       1.0  T
   3   -318.4172131 -0.275374E+00  0.784E-02    0.10       1.0  T
   4   -318.4193142 -0.210118E-02  0.534E-02    0.13       1.0  T
   5   -318.4201939 -0.879621E-03  0.385E-02    0.12       1.0  T
   6   -318.4214486 -0.125474E-02  0.105E-02    0.11       1.0  T
   7   -318.4214274  0.212483E-04  0.106E-02    0.10       1.0  T
   8   -318.4214238  0.360492E-05  0.889E-03    0.11       1.0  T
   9   -318.4214937 -0.698960E-04  0.176E-03    0.11       4.1  T
  10   -318.4214963 -0.268215E-05  0.395E-04    0.11      18.4  T
  11   -318.4214954  0.926098E-06  0.993E-04    0.11       7.3  T
  12   -318.4214964 -0.976124E-06  0.189E-04    0.11      38.4  T
  13   -318.4214964 -0.310501E-07  0.509E-05    0.11     142.4  T
     SCC iter.                  ...        0 min,  1.617 sec
     gradient                   ...        0 min,  0.449 sec
 * total energy  :  -313.3519947 Eh     change       -0.8442074E-02 Eh
   gradient norm :     0.0390654 Eh/α   predicted    -0.1047991E-01 (  24.14%)
   displ. norm   :     0.7945398 α      lambda       -0.1107544E-01
   maximum displ.:     0.3185622 α      in ANC's #49, #48, #42, ...

........................................................................
.............................. CYCLE   10 ..............................
........................................................................
   1   -318.4224967 -0.318422E+03  0.856E-02    0.20       0.0  T
   2   -318.1105958  0.311901E+00  0.620E-01    0.01       1.0  T
   3   -318.4159669 -0.305371E+00  0.157E-01    0.20       1.0  T
   4   -318.4242690 -0.830210E-02  0.718E-02    0.19       1.0  T
   5   -318.4265405 -0.227149E-02  0.439E-02    0.14       1.0  T
   6   -318.4271645 -0.623938E-03  0.247E-02    0.12       1.0  T
   7   -318.4263746  0.789884E-03  0.390E-02    0.11       1.0  T
   8   -318.4273920 -0.101740E-02  0.186E-02    0.11       1.0  T
   9   -318.4276493 -0.257283E-03  0.526E-03    0.12       1.4  T
  10   -318.4276746 -0.253477E-04  0.121E-03    0.12       6.0  T
  11   -318.4276758 -0.123808E-05  0.455E-04    0.12      16.0  T
  12   -318.4276759 -0.104124E-06  0.277E-04    0.12      26.2  T
  13   -318.4276760 -0.637474E-07  0.652E-05    0.12     111.2  T
  14   -318.4276760  0.767574E-08  0.110E-04    0.12      65.8  T
     SCC iter.                  ...        0 min,  1.729 sec
     gradient                   ...        0 min,  0.449 sec
 * total energy  :  -313.3629444 Eh     change       -0.1094964E-01 Eh
   gradient norm :     0.0376534 Eh/α   predicted    -0.9033649E-02 ( -17.50%)
   displ. norm   :     0.8962564 α      lambda       -0.1625138E-01
   maximum displ.:     0.3029258 α      in ANC's #42, #11, #49, ...

........................................................................
.............................. CYCLE   11 ..............................
........................................................................
   1   -318.3960293 -0.318396E+03  0.111E-01    0.32       0.0  T
   2   -318.1822760  0.213753E+00  0.513E-01    0.03       1.0  T
   3   -318.3847162 -0.202440E+00  0.211E-01    0.21       1.0  T
   4   -318.4003272 -0.156110E-01  0.770E-02    0.23       1.0  T
   5   -318.4009617 -0.634565E-03  0.672E-02    0.26       1.0  T
   6   -318.4027119 -0.175015E-02  0.282E-02    0.22       1.0  T
   7   -318.4005729  0.213896E-02  0.543E-02    0.12       1.0  T
   8   -318.4022459 -0.167301E-02  0.322E-02    0.14       1.0  T
   9   -318.4030794 -0.833451E-03  0.835E-03    0.17       1.0  T
  10   -318.4031177 -0.383052E-04  0.247E-03    0.18       2.9  T
  11   -318.4031187 -0.100832E-05  0.226E-03    0.18       3.2  T
  12   -318.4031217 -0.302233E-05  0.861E-04    0.18       8.4  T
  13   -318.4031221 -0.340182E-06  0.317E-04    0.18      22.9  T
  14   -318.4031221  0.357153E-08  0.314E-04    0.18      23.1  T
  15   -318.4031221 -0.634039E-07  0.167E-04    0.18      43.4  T
  16   -318.4031221 -0.213284E-07  0.590E-05    0.18     123.0  T
     SCC iter.                  ...        0 min,  2.089 sec
     gradient                   ...        0 min,  0.451 sec
 * total energy  :  -313.3777413 Eh     change       -0.1479688E-01 Eh
   gradient norm :     0.0604532 Eh/α   predicted    -0.1465285E-01 (  -0.97%)
   displ. norm   :     0.9329169 α      lambda       -0.1623006E-01
   maximum displ.:     0.3404644 α      in ANC's #49, #48, #11, ...

........................................................................
.............................. CYCLE   12 ..............................
........................................................................
   1   -318.3668739 -0.318367E+03  0.902E-02    0.48       0.0  T
   2   -318.3629990  0.387486E-02  0.166E-01    0.29       1.0  T
   3   -318.3704520 -0.745297E-02  0.411E-02    0.32       1.0  T
   4   -318.3703173  0.134705E-03  0.336E-02    0.36       1.0  T
   5   -318.3706382 -0.320868E-03  0.131E-02    0.33       1.0  T
   6   -318.3706688 -0.305949E-04  0.734E-03    0.34       1.0  T
   7   -318.3706883 -0.195170E-04  0.158E-03    0.34       4.6  T
   8   -318.3706894 -0.107582E-05  0.609E-04    0.34      11.9  T
   9   -318.3706894 -0.825794E-07  0.211E-04    0.34      34.4  T
  10   -318.3706895 -0.942038E-08  0.132E-04    0.34      54.8  T
  11   -318.3706895 -0.622128E-08  0.458E-05    0.34     158.2  T
     SCC iter.                  ...        0 min,  1.390 sec
     gradient                   ...        0 min,  0.449 sec
 * total energy  :  -313.3940151 Eh     change       -0.1627386E-01 Eh
   gradient norm :     0.1052003 Eh/α   predicted    -0.1517782E-01 (  -6.73%)
   displ. norm   :     0.9372854 α      lambda       -0.2101159E-01
   maximum displ.:     0.2506682 α      in ANC's #48, #11, #49, ...

........................................................................
.............................. CYCLE   13 ..............................
........................................................................
   1   -318.2993038 -0.318299E+03  0.124E-01    0.96       0.0  T
   2   -318.3000940 -0.790198E-03  0.138E-01    0.97       1.0  T
   3   -318.3042762 -0.418218E-02  0.381E-02    0.98       1.0  T
   4   -318.3040799  0.196282E-03  0.285E-02    1.03       1.0  T
   5   -318.3043476 -0.267660E-03  0.124E-02    1.01       1.0  T
   6   -318.3043890 -0.414436E-04  0.305E-03    1.02       2.4  T
   7   -318.3043917 -0.271456E-05  0.122E-03    1.02       6.0  T
   8   -318.3043923 -0.562910E-06  0.632E-04    1.02      11.5  T
   9   -318.3043924 -0.124950E-06  0.287E-04    1.02      25.2  T
  10   -318.3043924 -0.267889E-07  0.873E-05    1.02      83.1  T
  11   -318.3043924 -0.192642E-08  0.361E-05    1.02     201.1  T
     SCC iter.                  ...        0 min,  1.226 sec
     gradient                   ...        0 min,  0.444 sec
 * total energy  :  -313.4097820 Eh     change       -0.1576684E-01 Eh
   gradient norm :     0.1724030 Eh/α   predicted    -0.1973520E-01 (  25.17%)
   displ. norm   :     0.8605403 α      lambda       -0.1905636E-01
   maximum displ.:     0.3198394 α      in ANC's #42, #48, #49, ...

........................................................................
.............................. CYCLE   14 ..............................
........................................................................
   1   -318.2671320 -0.318267E+03  0.761E-02    1.07       0.0  T
   2   -318.2674661 -0.334072E-03  0.603E-02    1.07       1.0  T
   3   -318.2677216 -0.255513E-03  0.313E-02    1.07       1.0  T
   4   -318.2676296  0.919817E-04  0.151E-02    1.07       1.0  T
   5   -318.2677437 -0.114089E-03  0.533E-03    1.07       1.4  T
   6   -318.2677580 -0.142999E-04  0.110E-03    1.07       6.6  T
   7   -318.2677585 -0.505484E-06  0.480E-04    1.07      15.1  T
   8   -318.2677586 -0.905280E-07  0.232E-04    1.07      31.2  T
   9   -318.2677586 -0.222495E-07  0.101E-04    1.07      72.0  T
  10   -318.2677586 -0.285559E-08  0.490E-05    1.07     148.2  T
     SCC iter.                  ...        0 min,  1.208 sec
     gradient                   ...        0 min,  0.440 sec
 * total energy  :  -313.4237845 Eh     change       -0.1400253E-01 Eh
   gradient norm :     0.2200458 Eh/α   predicted    -0.1658406E-01 (  18.44%)
   displ. norm   :     0.5776904 α      lambda       -0.1826051E-01
   maximum displ.:     0.2683940 α      in ANC's #49, #11, #48, ...

........................................................................
.............................. CYCLE   15 ..............................
........................................................................
   1   -318.2703604 -0.318270E+03  0.250E-02    1.09       0.0  T
   2   -318.2704024 -0.419738E-04  0.204E-02    1.09       1.0  T
   3   -318.2704350 -0.326057E-04  0.100E-02    1.09       1.0  T
   4   -318.2704110  0.239827E-04  0.759E-03    1.09       1.0  T
   5   -318.2704396 -0.286240E-04  0.149E-03    1.09       4.9  T
   6   -318.2704407 -0.109210E-05  0.524E-04    1.09      13.8  T
   7   -318.2704408 -0.148186E-06  0.234E-04    1.09      31.0  T
   8   -318.2704409 -0.258959E-07  0.847E-05    1.09      85.6  T
   9   -318.2704409 -0.199140E-08  0.436E-05    1.09     166.2  T
     SCC iter.                  ...        0 min,  1.060 sec
     gradient                   ...        0 min,  0.446 sec
 * total energy  :  -313.4403979 Eh     change       -0.1661342E-01 Eh
   gradient norm :     0.2347449 Eh/α   predicted    -0.1217729E-01 ( -26.70%)
   displ. norm   :     0.6096379 α      lambda       -0.5644576E-01
   maximum displ.:     0.1843898 α      in ANC's #49, #48, #32, ...

........................................................................
.............................. CYCLE   16 ..............................
........................................................................
   1   -318.3220161 -0.318322E+03  0.761E-02    1.16       0.0  T
   2   -318.3221825 -0.166389E-03  0.512E-02    1.16       1.0  T
   3   -318.3222718 -0.892718E-04  0.287E-02    1.16       1.0  T
   4   -318.3222491  0.227112E-04  0.223E-02    1.16       1.0  T
   5   -318.3224669 -0.217833E-03  0.413E-03    1.16       1.8  T
   6   -318.3224718 -0.484308E-05  0.903E-04    1.16       8.0  T
   7   -318.3224720 -0.230962E-06  0.420E-04    1.16      17.3  T
   8   -318.3224721 -0.834646E-07  0.151E-04    1.16      48.0  T
   9   -318.3224721 -0.666984E-08  0.882E-05    1.16      82.2  T
     SCC iter.                  ...        0 min,  1.048 sec
     gradient                   ...        0 min,  0.440 sec
 * total energy  :  -313.4752757 Eh     change       -0.3487783E-01 Eh
   gradient norm :     0.2473957 Eh/α   predicted    -0.3871210E-01 (  10.99%)
   displ. norm   :     0.7054060 α      lambda       -0.4616245E-01
   maximum displ.:     0.2364249 α      in ANC's #49, #48, #11, ...

........................................................................
.............................. CYCLE   17 ..............................
........................................................................
   1   -318.3195777 -0.318320E+03  0.485E-02    1.08       0.0  T
   2   -318.3196868 -0.109107E-03  0.515E-02    1.09       1.0  T
   3   -318.3200038 -0.317025E-03  0.247E-02    1.09       1.0  T
   4   -318.3197471  0.256752E-03  0.256E-02    1.08       1.0  T
   5   -318.3200095 -0.262493E-03  0.351E-03    1.09       2.1  T
   6   -318.3200129 -0.334733E-05  0.100E-03    1.09       7.2  T
   7   -318.3200135 -0.559017E-06  0.395E-04    1.09      18.4  T
   8   -318.3200135 -0.889428E-07  0.134E-04    1.09      54.2  T
   9   -318.3200135 -0.570122E-08  0.655E-05    1.09     110.7  T
     SCC iter.                  ...        0 min,  1.024 sec
     gradient                   ...        0 min,  0.448 sec
 * total energy  :  -313.5118859 Eh     change       -0.3661014E-01 Eh
   gradient norm :     0.1859402 Eh/α   predicted    -0.3456639E-01 (  -5.58%)
   displ. norm   :     0.5604080 α      lambda       -0.5192326E-01
   maximum displ.:     0.1678482 α      in ANC's #48, #49, #11, ...

........................................................................
.............................. CYCLE   18 ..............................
........................................................................
   1   -318.3319989 -0.318332E+03  0.572E-02    1.02       0.0  T
   2   -318.3324115 -0.412623E-03  0.390E-02    1.02       1.0  T
   3   -318.3325536 -0.142062E-03  0.208E-02    1.03       1.0  T
   4   -318.3324938  0.598171E-04  0.193E-02    1.02       1.0  T
   5   -318.3326286 -0.134803E-03  0.506E-03    1.03       1.4  T
   6   -318.3326397 -0.111257E-04  0.174E-03    1.03       4.2  T
   7   -318.3326416 -0.187127E-05  0.408E-04    1.03      17.8  T
   8   -318.3326416 -0.790662E-07  0.177E-04    1.03      41.1  T
   9   -318.3326416 -0.110293E-07  0.873E-05    1.03      83.1  T
     SCC iter.                  ...        0 min,  1.128 sec
     gradient                   ...        0 min,  0.439 sec
 * total energy  :  -313.5397920 Eh     change       -0.2790609E-01 Eh
   gradient norm :     0.1046453 Eh/α   predicted    -0.3411507E-01 (  22.25%)
   displ. norm   :     0.7722967 α      lambda       -0.3664229E-01
   maximum displ.:     0.3107505 α      in ANC's #48, #11, #49, ...

........................................................................
.............................. CYCLE   19 ..............................
........................................................................
   1   -318.3541200 -0.318354E+03  0.497E-02    0.98       0.0  T
   2   -318.3543360 -0.215986E-03  0.467E-02    0.97       1.0  T
   3   -318.3545385 -0.202478E-03  0.229E-02    0.98       1.0  T
   4   -318.3543958  0.142666E-03  0.177E-02    0.98       1.0  T
   5   -318.3545370 -0.141202E-03  0.388E-03    0.98       1.9  T
   6   -318.3545455 -0.850030E-05  0.132E-03    0.98       5.5  T
   7   -318.3545464 -0.908928E-06  0.519E-04    0.98      14.0  T
   8   -318.3545466 -0.172905E-06  0.161E-04    0.98      45.1  T
   9   -318.3545466 -0.972005E-08  0.809E-05    0.98      89.7  T
     SCC iter.                  ...        0 min,  1.079 sec
     gradient                   ...        0 min,  0.446 sec
 * total energy  :  -313.5628477 Eh     change       -0.2305569E-01 Eh
   gradient norm :     0.1020871 Eh/α   predicted    -0.2924863E-01 (  26.86%)
   displ. norm   :     0.6304681 α      lambda       -0.4313380E-01
   maximum displ.:     0.1669724 α      in ANC's #11, #48, #305, ...

........................................................................
.............................. CYCLE   20 ..............................
........................................................................
   1   -318.4306345 -0.318431E+03  0.589E-02    0.99       0.0  T
   2   -318.4309196 -0.285042E-03  0.609E-02    0.99       1.0  T
   3   -318.4314522 -0.532587E-03  0.270E-02    0.99       1.0  T
   4   -318.4311601  0.292117E-03  0.249E-02    0.99       1.0  T
   5   -318.4314583 -0.298251E-03  0.656E-03    0.99       1.1  T
   6   -318.4314642 -0.589609E-05  0.258E-03    0.99       2.8  T
   7   -318.4314692 -0.504444E-05  0.542E-04    0.99      13.4  T
   8   -318.4314694 -0.129315E-06  0.150E-04    0.99      48.2  T
   9   -318.4314694 -0.443066E-08  0.755E-05    0.99      96.1  T
     SCC iter.                  ...        0 min,  1.098 sec
     gradient                   ...        0 min,  0.445 sec
 * total energy  :  -313.5829381 Eh     change       -0.2009042E-01 Eh
   gradient norm :     0.1269427 Eh/α   predicted    -0.3013956E-01 (  50.02%)
   displ. norm   :     0.7840384 α      lambda       -0.2893489E-01
   maximum displ.:     0.3239418 α      in ANC's #11, #48, #49, ...
 * RMSD in coord.:     0.7706744 α      energy gain  -0.6473039E+00 Eh

generating ANC from model Hessian ...
Using Lindh-Hessian (1995)
 Shifting diagonal of input Hessian by    1.0009920404066388E-002
 Lowest  eigenvalues of input Hessian
    0.010000    0.000000    0.000000    0.000000    0.000000    0.000000
    0.000000    0.010010    0.010010    0.010012    0.010018    0.010021
    0.010022    0.010043    0.010078    0.010084    0.010115    0.010130
 Highest eigenvalues
    2.095250    2.101228    2.179852    2.181812    2.395056    2.449531


........................................................................
.............................. CYCLE   21 ..............................
........................................................................
   1   -318.4315791 -0.318432E+03  0.248E-02    0.94       0.0  T
   2   -318.4316213 -0.422066E-04  0.211E-02    0.94       1.0  T
   3   -318.4316833 -0.619714E-04  0.921E-03    0.94       1.0  T
   4   -318.4316500  0.332436E-04  0.984E-03    0.94       1.0  T
   5   -318.4316914 -0.413335E-04  0.189E-03    0.94       3.8  T
   6   -318.4316921 -0.710330E-06  0.956E-04    0.94       7.6  T
   7   -318.4316928 -0.671861E-06  0.252E-04    0.94      28.8  T
   8   -318.4316928 -0.242202E-07  0.108E-04    0.94      66.9  T
   9   -318.4316928 -0.397290E-08  0.539E-05    0.94     134.6  T
     SCC iter.                  ...        0 min,  1.087 sec
     gradient                   ...        0 min,  0.440 sec
 * total energy  :  -313.6040747 Eh     change       -0.2113658E-01 Eh
   gradient norm :     0.0819994 Eh/α   predicted     0.0000000E+00 (-100.00%)
   displ. norm   :     0.6411329 α      lambda       -0.1827919E-01
   maximum displ.:     0.3193334 α      in ANC's #52, #27, #56, ...

........................................................................
.............................. CYCLE   22 ..............................
........................................................................
   1   -318.4593425 -0.318459E+03  0.140E-02    0.93       0.0  T
   2   -318.4593590 -0.165352E-04  0.105E-02    0.93       1.0  T
   3   -318.4593734 -0.143815E-04  0.495E-03    0.93       1.5  T
   4   -318.4593671  0.626907E-05  0.486E-03    0.93       1.5  T
   5   -318.4593772 -0.100539E-04  0.138E-03    0.93       5.3  T
   6   -318.4593778 -0.671317E-06  0.579E-04    0.93      12.5  T
   7   -318.4593781 -0.223089E-06  0.137E-04    0.93      53.1  T
   8   -318.4593781 -0.829777E-08  0.558E-05    0.93     130.0  T
     SCC iter.                  ...        0 min,  0.980 sec
     gradient                   ...        0 min,  0.453 sec
 * total energy  :  -313.6199273 Eh     change       -0.1585269E-01 Eh
   gradient norm :     0.0422652 Eh/α   predicted    -0.1295395E-01 ( -18.29%)
   displ. norm   :     0.8638883 α      lambda       -0.1931394E-01
   maximum displ.:     0.4301486 α      in ANC's #27, #52, #56, ...

........................................................................
.............................. CYCLE   23 ..............................
........................................................................
   1   -318.4907409 -0.318491E+03  0.186E-02    0.91       0.0  T
   2   -318.4907672 -0.263681E-04  0.136E-02    0.91       1.0  T
   3   -318.4907881 -0.209106E-04  0.651E-03    0.91       1.1  T
   4   -318.4907781  0.100565E-04  0.642E-03    0.91       1.1  T
   5   -318.4907950 -0.169368E-04  0.182E-03    0.91       4.0  T
   6   -318.4907965 -0.152612E-05  0.671E-04    0.91      10.8  T
   7   -318.4907968 -0.290517E-06  0.186E-04    0.91      38.9  T
   8   -318.4907968 -0.170941E-07  0.721E-05    0.91     100.6  T
     SCC iter.                  ...        0 min,  1.007 sec
     gradient                   ...        0 min,  0.450 sec
 * total energy  :  -313.6352069 Eh     change       -0.1527953E-01 Eh
   gradient norm :     0.0341359 Eh/α   predicted    -0.1686399E-01 (  10.37%)
   displ. norm   :     0.8794442 α      lambda       -0.1720576E-01
   maximum displ.:     0.4235557 α      in ANC's #27, #52, #26, ...

........................................................................
.............................. CYCLE   24 ..............................
........................................................................
   1   -318.5218968 -0.318522E+03  0.166E-02    0.88       0.0  T
   2   -318.5219113 -0.144983E-04  0.126E-02    0.88       1.0  T
   3   -318.5219332 -0.219092E-04  0.555E-03    0.88       1.3  T
   4   -318.5219279  0.531923E-05  0.516E-03    0.88       1.4  T
   5   -318.5219376 -0.968276E-05  0.131E-03    0.88       5.5  T
   6   -318.5219385 -0.905729E-06  0.448E-04    0.88      16.2  T
   7   -318.5219386 -0.102352E-06  0.157E-04    0.88      46.1  T
   8   -318.5219386 -0.124564E-07  0.758E-05    0.88      95.7  T
     SCC iter.                  ...        0 min,  0.946 sec
     gradient                   ...        0 min,  0.454 sec
 * total energy  :  -313.6466189 Eh     change       -0.1141199E-01 Eh
   gradient norm :     0.0476441 Eh/α   predicted    -0.1525656E-01 (  33.69%)
   displ. norm   :     0.7729358 α      lambda       -0.1402727E-01
   maximum displ.:     0.4063343 α      in ANC's #27, #52, #28, ...

........................................................................
.............................. CYCLE   25 ..............................
........................................................................
   1   -318.5594736 -0.318559E+03  0.105E-02    0.87       0.0  T
   2   -318.5594741 -0.500259E-06  0.744E-03    0.87       1.0  T
   3   -318.5594736  0.502705E-06  0.493E-03    0.87       1.5  T
   4   -318.5594813 -0.773643E-05  0.254E-03    0.87       2.9  T
   5   -318.5594836 -0.230549E-05  0.867E-04    0.87       8.4  T
   6   -318.5594841 -0.445519E-06  0.316E-04    0.87      22.9  T
   7   -318.5594842 -0.624220E-07  0.133E-04    0.87      54.5  T
   8   -318.5594842 -0.880766E-08  0.402E-05    0.87     180.6  T
     SCC iter.                  ...        0 min,  1.002 sec
     gradient                   ...        0 min,  0.445 sec
 * total energy  :  -313.6581941 Eh     change       -0.1157524E-01 Eh
   gradient norm :     0.0361269 Eh/α   predicted    -0.1120379E-01 (  -3.21%)
   displ. norm   :     0.8281887 α      lambda       -0.1330165E-01
   maximum displ.:     0.4723052 α      in ANC's #27, #52, #28, ...

........................................................................
.............................. CYCLE   26 ..............................
........................................................................
   1   -318.5955156 -0.318596E+03  0.124E-02    0.87       0.0  T
   2   -318.5955310 -0.154177E-04  0.106E-02    0.87       1.0  T
   3   -318.5955474 -0.163809E-04  0.455E-03    0.87       1.6  T
   4   -318.5955379  0.949709E-05  0.442E-03    0.87       1.6  T
   5   -318.5955479 -0.997633E-05  0.116E-03    0.87       6.3  T
   6   -318.5955484 -0.559937E-06  0.372E-04    0.87      19.5  T
   7   -318.5955485 -0.689268E-07  0.159E-04    0.87      45.6  T
   8   -318.5955485 -0.139406E-07  0.597E-05    0.87     121.6  T
     SCC iter.                  ...        0 min,  1.002 sec
     gradient                   ...        0 min,  0.439 sec
 * total energy  :  -313.6684661 Eh     change       -0.1027198E-01 Eh
   gradient norm :     0.0227041 Eh/α   predicted    -0.1121261E-01 (   9.16%)
   displ. norm   :     0.8554927 α      lambda       -0.1212162E-01
   maximum displ.:     0.4860544 α      in ANC's #27, #52, #28, ...

........................................................................
.............................. CYCLE   27 ..............................
........................................................................
   1   -318.6296780 -0.318630E+03  0.100E-02    0.86       0.0  T
   2   -318.6296852 -0.724528E-05  0.795E-03    0.87       1.0  T
   3   -318.6296956 -0.103794E-04  0.370E-03    0.87       2.0  T
   4   -318.6296905  0.514801E-05  0.361E-03    0.87       2.0  T
   5   -318.6296972 -0.672242E-05  0.947E-04    0.87       7.7  T
   6   -318.6296976 -0.430195E-06  0.337E-04    0.87      21.5  T
   7   -318.6296977 -0.564805E-07  0.140E-04    0.87      51.9  T
   8   -318.6296977 -0.106533E-07  0.527E-05    0.87     137.6  T
     SCC iter.                  ...        0 min,  0.984 sec
     gradient                   ...        0 min,  0.453 sec
 * total energy  :  -313.6778329 Eh     change       -0.9366825E-02 Eh
   gradient norm :     0.0241772 Eh/α   predicted    -0.1049653E-01 (  12.06%)
   displ. norm   :     0.8579010 α      lambda       -0.1116332E-01
   maximum displ.:     0.5047135 α      in ANC's #27, #28, #52, ...

........................................................................
.............................. CYCLE   28 ..............................
........................................................................
   1   -318.6588247 -0.318659E+03  0.841E-03    0.85       0.0  T
   2   -318.6588283 -0.352576E-05  0.581E-03    0.86       1.2  T
   3   -318.6588315 -0.322965E-05  0.334E-03    0.85       2.2  T
   4   -318.6588313  0.218456E-06  0.226E-03    0.85       3.2  T
   5   -318.6588338 -0.251593E-05  0.717E-04    0.86      10.1  T
   6   -318.6588341 -0.310766E-06  0.254E-04    0.86      28.6  T
   7   -318.6588341 -0.363947E-07  0.102E-04    0.86      70.9  T
   8   -318.6588341 -0.509056E-08  0.411E-05    0.86     176.7  T
     SCC iter.                  ...        0 min,  0.917 sec
     gradient                   ...        0 min,  0.451 sec
 * total energy  :  -313.6863781 Eh     change       -0.8545181E-02 Eh
   gradient norm :     0.0208078 Eh/α   predicted    -0.9689732E-02 (  13.39%)
   displ. norm   :     0.8359301 α      lambda       -0.9873878E-02
   maximum displ.:     0.5166787 α      in ANC's #27, #28, #15, ...

........................................................................
.............................. CYCLE   29 ..............................
........................................................................
   1   -318.6868811 -0.318687E+03  0.856E-03    0.85       0.0  T
   2   -318.6868825 -0.135765E-05  0.677E-03    0.85       1.1  T
   3   -318.6868876 -0.512022E-05  0.360E-03    0.85       2.0  T
   4   -318.6868863  0.127090E-05  0.269E-03    0.85       2.7  T
   5   -318.6868900 -0.363990E-05  0.758E-04    0.85       9.6  T
   6   -318.6868903 -0.366759E-06  0.261E-04    0.85      27.8  T
   7   -318.6868904 -0.452193E-07  0.873E-05    0.85      83.1  T
   8   -318.6868904 -0.393953E-08  0.314E-05    0.85     231.0  T
     SCC iter.                  ...        0 min,  0.946 sec
     gradient                   ...        0 min,  0.448 sec
 * total energy  :  -313.6946057 Eh     change       -0.8227567E-02 Eh
   gradient norm :     0.0168570 Eh/α   predicted    -0.8386768E-02 (   1.93%)
   displ. norm   :     0.8716063 α      lambda       -0.8425322E-02
   maximum displ.:     0.5455865 α      in ANC's #27, #28, #15, ...

........................................................................
.............................. CYCLE   30 ..............................
........................................................................
   1   -318.7130632 -0.318713E+03  0.562E-03    0.85       0.0  T
   2   -318.7130658 -0.256465E-05  0.391E-03    0.85       1.9  T
   3   -318.7130680 -0.220388E-05  0.205E-03    0.85       3.5  T
   4   -318.7130676  0.405333E-06  0.142E-03    0.85       5.1  T
   5   -318.7130685 -0.926571E-06  0.430E-04    0.85      16.9  T
   6   -318.7130686 -0.107488E-06  0.131E-04    0.85      55.3  T
   7   -318.7130686 -0.894119E-08  0.705E-05    0.85     102.9  T
     SCC iter.                  ...        0 min,  0.814 sec
     gradient                   ...        0 min,  0.447 sec
 * total energy  :  -313.7021805 Eh     change       -0.7574793E-02 Eh
   gradient norm :     0.0145529 Eh/α   predicted    -0.7413027E-02 (  -2.14%)
   displ. norm   :     0.8907284 α      lambda       -0.8225085E-02
   maximum displ.:     0.5975851 α      in ANC's #27, #15, #28, ...

........................................................................
.............................. CYCLE   31 ..............................
........................................................................
   1   -318.7405028 -0.318741E+03  0.576E-03    0.86       0.0  T
   2   -318.7405058 -0.304483E-05  0.394E-03    0.86       1.8  T
   3   -318.7405078 -0.196813E-05  0.201E-03    0.86       3.6  T
   4   -318.7405071  0.721761E-06  0.152E-03    0.86       4.8  T
   5   -318.7405082 -0.114422E-05  0.510E-04    0.86      14.2  T
   6   -318.7405083 -0.128499E-06  0.146E-04    0.86      49.8  T
   7   -318.7405083 -0.128201E-07  0.625E-05    0.86     116.0  T
     SCC iter.                  ...        0 min,  0.855 sec
     gradient                   ...        0 min,  0.457 sec
 * total energy  :  -313.7094982 Eh     change       -0.7317717E-02 Eh
   gradient norm :     0.0144562 Eh/α   predicted    -0.7375420E-02 (   0.79%)
   displ. norm   :     0.9043655 α      lambda       -0.7556157E-02
   maximum displ.:     0.5932729 α      in ANC's #27, #15, #28, ...

........................................................................
.............................. CYCLE   32 ..............................
........................................................................
   1   -318.7621749 -0.318762E+03  0.517E-03    0.86       0.0  T
   2   -318.7621776 -0.261163E-05  0.373E-03    0.86       1.9  T
   3   -318.7621794 -0.179719E-05  0.198E-03    0.86       3.7  T
   4   -318.7621790  0.307602E-06  0.169E-03    0.86       4.3  T
   5   -318.7621803 -0.129794E-05  0.393E-04    0.86      18.5  T
   6   -318.7621804 -0.334511E-07  0.212E-04    0.86      34.1  T
   7   -318.7621804 -0.304898E-07  0.816E-05    0.86      88.9  T
   8   -318.7621804 -0.322893E-08  0.277E-05    0.86     261.8  T
     SCC iter.                  ...        0 min,  0.921 sec
     gradient                   ...        0 min,  0.452 sec
 * total energy  :  -313.7166288 Eh     change       -0.7130614E-02 Eh
   gradient norm :     0.0111817 Eh/α   predicted    -0.6868087E-02 (  -3.68%)
   displ. norm   :     0.9313831 α      lambda       -0.7203669E-02
   maximum displ.:     0.6237026 α      in ANC's #27, #15, #28, ...

........................................................................
.............................. CYCLE   33 ..............................
........................................................................
   1   -318.7803926 -0.318780E+03  0.621E-03    0.86       0.0  T
   2   -318.7803971 -0.447444E-05  0.384E-03    0.86       1.9  T
   3   -318.7803986 -0.143765E-05  0.208E-03    0.86       3.5  T
   4   -318.7803988 -0.202307E-06  0.168E-03    0.86       4.3  T
   5   -318.7803998 -0.108745E-05  0.531E-04    0.86      13.7  T
   6   -318.7803999 -0.896071E-07  0.196E-04    0.86      37.0  T
   7   -318.7803999 -0.854561E-08  0.859E-05    0.86      84.4  T
     SCC iter.                  ...        0 min,  0.808 sec
     gradient                   ...        0 min,  0.454 sec
 * total energy  :  -313.7234579 Eh     change       -0.6829141E-02 Eh
   gradient norm :     0.0100158 Eh/α   predicted    -0.6726329E-02 (  -1.51%)
   displ. norm   :     0.9374230 α      lambda       -0.6721963E-02
   maximum displ.:     0.6300769 α      in ANC's #27, #15, #28, ...

........................................................................
.............................. CYCLE   34 ..............................
........................................................................
   1   -318.7974202 -0.318797E+03  0.706E-03    0.86       0.0  T
   2   -318.7974259 -0.577246E-05  0.443E-03    0.86       1.6  T
   3   -318.7974288 -0.286023E-05  0.222E-03    0.86       3.3  T
   4   -318.7974291 -0.339276E-06  0.165E-03    0.86       4.4  T
   5   -318.7974299 -0.810860E-06  0.752E-04    0.86       9.6  T
   6   -318.7974302 -0.232798E-06  0.235E-04    0.86      30.8  T
   7   -318.7974302 -0.161768E-07  0.105E-04    0.86      68.9  T
   8   -318.7974302 -0.111351E-08  0.636E-05    0.86     114.0  T
     SCC iter.                  ...        0 min,  0.943 sec
     gradient                   ...        0 min,  0.458 sec
 * total energy  :  -313.7298548 Eh     change       -0.6396904E-02 Eh
   gradient norm :     0.0092949 Eh/α   predicted    -0.6314487E-02 (  -1.29%)
   displ. norm   :     0.9431890 α      lambda       -0.6309216E-02
   maximum displ.:     0.6261925 α      in ANC's #27, #15, #28, ...

........................................................................
.............................. CYCLE   35 ..............................
........................................................................
   1   -318.8135746 -0.318814E+03  0.739E-03    0.86       0.0  T
   2   -318.8135810 -0.633893E-05  0.440E-03    0.86       1.7  T
   3   -318.8135840 -0.307472E-05  0.223E-03    0.86       3.3  T
   4   -318.8135847 -0.643440E-06  0.155E-03    0.86       4.7  T
   5   -318.8135852 -0.540974E-06  0.747E-04    0.86       9.7  T
   6   -318.8135855 -0.260100E-06  0.241E-04    0.86      30.1  T
   7   -318.8135855 -0.185179E-07  0.104E-04    0.86      69.9  T
   8   -318.8135855 -0.790976E-09  0.604E-05    0.86     120.1  T
     SCC iter.                  ...        0 min,  0.959 sec
     gradient                   ...        0 min,  0.444 sec
 * total energy  :  -313.7357701 Eh     change       -0.5915255E-02 Eh
   gradient norm :     0.0085075 Eh/α   predicted    -0.5960958E-02 (   0.77%)
   displ. norm   :     0.9364066 α      lambda       -0.5877147E-02
   maximum displ.:     0.6254160 α      in ANC's #27, #15, #26, ...

........................................................................
.............................. CYCLE   36 ..............................
........................................................................
   1   -318.8289052 -0.318829E+03  0.718E-03    0.85       0.0  T
   2   -318.8289110 -0.578691E-05  0.393E-03    0.85       1.8  T
   3   -318.8289134 -0.246107E-05  0.214E-03    0.85       3.4  T
   4   -318.8289145 -0.101221E-05  0.139E-03    0.85       5.2  T
   5   -318.8289148 -0.339332E-06  0.678E-04    0.85      10.7  T
   6   -318.8289150 -0.227778E-06  0.219E-04    0.85      33.1  T
   7   -318.8289150 -0.139443E-07  0.924E-05    0.85      78.5  T
   8   -318.8289150 -0.495618E-09  0.512E-05    0.85     141.6  T
     SCC iter.                  ...        0 min,  0.931 sec
     gradient                   ...        0 min,  0.442 sec
 * total energy  :  -313.7412277 Eh     change       -0.5457595E-02 Eh
   gradient norm :     0.0074335 Eh/α   predicted    -0.5515279E-02 (   1.06%)
   displ. norm   :     0.9413475 α      lambda       -0.5305202E-02
   maximum displ.:     0.6174300 α      in ANC's #27, #15, #26, ...

........................................................................
.............................. CYCLE   37 ..............................
........................................................................
   1   -318.8442130 -0.318844E+03  0.614E-03    0.85       0.0  T
   2   -318.8442172 -0.415533E-05  0.376E-03    0.85       1.9  T
   3   -318.8442197 -0.248613E-05  0.188E-03    0.85       3.9  T
   4   -318.8442201 -0.387717E-06  0.129E-03    0.85       5.6  T
   5   -318.8442204 -0.340456E-06  0.625E-04    0.85      11.6  T
   6   -318.8442206 -0.197915E-06  0.201E-04    0.85      36.1  T
   7   -318.8442206 -0.137043E-07  0.906E-05    0.85      80.1  T
   8   -318.8442206 -0.138374E-08  0.508E-05    0.85     142.9  T
     SCC iter.                  ...        0 min,  0.945 sec
     gradient                   ...        0 min,  0.471 sec
 * total energy  :  -313.7462671 Eh     change       -0.5039370E-02 Eh
   gradient norm :     0.0062928 Eh/α   predicted    -0.5003156E-02 (  -0.72%)
   displ. norm   :     0.9403015 α      lambda       -0.4810882E-02
   maximum displ.:     0.6135418 α      in ANC's #27, #15, #26, ...

........................................................................
.............................. CYCLE   38 ..............................
........................................................................
   1   -318.8589663 -0.318859E+03  0.504E-03    0.85       0.0  T
   2   -318.8589689 -0.266366E-05  0.296E-03    0.85       2.5  T
   3   -318.8589701 -0.111595E-05  0.164E-03    0.85       4.4  T
   4   -318.8589704 -0.311754E-06  0.111E-03    0.85       6.5  T
   5   -318.8589707 -0.320800E-06  0.472E-04    0.85      15.4  T
   6   -318.8589708 -0.108543E-06  0.156E-04    0.85      46.4  T
   7   -318.8589708 -0.694877E-08  0.662E-05    0.85     109.6  T
     SCC iter.                  ...        0 min,  0.771 sec
     gradient                   ...        0 min,  0.468 sec
 * total energy  :  -313.7508550 Eh     change       -0.4587914E-02 Eh
   gradient norm :     0.0057662 Eh/α   predicted    -0.4532259E-02 (  -1.21%)
   displ. norm   :     0.9346977 α      lambda       -0.4374953E-02
   maximum displ.:     0.6021690 α      in ANC's #27, #15, #26, ...

........................................................................
.............................. CYCLE   39 ..............................
........................................................................
   1   -318.8729887 -0.318873E+03  0.418E-03    0.85       0.0  T
   2   -318.8729902 -0.150860E-05  0.256E-03    0.85       2.8  T
   3   -318.8729909 -0.671077E-06  0.145E-03    0.85       5.0  T
   4   -318.8729911 -0.198029E-06  0.101E-03    0.85       7.2  T
   5   -318.8729915 -0.379888E-06  0.344E-04    0.85      21.1  T
   6   -318.8729915 -0.440123E-07  0.117E-04    0.85      62.1  T
   7   -318.8729915 -0.291635E-08  0.538E-05    0.85     134.8  T
     SCC iter.                  ...        0 min,  0.786 sec
     gradient                   ...        0 min,  0.466 sec
 * total energy  :  -313.7550234 Eh     change       -0.4168422E-02 Eh
   gradient norm :     0.0052359 Eh/α   predicted    -0.4098591E-02 (  -1.68%)
   displ. norm   :     0.9277959 α      lambda       -0.3961262E-02
   maximum displ.:     0.5901870 α      in ANC's #27, #15, #26, ...

........................................................................
.............................. CYCLE   40 ..............................
........................................................................
   1   -318.8860019 -0.318886E+03  0.365E-03    0.85       0.0  T
   2   -318.8860029 -0.973441E-06  0.221E-03    0.85       3.3  T
   3   -318.8860032 -0.347864E-06  0.135E-03    0.85       5.4  T
   4   -318.8860035 -0.245841E-06  0.902E-04    0.85       8.0  T
   5   -318.8860038 -0.340497E-06  0.236E-04    0.85      30.7  T
   6   -318.8860038 -0.151206E-07  0.819E-05    0.85      88.6  T
   7   -318.8860038 -0.792568E-09  0.377E-05    0.85     192.5  T
     SCC iter.                  ...        0 min,  0.836 sec
     gradient                   ...        0 min,  0.456 sec
 * total energy  :  -313.7587920 Eh     change       -0.3768624E-02 Eh
   gradient norm :     0.0046487 Eh/α   predicted    -0.3685567E-02 (  -2.20%)
   displ. norm   :     0.9181004 α      lambda       -0.3563078E-02
   maximum displ.:     0.5739549 α      in ANC's #27, #15, #26, ...

........................................................................
.............................. CYCLE   41 ..............................
........................................................................
   1   -318.8979849 -0.318898E+03  0.347E-03    0.85       0.0  T
   2   -318.8979857 -0.807367E-06  0.212E-03    0.85       3.4  T
   3   -318.8979861 -0.466917E-06  0.128E-03    0.85       5.6  T
   4   -318.8979864 -0.269833E-06  0.862E-04    0.85       8.4  T
   5   -318.8979867 -0.296974E-06  0.204E-04    0.85      35.6  T
   6   -318.8979867 -0.924501E-08  0.693E-05    0.85     104.6  T
   7   -318.8979867 -0.352657E-09  0.343E-05    0.85     211.3  T
     SCC iter.                  ...        0 min,  0.848 sec
     gradient                   ...        0 min,  0.496 sec
 * total energy  :  -313.7621764 Eh     change       -0.3384390E-02 Eh
   gradient norm :     0.0040784 Eh/α   predicted    -0.3283214E-02 (  -2.99%)
   displ. norm   :     0.9048592 α      lambda       -0.3183228E-02
   maximum displ.:     0.5566095 α      in ANC's #27, #15, #26, ...

........................................................................
.............................. CYCLE   42 ..............................
........................................................................
   1   -318.9089845 -0.318909E+03  0.332E-03    0.85       0.0  T
   2   -318.9089853 -0.787950E-06  0.194E-03    0.85       3.7  T
   3   -318.9089857 -0.392746E-06  0.122E-03    0.85       6.0  T
   4   -318.9089859 -0.278793E-06  0.788E-04    0.85       9.2  T
   5   -318.9089862 -0.232776E-06  0.200E-04    0.85      36.3  T
   6   -318.9089862 -0.105514E-07  0.655E-05    0.85     110.8  T
     SCC iter.                  ...        0 min,  0.759 sec
     gradient                   ...        0 min,  0.466 sec
 * total energy  :  -313.7651960 Eh     change       -0.3019616E-02 Eh
   gradient norm :     0.0036823 Eh/α   predicted    -0.2894781E-02 (  -4.13%)
   displ. norm   :     0.8873997 α      lambda       -0.2826340E-02
   maximum displ.:     0.5446405 α      in ANC's #15, #27, #26, ...
 * RMSD in coord.:     1.3067859 α      energy gain  -0.1822579E+00 Eh

generating ANC from model Hessian ...
Using Lindh-Hessian (1995)
 Shifting diagonal of input Hessian by    1.0001063919338669E-002
 Lowest  eigenvalues of input Hessian
    0.010000    0.010000    0.000000    0.000000    0.000000    0.000000
    0.000000    0.000000    0.010003    0.010006    0.010007    0.010010
    0.010024    0.010056    0.010064    0.010109    0.010126    0.010131
 Highest eigenvalues
    2.212861    2.212998    2.315605    2.315941    2.813574    2.813750


........................................................................
.............................. CYCLE   43 ..............................
........................................................................
   1   -318.9189426 -0.318919E+03  0.320E-03    0.85       0.0  T
   2   -318.9189433 -0.709047E-06  0.192E-03    0.85       3.8  T
   3   -318.9189438 -0.504797E-06  0.115E-03    0.85       6.3  T
   4   -318.9189441 -0.248045E-06  0.767E-04    0.85       9.5  T
   5   -318.9189443 -0.216409E-06  0.194E-04    0.85      37.5  T
   6   -318.9189443 -0.892851E-08  0.594E-05    0.85     122.1  T
     SCC iter.                  ...        0 min,  0.740 sec
     gradient                   ...        0 min,  0.464 sec
 * total energy  :  -313.7678744 Eh     change       -0.2678362E-02 Eh
   gradient norm :     0.0034040 Eh/α   predicted     0.0000000E+00 (-100.00%)
   displ. norm   :     0.2632830 α      lambda       -0.7838465E-03
   maximum displ.:     0.2179671 α      in ANC's #14, #26, #25, ...

........................................................................
.............................. CYCLE   44 ..............................
........................................................................
   1   -318.9221039 -0.318922E+03  0.975E-04    0.85       0.0  T
   2   -318.9221039 -0.935421E-07  0.549E-04    0.85      13.2  T
   3   -318.9221040 -0.365821E-07  0.308E-04    0.85      23.6  T
   4   -318.9221040 -0.118818E-07  0.222E-04    0.85      32.7  T
   5   -318.9221040 -0.180063E-07  0.749E-05    0.85      96.9  T
   6   -318.9221040 -0.182376E-08  0.242E-05    0.85     299.7  T
     SCC iter.                  ...        0 min,  0.734 sec
     gradient                   ...        0 min,  0.506 sec
 * total energy  :  -313.7686442 Eh     change       -0.7697735E-03 Eh
   gradient norm :     0.0032381 Eh/α   predicted    -0.4193585E-03 ( -45.52%)
   displ. norm   :     0.4809564 α      lambda       -0.1390615E-02
   maximum displ.:     0.3496594 α      in ANC's #14, #26, #25, ...

........................................................................
.............................. CYCLE   45 ..............................
........................................................................
   1   -318.9273537 -0.318927E+03  0.183E-03    0.84       0.0  T
   2   -318.9273541 -0.364926E-06  0.105E-03    0.84       6.9  T
   3   -318.9273543 -0.166609E-06  0.578E-04    0.84      12.5  T
   4   -318.9273543 -0.311846E-07  0.407E-04    0.84      17.8  T
   5   -318.9273544 -0.606727E-07  0.142E-04    0.84      50.9  T
   6   -318.9273544 -0.647560E-08  0.401E-05    0.84     181.1  T
     SCC iter.                  ...        0 min,  0.710 sec
     gradient                   ...        0 min,  0.464 sec
 * total energy  :  -313.7699488 Eh     change       -0.1304595E-02 Eh
   gradient norm :     0.0040799 Eh/α   predicted    -0.8561492E-03 ( -34.37%)
   displ. norm   :     0.6500846 α      lambda       -0.1839021E-02
   maximum displ.:     0.4626524 α      in ANC's #14, #26, #25, ...

........................................................................
.............................. CYCLE   46 ..............................
........................................................................
   1   -318.9330945 -0.318933E+03  0.231E-03    0.84       0.0  T
   2   -318.9330950 -0.509026E-06  0.136E-03    0.84       5.3  T
   3   -318.9330953 -0.260571E-06  0.792E-04    0.84       9.2  T
   4   -318.9330954 -0.444802E-07  0.526E-04    0.84      13.8  T
   5   -318.9330955 -0.101265E-06  0.179E-04    0.84      40.5  T
   6   -318.9330955 -0.135854E-07  0.496E-05    0.84     146.2  T
     SCC iter.                  ...        0 min,  0.689 sec
     gradient                   ...        0 min,  0.472 sec
 * total energy  :  -313.7716632 Eh     change       -0.1714455E-02 Eh
   gradient norm :     0.0034439 Eh/α   predicted    -0.1308104E-02 ( -23.70%)
   displ. norm   :     0.7626066 α      lambda       -0.1956800E-02
   maximum displ.:     0.5396085 α      in ANC's #14, #26, #25, ...

........................................................................
.............................. CYCLE   47 ..............................
........................................................................
   1   -318.9391320 -0.318939E+03  0.249E-03    0.84       0.0  T
   2   -318.9391325 -0.479053E-06  0.152E-03    0.84       4.8  T
   3   -318.9391328 -0.328203E-06  0.901E-04    0.84       8.1  T
   4   -318.9391329 -0.855680E-07  0.575E-04    0.84      12.6  T
   5   -318.9391330 -0.121800E-06  0.189E-04    0.84      38.5  T
   6   -318.9391331 -0.143741E-07  0.552E-05    0.84     131.5  T
     SCC iter.                  ...        0 min,  0.691 sec
     gradient                   ...        0 min,  0.471 sec
 * total energy  :  -313.7734663 Eh     change       -0.1803131E-02 Eh
   gradient norm :     0.0037984 Eh/α   predicted    -0.1547409E-02 ( -14.18%)
   displ. norm   :     0.7716502 α      lambda       -0.1846336E-02
   maximum displ.:     0.5507118 α      in ANC's #14, #26, #25, ...

........................................................................
.............................. CYCLE   48 ..............................
........................................................................
   1   -318.9459175 -0.318946E+03  0.237E-03    0.84       0.0  T
   2   -318.9459178 -0.339597E-06  0.139E-03    0.84       5.2  T
   3   -318.9459180 -0.183772E-06  0.872E-04    0.84       8.3  T
   4   -318.9459182 -0.121576E-06  0.525E-04    0.84      13.8  T
   5   -318.9459183 -0.979463E-07  0.182E-04    0.84      40.0  T
   6   -318.9459183 -0.137695E-07  0.548E-05    0.84     132.3  T
     SCC iter.                  ...        0 min,  0.750 sec
     gradient                   ...        0 min,  0.461 sec
 * total energy  :  -313.7751794 Eh     change       -0.1713071E-02 Eh
   gradient norm :     0.0029774 Eh/α   predicted    -0.1472866E-02 ( -14.02%)
   displ. norm   :     0.7446417 α      lambda       -0.1580133E-02
   maximum displ.:     0.5412261 α      in ANC's #14, #26, #32, ...

........................................................................
.............................. CYCLE   49 ..............................
........................................................................
   1   -318.9520358 -0.318952E+03  0.213E-03    0.84       0.0  T
   2   -318.9520362 -0.384518E-06  0.124E-03    0.84       5.8  T
   3   -318.9520364 -0.226167E-06  0.717E-04    0.84      10.1  T
   4   -318.9520365 -0.528007E-07  0.476E-04    0.84      15.2  T
   5   -318.9520366 -0.842425E-07  0.158E-04    0.84      46.0  T
   6   -318.9520366 -0.912786E-08  0.557E-05    0.84     130.3  T
     SCC iter.                  ...        0 min,  0.750 sec
     gradient                   ...        0 min,  0.469 sec
 * total energy  :  -313.7766753 Eh     change       -0.1495846E-02 Eh
   gradient norm :     0.0026840 Eh/α   predicted    -0.1228158E-02 ( -17.90%)
   displ. norm   :     0.6939217 α      lambda       -0.1359597E-02
   maximum displ.:     0.5124951 α      in ANC's #14, #26, #32, ...

........................................................................
.............................. CYCLE   50 ..............................
........................................................................
   1   -318.9571434 -0.318957E+03  0.190E-03    0.84       0.0  T
   2   -318.9571438 -0.374616E-06  0.107E-03    0.84       6.8  T
   3   -318.9571440 -0.171321E-06  0.615E-04    0.84      11.8  T
   4   -318.9571440 -0.234905E-07  0.402E-04    0.84      18.1  T
   5   -318.9571440 -0.546592E-07  0.155E-04    0.84      46.8  T
   6   -318.9571441 -0.111476E-07  0.512E-05    0.84     141.7  T
     SCC iter.                  ...        0 min,  0.779 sec
     gradient                   ...        0 min,  0.457 sec
 * total energy  :  -313.7779549 Eh     change       -0.1279692E-02 Eh
   gradient norm :     0.0026765 Eh/α   predicted    -0.1007142E-02 ( -21.30%)
   displ. norm   :     0.6398851 α      lambda       -0.1174054E-02
   maximum displ.:     0.4802628 α      in ANC's #14, #26, #32, ...

........................................................................
.............................. CYCLE   51 ..............................
........................................................................
   1   -318.9615750 -0.318962E+03  0.168E-03    0.84       0.0  T
   2   -318.9615753 -0.303503E-06  0.902E-04    0.84       8.0  T
   3   -318.9615754 -0.999560E-07  0.539E-04    0.84      13.5  T
   4   -318.9615754 -0.142230E-07  0.337E-04    0.84      21.5  T
   5   -318.9615755 -0.340003E-07  0.138E-04    0.84      52.7  T
   6   -318.9615755 -0.101265E-07  0.438E-05    0.84     165.6  T
     SCC iter.                  ...        0 min,  0.713 sec
     gradient                   ...        0 min,  0.466 sec
 * total energy  :  -313.7790613 Eh     change       -0.1106339E-02 Eh
   gradient norm :     0.0024317 Eh/α   predicted    -0.8273933E-03 ( -25.21%)
   displ. norm   :     0.5834790 α      lambda       -0.9903888E-03
   maximum displ.:     0.4452300 α      in ANC's #14, #26, #32, ...

........................................................................
[...]
   143   6 C    3.990 --   144 C    1.469   141 C    1.354   176 H    0.972
   144   6 C    3.987 --   143 C    1.469   138 C    1.380   177 H    0.973
   145   6 C    3.916 --   137 C    1.335   148 N    1.285   146 C    1.127
   146   6 C    3.966 --   147 C    1.706   145 C    1.127   178 H    0.974
   147   6 C    3.963 --   146 C    1.706   149 C    1.132   179 H    0.975
   148   7 N    3.007 --   149 C    1.344   145 C    1.285
   149   6 C    3.911 --   148 N    1.344   150 C    1.254   147 C    1.132
   150   6 C    3.921 --   149 C    1.254   151 C    1.246   128 C    1.192
   151   6 C    3.887 --   152 C    1.255   150 C    1.246   155 N    1.189
   152   6 C    3.955 --   153 C    1.574   151 C    1.255   180 H    0.975
   153   6 C    3.956 --   152 C    1.574   154 C    1.249   181 H    0.974
   154   6 C    3.892 --   156 C    1.297   153 C    1.249   155 N    1.166
   155   7 N    3.470 --   151 C    1.189   154 C    1.166   182 H    0.874
   156   6 C    3.927 --   164 C    1.334   154 C    1.297   157 C    1.035
   157   6 C    3.988 --   158 C    1.380   163 C    1.379   156 C    1.035
   158   6 C    3.987 --   159 C    1.468   157 C    1.380   183 H    0.973
   159   6 C    3.989 --   158 C    1.468   160 C    1.354   184 H    0.972
   160   6 C    3.951 --   159 C    1.354   162 C    1.353   161 N    1.116
   161   7 N    3.134 --   160 C    1.116   186 H    0.934   185 H    0.933
   162   6 C    3.989 --   163 C    1.470   160 C    1.353   187 H    0.972
   163   6 C    3.988 --   162 C    1.470   157 C    1.379   188 H    0.972
   164   6 C    3.915 --   156 C    1.334   168 N    1.286   165 C    1.128
   165   6 C    3.966 --   166 C    1.705   164 C    1.128   189 H    0.974
   166   6 C    3.963 --   165 C    1.705   167 C    1.132   190 H    0.975
   167   6 C    3.911 --   168 N    1.343   131 C    1.254   166 C    1.132
   168   7 N    3.007 --   167 C    1.343   164 C    1.286
   169   1 H    1.002 --   133 C    0.975
   170   1 H    1.005 --   134 C    0.974
   171   1 H    0.988 --   136 N    0.874
   172   1 H    1.005 --   139 C    0.972
   173   1 H    0.999 --   140 C    0.972
   174   1 H    0.961 --   142 N    0.933
   175   1 H    0.961 --   142 N    0.934
   176   1 H    0.998 --   143 C    0.972
   177   1 H    1.005 --   144 C    0.973
   178   1 H    1.006 --   146 C    0.974
   179   1 H    1.003 --   147 C    0.975
   180   1 H    1.002 --   152 C    0.975
   181   1 H    1.005 --   153 C    0.974
   182   1 H    0.987 --   155 N    0.874
   183   1 H    1.005 --   158 C    0.973
   184   1 H    0.999 --   159 C    0.972
   185   1 H    0.960 --   161 N    0.933
   186   1 H    0.961 --   161 N    0.934
   187   1 H    0.998 --   162 C    0.972
   188   1 H    1.005 --   163 C    0.972
   189   1 H    1.006 --   165 C    0.974
   190   1 H    1.003 --   166 C    0.975
 ---------------------------------------------------------------------------

Topologies differ in total number of bonds
Writing topology from bond orders to xtbtopo.mol

 dipole moment from electron density (au)
     X       Y       Z   
  -0.0067   1.5837   0.8919  total (Debye):    4.620

           -------------------------------------------------
          |                Geometry Summary                 |
           -------------------------------------------------

      molecular mass/u    :     1569.7771624
   center of mass at/Å    :       45.0384005       0.0166618       0.0008314
  moments of inertia/u·Å² :        0.3317454E+05   0.1899428E+06   0.2194730E+06
rotational constants/cm⁻¹ :        0.5081497E-03   0.8875111E-04   0.7680959E-04

 * 196 selected distances

     #   Z          #   Z                                           value/Å
     1   6 C        2   6 C                                       1.3891508
     2   6 C        3   6 C                                       1.4227778
     3   6 C        4   6 C                                       1.3669419
     4   6 C        5   6 C                                       1.4237800
     2   6 C        6   7 N                                       1.3664076
     5   6 C        6   7 N                                       1.3664493
     5   6 C        7   6 C                                       1.4003895
     8   6 C        9   6 C                                       1.3974152
     9   6 C       10   6 C                                       1.3833238
    10   6 C       11   6 C                                       1.3972849
    11   6 C       12   7 N                                       1.3842047
    11   6 C       13   6 C                                       1.3972471
     8   6 C       14   6 C                                       1.3971834
    13   6 C       14   6 C                                       1.3836799
     7   6 C       15   6 C                                       1.3978583
    15   6 C       16   6 C                                       1.4515038
    16   6 C       17   6 C                                       1.3496075
    15   6 C       18   7 N                                       1.3617473
    17   6 C       19   6 C                                       1.4495658
    18   7 N       19   6 C                                       1.3485012
    19   6 C       20   6 C                                       1.4099634
    20   6 C       21   6 C                                       1.4082074
    21   6 C       22   6 C                                       1.4195696
    22   6 C       23   6 C                                       1.3679105
    23   6 C       24   6 C                                       1.4220556
    21   6 C       25   7 N                                       1.3629510
    24   6 C       25   7 N                                       1.3703711
    24   6 C       26   6 C                                       1.4000559
    27   6 C       28   6 C                                       1.3975196
    28   6 C       29   6 C                                       1.3833545
    29   6 C       30   6 C                                       1.3972847
    30   6 C       31   7 N                                       1.3840523
    30   6 C       32   6 C                                       1.3972599
    27   6 C       33   6 C                                       1.3974914
    32   6 C       33   6 C                                       1.3834885
    26   6 C       34   6 C                                       1.4000052
    35   6 C       36   6 C                                       1.3487162
     1   6 C       37   6 C                                       1.3888613
    36   6 C       37   6 C                                       1.4517080
    34   6 C       38   7 N                                       1.3541924
    37   6 C       38   7 N                                       1.3558048
     1   6 C       39   1 H                                       1.0854970
     3   6 C       40   1 H                                       1.0784556
     4   6 C       41   1 H                                       1.0779464
     6   7 N       42   1 H                                       1.0145268
     9   6 C       43   1 H                                       1.0844861
    10   6 C       44   1 H                                       1.0845440
    12   7 N       45   1 H                                       1.0075519
    12   7 N       46   1 H                                       1.0075626
    13   6 C       47   1 H                                       1.0846043
    14   6 C       48   1 H                                       1.0846326
    16   6 C       49   1 H                                       1.0780574
    17   6 C       50   1 H                                       1.0783872
    22   6 C       51   1 H                                       1.0781285
    23   6 C       52   1 H                                       1.0777700
    25   7 N       53   1 H                                       1.0147090
    28   6 C       54   1 H                                       1.0845051
    29   6 C       55   1 H                                       1.0845634
    31   7 N       56   1 H                                       1.0075102
    31   7 N       57   1 H                                       1.0074616 (min)
    32   6 C       58   1 H                                       1.0845047
    33   6 C       59   1 H                                       1.0846439
    35   6 C       60   1 H                                       1.0782291
    36   6 C       61   1 H                                       1.0789554
    62   6 C       63   6 C                                       1.3891349
    63   6 C       64   6 C                                       1.4227545
    64   6 C       65   6 C                                       1.3669124
    65   6 C       66   6 C                                       1.4237890
    63   6 C       67   7 N                                       1.3664563
    66   6 C       67   7 N                                       1.3663994
    66   6 C       68   6 C                                       1.4004760
    69   6 C       70   6 C                                       1.3972046
    70   6 C       71   6 C                                       1.3834559
    71   6 C       72   6 C                                       1.3972490
    72   6 C       73   7 N                                       1.3842955
    72   6 C       74   6 C                                       1.3971904
    69   6 C       75   6 C                                       1.3972210
    74   6 C       75   6 C                                       1.3836276
    68   6 C       76   6 C                                       1.3976809
    76   6 C       77   6 C                                       1.4515303
    77   6 C       78   6 C                                       1.3495675
    76   6 C       79   7 N                                       1.3619656
    78   6 C       80   6 C                                       1.4496358
    79   7 N       80   6 C                                       1.3483766
    80   6 C       81   6 C                                       1.4099936
    81   6 C       82   6 C                                       1.4082237
    82   6 C       83   6 C                                       1.4196615
    83   6 C       84   6 C                                       1.3677596
    84   6 C       85   6 C                                       1.4220851
    82   6 C       86   7 N                                       1.3629115
    85   6 C       86   7 N                                       1.3704835
    85   6 C       87   6 C                                       1.3998823
    88   6 C       89   6 C                                       1.3975327
    89   6 C       90   6 C                                       1.3833062
    90   6 C       91   6 C                                       1.3973063
    91   6 C       92   7 N                                       1.3840886
    91   6 C       93   6 C                                       1.3972437
    88   6 C       94   6 C                                       1.3973540
    93   6 C       94   6 C                                       1.3835976
    87   6 C       95   6 C                                       1.3999313
    96   6 C       97   6 C                                       1.3486949
    62   6 C       98   6 C                                       1.3887947
    97   6 C       98   6 C                                       1.4517249 (max)
    95   6 C       99   7 N                                       1.3541325
    98   6 C       99   7 N                                       1.3558193
    62   6 C      100   1 H                                       1.0854996
    64   6 C      101   1 H                                       1.0784535
    65   6 C      102   1 H                                       1.0779495
    67   7 N      103   1 H                                       1.0145361
    70   6 C      104   1 H                                       1.0844745
    71   6 C      105   1 H                                       1.0845676
    73   7 N      106   1 H                                       1.0075525
    73   7 N      107   1 H                                       1.0075406
    74   6 C      108   1 H                                       1.0845982
    75   6 C      109   1 H                                       1.0846611
    77   6 C      110   1 H                                       1.0780462
    78   6 C      111   1 H                                       1.0783972
    83   6 C      112   1 H                                       1.0781055
    84   6 C      113   1 H                                       1.0777465
    86   7 N      114   1 H                                       1.0147182
    89   6 C      115   1 H                                       1.0844033
    90   6 C      116   1 H                                       1.0845491
    92   7 N      117   1 H                                       1.0074971
    92   7 N      118   1 H                                       1.0075149
    93   6 C      119   1 H                                       1.0845060
    94   6 C      120   1 H                                       1.0846300
    96   6 C      121   1 H                                       1.0782332
    97   6 C      122   1 H                                       1.0789493
   123   6 C      124   6 C                                       1.2225446
   125   6 C      126   6 C                                       1.2225793
   127   6 C      128   6 C                                       1.2226634
   129   6 C      130   6 C                                       1.2225253
   131   6 C      132   6 C                                       1.4086163
   132   6 C      133   6 C                                       1.4183463
   133   6 C      134   6 C                                       1.3686238
   134   6 C      135   6 C                                       1.4211141
   132   6 C      136   7 N                                       1.3630710
   135   6 C      136   7 N                                       1.3696129
   135   6 C      137   6 C                                       1.4013501
   138   6 C      139   6 C                                       1.3971034
   139   6 C      140   6 C                                       1.3835009
   140   6 C      141   6 C                                       1.3972439
   141   6 C      142   7 N                                       1.3842179
   141   6 C      143   6 C                                       1.3971860
   138   6 C      144   6 C                                       1.3973079
   143   6 C      144   6 C                                       1.3834740
   137   6 C      145   6 C                                       1.3967478
   145   6 C      146   6 C                                       1.4516911
   146   6 C      147   6 C                                       1.3496176
   145   6 C      148   7 N                                       1.3618155
   147   6 C      149   6 C                                       1.4489085
   148   7 N      149   6 C                                       1.3485936
   149   6 C      150   6 C                                       1.4093932
   150   6 C      151   6 C                                       1.4086797
   151   6 C      152   6 C                                       1.4184052
   152   6 C      153   6 C                                       1.3685335
   153   6 C      154   6 C                                       1.4211204
   151   6 C      155   7 N                                       1.3629591
   154   6 C      155   7 N                                       1.3697795
   154   6 C      156   6 C                                       1.4011512
   157   6 C      158   6 C                                       1.3971614
   158   6 C      159   6 C                                       1.3836116
   159   6 C      160   6 C                                       1.3972275
   160   6 C      161   7 N                                       1.3840825
   160   6 C      162   6 C                                       1.3973040
   157   6 C      163   6 C                                       1.3973452
   162   6 C      163   6 C                                       1.3833000
   156   6 C      164   6 C                                       1.3969026
   164   6 C      165   6 C                                       1.4516348
   165   6 C      166   6 C                                       1.3496644
   131   6 C      167   6 C                                       1.4093513
   166   6 C      167   6 C                                       1.4488381
   164   6 C      168   7 N                                       1.3615775
   167   6 C      168   7 N                                       1.3487287
   133   6 C      169   1 H                                       1.0780883
   134   6 C      170   1 H                                       1.0777359
   136   7 N      171   1 H                                       1.0144999
   139   6 C      172   1 H                                       1.0844411
   140   6 C      173   1 H                                       1.0845257
   142   7 N      174   1 H                                       1.0075011
   142   7 N      175   1 H                                       1.0075090
   143   6 C      176   1 H                                       1.0845575
   144   6 C      177   1 H                                       1.0846248
   146   6 C      178   1 H                                       1.0780101
   147   6 C      179   1 H                                       1.0784057
   152   6 C      180   1 H                                       1.0780677
   153   6 C      181   1 H                                       1.0777092
   155   7 N      182   1 H                                       1.0144928
   158   6 C      183   1 H                                       1.0846242
   159   6 C      184   1 H                                       1.0845788
   161   7 N      185   1 H                                       1.0074990
   161   7 N      186   1 H                                       1.0074825
   162   6 C      187   1 H                                       1.0845250
   163   6 C      188   1 H                                       1.0844665
   165   6 C      189   1 H                                       1.0780250
   166   6 C      190   1 H                                       1.0783963

 * 4 distinct bonds (by element types)

   Z      Z             #   av. dist./Å        max./Å        min./Å
   1 H    6 C          50     1.0815293     1.0854996     1.0777092
   6 C    6 C          98     1.3929842     1.4517249     1.2225253
   1 H    7 N          18     1.0098703     1.0147182     1.0074616
   6 C    7 N          30     1.3654683     1.3842955     1.3483766


optimized geometry written to: xtbopt.xyz


           -------------------------------------------------
          | TOTAL ENERGY             -313.794893694657 Eh   |
          | GRADIENT NORM               0.000474830442 Eh/α |
          | HOMO-LUMO GAP               0.818115596329 eV   |
           -------------------------------------------------

------------------------------------------------------------------------
 * finished run on 2022/07/29 at 14:08:45.178     
------------------------------------------------------------------------
 total:
 * wall-time:     0 d,  0 h,  2 min, 45.325 sec
 *  cpu-time:     0 d,  0 h,  2 min, 44.509 sec
 * ratio c/w:     0.995 speedup
 SCF:
 * wall-time:     0 d,  0 h,  0 min,  4.675 sec
 *  cpu-time:     0 d,  0 h,  0 min,  4.652 sec
 * ratio c/w:     0.995 speedup
 ANC optimizer:
 * wall-time:     0 d,  0 h,  2 min, 40.458 sec
 *  cpu-time:     0 d,  0 h,  2 min, 39.669 sec
 * ratio c/w:     0.995 speedup

