190
 energy: -312.935634215504 gnorm: 0.600672789706 xtb: 6.5.1 (b24c23e)
C           26.31906900000000        0.03053200000000        0.00056100000000
C           27.04392300000000       -1.02340200000000        0.89184400000000
C           26.42847200000000       -2.01057800000000        1.62792900000000
C           27.44989899999999       -2.71471600000000        2.31572300000000
C           28.65557600000000       -2.12726500000000        1.98227400000000
N           28.39859600000000       -1.12375000000000        1.08239100000000
C           30.08363000000000       -2.51262500000000        2.55254200000000
C           30.13313100000000       -3.45991300000000        3.69129800000000
C           30.38251800000000       -4.81831100000000        3.47295600000000
C           30.43512500000000       -5.70890300000000        4.54939200000000
C           30.28057200000000       -5.24860000000000        5.85988300000000
N           30.24191400000000       -6.15982000000000        6.92995100000000
C           29.95698500000000       -3.90406800000000        6.06874200000000
C           29.90561500000000       -3.00975000000000        4.99521600000000
C           31.21227900000000       -1.95560500000000        2.03490400000000
C           32.52157400000000       -2.23598500000000        2.58764500000000
C           33.42310100000000       -1.53962700000000        1.90548700000000
N           31.40531800000000       -1.07798000000000        0.99953500000000
C           32.73948300000000       -0.78808800000000        0.87132400000000
C           33.40938900000000        0.01687200000000        0.00348700000000
C           32.63485700000000        0.79690500000000       -1.14305400000000
C           33.18923700000000        1.29006600000000       -2.30792100000000
C           32.16418200000000        1.95751300000000       -3.02208400000000
C           31.00748300000000        1.84156300000000       -2.28197100000000
N           31.29371900000000        1.09604000000000       -1.16198100000000
C           29.59043399999999        2.44440700000000       -2.66163400000000
C           29.54065300000000        3.52616900000000       -3.66993500000000
C           29.32083700000000        3.22626000000000       -5.01803100000000
C           29.27176400000000        4.24872900000000       -5.96987700000000
C           29.39490199999999        5.58585600000000       -5.58252800000000
N           29.43470600000000        6.60200000000000       -6.55346200000000
C           29.68489000000000        5.87674100000000       -4.24570100000000
C           29.73671800000000        4.85674900000000       -3.29036000000000
C           28.46826500000000        1.96943600000000       -2.06099000000000
C           27.14299600000000        2.48189600000000       -2.36184600000000
C           26.25941800000000        1.81114400000000       -1.62906200000000
C           26.98464400000000        0.85191100000000       -0.83289900000000
N           28.30710400000000        0.99232500000000       -1.11812200000000
H           25.24006700000000        0.09620900000000        0.06982400000000
H           25.36581000000000       -2.19472900000000        1.67514600000000
H           27.31788000000000       -3.54365000000000        2.99590900000000
H           29.10236600000000       -0.54586500000000        0.62943200000000
H           30.53034500000000       -5.17143900000000        2.45569800000000
H           30.60881700000000       -6.76079200000000        4.34772400000000
H           30.47038700000000       -5.71738100000000        7.81450400000000
H           30.80761300000000       -6.98333900000000        6.75028400000000
H           29.75082500000000       -3.53086700000000        7.06668000000000
H           29.68111500000000       -1.95813900000000        5.16145500000000
H           32.73763700000000       -2.88426000000000        3.41771700000000
H           34.47929999999999       -1.55292300000000        2.10176100000000
H           34.22070000000000        1.19393000000000       -2.60977400000000
H           32.26056200000000        2.46800700000000       -3.96832800000000
H           30.60499700000000        0.77932400000000       -0.48445000000000
H           29.19530300000000        2.18776000000000       -5.31490300000000
H           29.12746800000000        3.98411000000000       -7.01182700000000
H           28.88749900000000        6.36543800000000       -7.37385400000000
H           29.18396800000000        7.50599900000000       -6.16737000000000
H           29.86453000000000        6.89841800000000       -3.92698300000000
H           29.93482000000000        5.08627100000000       -2.24556100000000
H           26.91135800000000        3.26834500000000       -3.05715500000000
H           25.19440000000000        1.95462700000000       -1.62482800000000
C           63.75946500000000        0.01715200000000        0.01745500000000
C           63.03461100000000        0.64332900000000       -1.21261200000000
C           63.65006200000000        1.13372600000000       -2.34214700000000
C           62.62863500000000        1.64194600000000       -3.18510700000000
C           61.42295800000000        1.45192200000000       -2.53689600000000
N           61.67993800000000        0.80582500000000       -1.35393800000000
C           59.99490400000000        1.91875900000000       -3.04263500000000
C           59.94540300000000        2.81025700000000       -4.22557600000000
C           59.69601600000000        2.28657100000000       -5.49784600000000
C           59.64340900000000        3.13039300000000       -6.61132500000000
C           59.79796200000000        4.51147800000000       -6.46343500000000
N           59.83662000000000        5.34437600000000       -7.59553400000000
C           60.12154899999999        5.02275600000000       -5.20249000000000
C           60.17291899999999        4.18262100000000       -4.08605100000000
C           58.86625500000000        1.54247200000000       -2.38185500000000
C           57.55695999999999        2.01629500000000       -2.78139000000000
C           56.65543300000000        1.51177800000000       -1.94729300000000
N           58.67321600000000        0.73565500000000       -1.29040600000000
C           57.33905000000000        0.67725500000000       -0.97885500000000
C           56.66914500000000        0.01687200000000        0.00348700000000
C           57.44367699999999       -0.92051600000000        1.02540400000000
C           56.88929699999999       -1.94145100000000        1.77227300000000
C           57.91435200000000       -2.48374400000000        2.58555900000000
C           59.07105099999999       -1.78986700000000        2.30316300000000
N           58.78481399999999       -0.87042000000000        1.32092100000000
C           60.48810000000000       -2.02135100000000        2.97694400000000
C           60.53788100000000       -2.75506100000000        4.26090300000000
C           60.75769700000000       -4.13601100000000        4.27775700000000
C           60.80677000000000       -4.82834800000000        5.49106800000000
C           60.68363200000000       -4.14502100000000        6.70392000000000
N           60.64382800000000       -4.85738700000000        7.91544600000000
C           60.39364400000000       -2.77710700000000        6.68086400000000
C           60.34181600000000       -2.08080000000000        5.46916400000000
C           61.61026900000000       -1.54547100000000        2.37702000000000
C           62.93553799999999       -1.72094600000000        2.94476800000000
C           63.81911600000000       -1.16128500000000        2.12400000000000
C           63.09389000000000       -0.60600700000000        1.00790500000000
N           61.77143000000000       -0.85148400000000        1.20991700000000
H           64.83846699999999        0.09961800000000        0.06552100000000
H           64.71272399999999        1.13750600000000       -2.53221800000000
H           62.76065400000000        2.11417600000000       -4.14780300000000
H           60.97616800000000        0.49727600000000       -0.68766500000000
H           59.54818899999999        1.21547300000000       -5.60857700000000
H           59.46971700000000        2.69314500000000       -7.58905400000000
H           59.60814600000000        6.30675500000000       -7.36747000000000
H           59.27092100000000        4.98085400000000       -8.35600400000000
H           60.32770900000000        6.07964600000000       -5.06779500000000
H           60.39741899999999        4.58531800000000       -3.10047700000000
H           57.34089700000000        2.67580700000000       -3.60256200000000
H           55.59923400000000        1.69978900000000       -2.00519400000000
H           55.85783400000000       -2.25729900000000        1.74783400000000
H           57.81797200000000       -3.28789800000000        3.29922300000000
H           59.47353699999999       -0.28344800000000        0.85743300000000
H           60.88323100000000       -4.66286600000000        3.33486700000000
H           60.95106599999999       -5.90320900000000        5.47214900000000
H           61.19103500000000       -5.71015400000000        7.87308900000000
H           60.89456600000000       -4.27449400000000        8.70697500000000
H           60.21400400000000       -2.23284200000000        7.60237300000000
H           60.14371400000000       -1.01120600000000        5.45326600000000
H           63.16717600000000       -2.21762900000000        3.86957200000000
H           64.88413400000000       -1.12429700000000        2.26269900000000
C           37.23284700000000        0.02960300000000        0.00601200000000
C           35.98057600000000        0.01042200000000        0.00166400000000
C           38.54651500000000        0.02883700000000        0.00794500000000
C           40.04964800000000        0.01042200000000        0.00166400000000
C           51.36722600000000        0.02960300000000        0.00601200000000
C           50.11495500000000        0.01042200000000        0.00166400000000
C           52.68089400000000        0.02883700000000        0.00794500000000
C           54.18402800000000        0.01042200000000        0.00166400000000
C           41.46303900000000       -0.03569600000000       -0.00731300000000
C           42.25568400000000       -0.62185400000000        1.23331800000000
C           41.74719099999999       -1.43228700000000        2.22814900000000
C           42.78380500000000       -1.64480000000000        3.17272200000000
C           43.89482399999999       -0.96392400000000        2.72125300000000
N           43.58497700000000       -0.40877400000000        1.50489500000000
C           45.28455000000000       -0.83276000000000        3.46903400000000
C           45.27869100000000       -0.92541300000000        4.94771000000000
C           45.73825900000000       -2.07929200000000        5.59147900000000
C           45.72958200000000       -2.16137300000000        6.98721300000000
C           45.29996800000000       -1.07872500000000        7.75971400000000
N           45.20645900000000       -1.19969400000000        9.15705300000000
C           44.77048200000000        0.04191800000000        7.11340500000000
C           44.77874100000000        0.12864200000000        5.71769700000000
C           46.41927699999999       -0.59546700000000        2.75901900000000
C           47.70624900000000       -0.40626800000000        3.39638400000000
C           48.61392400000000       -0.18732300000000        2.45121900000000
N           46.62724200000000       -0.46741300000000        1.41335500000000
C           47.95161700000000       -0.22556400000000        1.16293200000000
C           48.61572300000000       -0.03569600000000       -0.00731300000000
C           47.82306499999999       -0.08533800000000       -1.37850900000000
C           48.33137099999999       -0.43848500000000       -2.61218900000000
C           47.29477599999999       -0.26130400000000       -3.56405000000000
C           46.18395199999999        0.18704400000000       -2.88078700000000
N           46.49390399999999        0.21802500000000       -1.54412500000000
C           44.79425799999999        0.60243600000000       -3.51623900000000
C           44.79993900000000        1.09975600000000       -4.91182600000000
C           45.29756300000000        2.37282500000000       -5.20419400000000
C           45.30542300000000        2.84283600000000       -6.52124400000000
C           44.77789200000000        2.06627600000000       -7.55691300000000
N           44.87115900000000        2.50557000000000       -8.88892700000000
C           44.35063200000000        0.76606800000000       -7.27341600000000
C           44.34227299999999        0.29182700000000       -5.95817400000000
C           43.65955499999999        0.54068800000000       -2.77015000000000
C           42.37256499999999        0.96559800000000       -3.28144500000000
C           41.46486599999999        0.79417400000000       -2.32654000000000
C           42.12717700000000        0.25132100000000       -1.15757300000000
N           43.45160499999999        0.12803200000000       -1.48293800000000
H           40.73772700000000       -1.81042600000000        2.28320600000000
H           42.72147800000000       -2.21196200000000        4.08944500000000
H           44.24696000000000        0.04955300000000        0.88536100000000
H           46.09880000000000       -2.91196400000000        4.99151200000000
H           46.07114900000000       -3.07736900000000        7.45762600000000
H           45.89888300000000       -1.83947100000000        9.53154100000000
H           45.22088800000000       -0.29663100000000        9.61916200000000
H           44.35304800000000        0.86534600000000        7.68343200000000
H           44.38956699999999        1.01301400000000        5.21819300000000
H           47.90168900000000       -0.42658600000000        4.45352900000000
H           49.65816400000000       -0.00958400000000        2.63226900000000
H           49.34070500000000       -0.76478600000000       -2.81179300000000
H           47.35695500000000       -0.42153900000000       -4.63006100000000
H           45.83200700000000        0.39544100000000       -0.79410500000000
H           45.68515699999999        2.98973000000000       -4.39655300000000
H           45.72101700000000        3.82501700000000       -6.72074700000000
H           44.18004900000000        2.06338800000000       -9.48549700000000
H           44.85452300000000        3.51760700000000       -8.95809900000000
H           44.01063300000000        0.10871300000000       -8.06669500000000
H           43.98348599999999       -0.71049000000000       -5.73476200000000
H           42.17715100000000        1.36348000000000       -4.26108300000000
H           40.42059400000000        1.02866400000000       -2.42297600000000
190
 energy: -313.148558975053 gnorm: 0.398785920235 xtb: 6.5.1 (b24c23e)
C           26.34933389561744        0.00265156747155        0.02359359559212
C           27.04197562389090       -1.01044251293642        0.88002425803698
C           26.43478783852208       -2.01186603487926        1.63439715408960
C           27.44873035062341       -2.70887544754514        2.31746488789928
C           28.67536209995496       -2.12831853319764        1.98528919574264
N           28.40068437540623       -1.12154074266924        1.08351783814524
C           30.04801449306035       -2.49597499676853        2.53178476453874
C           30.11969986879867       -3.45414088355757        3.68061355683982
C           30.38248010245024       -4.81407251091464        3.47401108551581
C           30.43769968612819       -5.70377042930407        4.54485597778590
C           30.26732991767269       -5.24792831068679        5.85527910820088
N           30.24748023756992       -6.15374995583621        6.92471359077005
C           29.95948473919519       -3.89981978026655        6.06380133379360
C           29.90409103364002       -3.01210268772024        4.99144253266939
C           31.21343881653430       -1.94673055006823        2.02831818855178
C           32.52367255079925       -2.23963667490452        2.59225519876548
C           33.43363182782653       -1.53877846496767        1.90545558912390
N           31.39808461151672       -1.06961731778350        0.99288350601274
C           32.74266684077314       -0.78527762693616        0.86574967830169
C           33.37703107015993        0.03517859235433       -0.03112367547706
C           32.64431577008098        0.78153667114289       -1.13089937407899
C           33.18845984007425        1.29748930738343       -2.30693193201251
C           32.16816754667516        1.95846779002156       -3.01559099809422
C           30.99004580310810        1.84435120968712       -2.28041470107868
N           31.29628743535982        1.09812127578997       -1.15750249977527
C           29.62662833787980        2.42428357894608       -2.64523516672379
C           29.55495962644863        3.51574018422410       -3.66482487805736
C           29.32167762594727        3.22743967152212       -5.01475730338477
C           29.26917628770225        4.24453977042515       -5.96495079767549
C           29.40815107055298        5.58147258546540       -5.58130575989960
N           29.42926062350031        6.59706997190095       -6.54709013228590
C           29.68223516884967        5.87201676220046       -4.24124277013893
C           29.73790644063765        4.85275660728172       -3.29274561602207
C           28.47009422764624        1.96527652821578       -2.05239184886866
C           27.14301957759554        2.48850306134617       -2.36839703618011
C           26.25413174572394        1.81437254369871       -1.63140556416943
C           26.99549205354989        0.85319818839852       -0.83171974387430
N           28.32054859290859        0.98574628260543       -1.11182390205805
H           25.26134746945178        0.07811958907973        0.08031578128337
H           25.37124002290069       -2.19791588457343        1.67816039529447
H           27.31589520053761       -3.54087255330382        2.99364053947572
H           29.10219902778790       -0.54610814223434        0.63003696421152
H           30.52946717228983       -5.17217720278902        2.45925711566021
H           30.61040159223042       -6.75802659417905        4.34886253124674
H           30.46964412060819       -5.71848135173456        7.81138666743575
H           30.80573161323005       -6.98025974292315        6.75035087033830
H           29.75386870646851       -3.53193297612947        7.06487672014452
H           29.68101677288705       -1.96232761655044        5.16268818365531
H           32.73281524254067       -2.88997174799852        3.42322278952240
H           34.49044386012854       -1.54705410254191        2.09605338562142
H           34.21887728210017        1.19688875755626       -2.61081503774803
H           32.26335386874950        2.46571092999180       -3.96471938002510
H           30.60767707171317        0.77990217293922       -0.48411241801768
H           29.19631670671104        2.19140400352379       -5.31605156260924
H           29.12537420619480        3.98547593136976       -7.00958540851547
H           28.88922753844844        6.36566723344665       -7.37119740083545
H           29.18477093009571        7.50316587671479       -6.16809122722546
H           29.86163335681564        6.89642073369165       -3.92784423426041
H           29.93514238389512        5.08712446305665       -2.24998055816319
H           26.91626168686577        3.27515446331230       -3.06468626328960
H           25.18751330508833        1.95303736987567       -1.62283861944548
C           63.72917268555760        0.03320528224342       -0.01499960047186
C           63.03657095083030        0.63478021229425       -1.19726768213151
C           63.64374907997951        1.13974197471426       -2.34489496645499
C           62.62980604312688        1.64496494375486       -3.17980376848084
C           61.40315140236307        1.45457042490308       -2.53855468798378
N           61.67783537375782        0.80742242784016       -1.35203416014269
C           60.03029570527963        1.90222321682609       -3.02147643670277
C           59.95877160232638        2.80113684995601       -4.21742469821868
C           59.69604720256280        2.28855759359042       -5.49393089094077
C           59.64083872800511        3.12714486346279       -6.60527045784269
C           59.81120416931434        4.50715055005444       -6.46172502646897
N           59.83103609044479        5.34065736189171       -7.58840456735268
C           60.11905308899848        5.01890671674680       -5.19720963759032
C           60.17444124165937        4.17839059615765       -4.08745759829982
C           58.86488136167542        1.53787981775440       -2.37138180663721
C           57.55476556105396        2.01994793059816       -2.78595742960506
C           56.64454324222964        1.51214575731593       -1.94668495993903
N           58.67937981749735        0.73077159499502       -1.28006589430161
C           57.33424739612605        0.67255427554673       -0.97471650785994
C           56.69689128280044       -0.01287517875480        0.02845816982626
C           57.43291164981419       -0.91181086251631        1.00783034267816
C           56.88979365628869       -1.93885631256918        1.77932095167530
C           57.91028325342588       -2.47713978093814        2.58492363973074
C           59.08827468046083       -1.78760487136798        2.30527643803965
N           58.78156743888039       -0.86529253333722        1.32162873511781
C           60.45181282934674       -2.00998972415781        2.95352630783032
C           60.52353961089985       -2.75245526965577        4.24955944088387
C           60.75685537878685       -4.13255429057146        4.27814144557701
C           60.80936201546364       -4.82450159854424        5.48584569022225
C           60.67038418711836       -4.14484472261564        6.69938626672670
N           60.64931557762610       -4.85228045402980        7.90915123476654
C           60.39630159938826       -2.77384236352495        6.67523449813861
C           60.34061676116210       -2.08402048455502        5.46582204694174
C           61.60842690489560       -1.53805823816955        2.37099145443712
C           62.93549898265857       -1.72581582098243        2.95269624053252
C           63.82439222781334       -1.16282823667823        2.12768170135833
C           63.08303519853212       -0.60457867083480        1.00889454279245
N           61.75798286440732       -0.84681951963159        1.20207811901413
H           64.81716827025816        0.10568744276483        0.04549791314921
H           64.70729233912078        1.13971433965841       -2.53601911717250
H           62.76263154036293        2.11259366143797       -4.14456529851460
H           60.97632451105323        0.49780712829181       -0.68804015062034
H           59.54906388949343        1.21876246923742       -5.61010710347376
H           59.46813638819405        2.69488164882922       -7.58660876994163
H           59.60890018317236        6.30347008396200       -7.36782482286817
H           59.27281103288065        4.98162123893727       -8.35302440864606
H           60.32466550280524        6.07763505047247       -5.06841226451415
H           60.39751448029590        4.58556104816797       -3.10483061911923
H           57.34576887314000        2.67984657847291       -3.60937722829900
H           55.58780990044836        1.69562832444529       -1.99830689575188
H           55.85949121503711       -2.25772154160967        1.75102355612777
H           57.81520464431969       -3.28486316967324        3.29610488417135
H           59.47051996839605       -0.28289686005001        0.85773074733445
H           60.88221395397043       -4.66315123148085        3.33867285424052
H           60.95315449889526       -5.90069738353176        5.47294848663029
H           61.18928033586086       -5.70752932101120        7.87269810796792
H           60.89374890405426       -4.27584593341484        8.70438728235744
H           60.21690032242697       -2.23413010327639        7.60061389234528
H           60.14338717256499       -1.01529997660056        5.45511203685696
H           63.16225860834776       -2.22339810057750        3.87791606487400
H           64.89100573697981       -1.12272475529777        2.26069207946524
C           37.26420925324733        0.02951893668039        0.00565575903730
C           36.00035608999976        0.00949855402903        0.00015168790072
C           38.62632484722175        0.02712037114441        0.01017055648608
C           39.98902730524684        0.00073483360235        0.01668808426108
C           51.38193891494214        0.02816012425339        0.00393265113709
C           50.11050844394693        0.00720344093924       -0.01583173109164
C           52.74255144228970        0.02880493321389        0.00771881533680
C           54.08277649513975        0.01010549750958        0.00161985970519
C           41.42479637547240       -0.06322911043346        0.01487135464528
C           42.24110630307386       -0.61575973356170        1.21822937204160
C           41.74785133022874       -1.42530816130947        2.23340777865155
C           42.78080214365705       -1.63566083650586        3.17208908406233
C           43.90969951553771       -0.96063495930055        2.72239044779369
N           43.57828604517962       -0.40213460108508        1.50379276495968
C           45.25352033982496       -0.83264250581800        3.44192277279795
C           45.26631665644553       -0.92973813707961        4.93450979164671
C           45.73905374682410       -2.07495980354603        5.58953655466846
C           45.73232128334210       -2.15947413681051        6.98024180845657
C           45.28787331597924       -1.08372169902035        7.75481012467457
N           45.21204894875955       -1.19672125207685        9.14923256927416
C           44.77302550041939        0.04311853771058        7.10673274431650
C           44.77663395344640        0.12394033794408        5.71596852049710
C           46.42008248171851       -0.59117058402344        2.74965674989524
C           47.70702693990978       -0.40678546460412        3.40528440651378
C           48.62223484865456       -0.18650662045014        2.45480313855845
N           46.62382322753139       -0.46016116240177        1.39755111961015
C           47.95041107490118       -0.22235647049324        1.16658599239384
C           48.63266896501789       -0.05155772577789       -0.03896693772612
C           47.83629682919896       -0.08594404371660       -1.36130939054079
C           48.33083814538887       -0.42952726130322       -2.61430982100255
C           47.29808437311402       -0.25324959012250       -3.55979109402881
C           46.16895808408508        0.19043472922135       -2.88050546143323
N           46.49976706741366        0.22339634247257       -1.54066574391139
C           44.82480591463332        0.59183573928867       -3.49075765682821
C           44.81221601169530        1.09057396676148       -4.90123766442947
C           45.29959766449054        2.36780055236461       -5.20437949430484
C           45.30286701452948        2.84127340824065       -6.51460952815434
C           44.79000065480896        2.05976660298779       -7.55436183224141
N           44.86554849267969        2.50520838826467       -8.88054419031344
C           44.34791781096881        0.76505762524115       -7.26623209235257
C           44.34153858637066        0.29500888482347       -5.95462460867744
C           43.65849121294742        0.54096212240337       -2.75978613389528
C           42.37247588882074        0.96879668359013       -3.29052826465033
C           41.45683471371712        0.79692492390442       -2.33013281925419
C           42.12601186455354        0.25651102144186       -1.16127788794887
N           43.45145152982040        0.12808356189947       -1.46368112087501
H           40.74055748852238       -1.80989464548723        2.28665394146028
H           42.71916398378470       -2.20956000078830        4.08558280899125
H           44.24207605633041        0.05043634240297        0.88524789371189
H           46.09730138463938       -2.91047363452821        4.99474619524419
H           46.07209836356071       -3.07433456979983        7.45678356628505
H           45.89670986775827       -1.83769843165179        9.52983758157396
H           45.22072649935073       -0.29927683745408        9.61727946338850
H           44.35657387829788        0.86438688880146        7.68255978885716
H           44.38968106963171        1.01064149351692        5.22140745695582
H           47.89661008868430       -0.42864044029699        4.46293427246768
H           49.66755037630316       -0.00833215579629        2.62763957240433
H           49.33779421664526       -0.76294025967301       -2.81477042292190
H           47.35936192456127       -0.42092371294081       -4.62553572195925
H           45.83637017521217        0.39619217647666       -0.79378627784670
H           45.68504273751533        2.98881407766150       -4.40043035497486
H           45.71749805428980        3.82376298511306       -6.72030027968878
H           44.18223369200249        2.06434906083711       -9.48322386645985
H           44.85468966687000        3.51442788559384       -8.95740787731754
H           44.00967764388424        0.11117767212894       -8.06469932442320
H           43.98497406093098       -0.70785467026324       -5.73713498478834
H           42.18254362610928        1.36537930286332       -4.27093876820800
H           40.41119049116438        1.02798181868699       -2.41834358815202
190
 energy: -313.239024912060 gnorm: 0.373541086421 xtb: 6.5.1 (b24c23e)
C           26.38927738346500       -0.03203329477795        0.05191265991702