      -----------------------------------------------------------      
     |                   =====================                   |     
     |                           x T B                           |     
     |                   =====================                   |     
     |                         S. Grimme                         |     
     |          Mulliken Center for Theoretical Chemistry        |     
     |                    University of Bonn                     |     
      -----------------------------------------------------------      

   * xtb version 6.5.1 (b24c23e) compiled by 'conda@728c89f4b128' on 2022-07-12

   xtb is free software: you can redistribute it and/or modify it under
   the terms of the GNU Lesser General Public License as published by
   the Free Software Foundation, either version 3 of the License, or
   (at your option) any later version.
   
   xtb is distributed in the hope that it will be useful,
   but WITHOUT ANY WARRANTY; without even the implied warranty of
   MERCHANTABILITY or FITNESS FOR A PARTICULAR PURPOSE.  See the
   GNU Lesser General Public License for more details.
   
   Cite this work as:
   * C. Bannwarth, E. Caldeweyher, S. Ehlert, A. Hansen, P. Pracht,
     J. Seibert, S. Spicher, S. Grimme, WIREs Comput. Mol. Sci., 2020, 11,
     e01493. DOI: 10.1002/wcms.1493
   
   for GFN2-xTB:
   * C. Bannwarth, S. Ehlert and S. Grimme., J. Chem. Theory Comput., 2019,
     15, 1652-1671. DOI: 10.1021/acs.jctc.8b01176
   for GFN1-xTB:
   * S. Grimme, C. Bannwarth, P. Shushkov, J. Chem. Theory Comput., 2017,
     13, 1989-2009. DOI: 10.1021/acs.jctc.7b00118
   for GFN0-xTB:
   * P. Pracht, E. Caldeweyher, S. Ehlert, S. Grimme, ChemRxiv, 2019, preprint.
     DOI: 10.26434/chemrxiv.8326202.v1
   for GFN-FF:
   * S. Spicher and S. Grimme, Angew. Chem. Int. Ed., 2020, 59, 15665-15673.
     DOI: 10.1002/anie.202004239
   
   for ALPB and GBSA implicit solvation:
   * S. Ehlert, M. Stahn, S. Spicher, S. Grimme, J. Chem. Theory Comput.,
     2021, 17, 4250-4261. DOI: 10.1021/acs.jctc.1c00471
   
   for DFT-D4:
   * E. Caldeweyher, C. Bannwarth and S. Grimme, J. Chem. Phys., 2017,
     147, 034112. DOI: 10.1063/1.4993215
   * E. Caldeweyher, S. Ehlert, A. Hansen, H. Neugebauer, S. Spicher,
     C. Bannwarth and S. Grimme, J. Chem. Phys., 2019, 150, 154122.
     DOI: 10.1063/1.5090222
   * E. Caldeweyher, J.-M. Mewes, S. Ehlert and S. Grimme, Phys. Chem. Chem. Phys.
     2020, 22, 8499-8512. DOI: 10.1039/D0CP00502A
   
   for sTDA-xTB:
   * S. Grimme and C. Bannwarth, J. Chem. Phys., 2016, 145, 054103.
     DOI: 10.1063/1.4959605
   
   in the mass-spec context:
   * V. Asgeirsson, C. Bauer and S. Grimme, Chem. Sci., 2017, 8, 4879.
     DOI: 10.1039/c7sc00601b
   * J. Koopman and S. Grimme, ACS Omega 2019, 4, 12, 15120-15133.
     DOI: 10.1021/acsomega.9b02011
   
   for metadynamics refer to:
   * S. Grimme, J. Chem. Theory Comput., 2019, 155, 2847-2862
     DOI: 10.1021/acs.jctc.9b00143
   
   for SPH calculations refer to:
   * S. Spicher and S. Grimme, J. Chem. Theory Comput., 2021, 17, 1701-1714
     DOI: 10.1021/acs.jctc.0c01306
   
   with help from (in alphabetical order)
   P. Atkinson, C. Bannwarth, F. Bohle, G. Brandenburg, E. Caldeweyher
   M. Checinski, S. Dohm, S. Ehlert, S. Ehrlich, I. Gerasimov, C. Hölzer
   A. Katbashev, J. Koopman, C. Lavigne, S. Lehtola, F. März, M. Müller,
   F. Musil, H. Neugebauer, J. Pisarek, C. Plett, P. Pracht, F. Pultar,
   J. Seibert, P. Shushkov, S. Spicher, M. Stahn, M. Steiner, T. Strunk,
   J. Stückrath, T. Rose, and J. Unsleber
   
 * started run on 2022/07/26 at 15:50:12.869     

           -------------------------------------------------
          |                Calculation Setup                |
           -------------------------------------------------

          program call               : xtb xtbopt.xyz --gfn 1 --vipea
          hostname                   : cx3-6-14.cx3.hpc.ic.ac.uk
          coordinate file            : xtbopt.xyz
          omp threads                :                     1

   ID    Z sym.   atoms
    1    6 C      1-5, 7-10, 12-17, 19-23, 38-42, 44-47, 49-54, 56-60, 75-80
    2    7 N      6, 11, 18, 24, 43, 48, 55, 61
    3    1 H      25-37, 62-74

           -------------------------------------------------
          |                 I P E A - x T B                 |
           -------------------------------------------------

        Reference                      10.1039/c7sc00601b
      * Hamiltonian:
        H0-scaling (s, p, d)           2.150000    2.300000    2.000000
        zeta-weighting                 0.000000
      * Dispersion:
        s8                             2.400000
        a1                             0.630000
        a2                             5.000000
        s9                             0.000000
      * Repulsion:
        kExp                           1.500000
        rExp                           1.000000
      * Coulomb:
        alpha                          1.000000
        third order                    atomic
        anisotropic                    false
      * Halogen bond correction:
        rad-scale                      1.300000
        damping                        0.440000


          ...................................................
          :                      SETUP                      :
          :.................................................:
          :  # basis functions                 322          :
          :  # atomic orbitals                 322          :
          :  # shells                          214          :
          :  # electrons                       250          :
          :  # halogen bonds                     0          :
          :  max. iterations                   250          :
          :  Hamiltonian                  GFN1-xTB          :
          :  restarted?                      false          :
          :  GBSA solvation                  false          :
          :  PC potential                    false          :
          :  electronic temp.          300.0000000     K    :
          :  accuracy                    1.0000000          :
          :  -> integral cutoff          0.2500000E+02      :
          :  -> integral neglect         0.1000000E-07      :
          :  -> SCF convergence          0.1000000E-05 Eh   :
          :  -> wf. convergence          0.2000000E-04 e    :
          :  Broyden damping             0.4000000          :
          ...................................................

 iter      E             dE          RMSdq      gap      omega  full diag
   1   -158.2176145 -0.158218E+03  0.102E+01    1.04       0.0  T
   2   -158.2297922 -0.121777E-01  0.649E+00    1.42       1.0  T
   3   -155.3888927  0.284090E+01  0.519E+00    0.88       1.0  T
   4   -158.9308117 -0.354192E+01  0.104E+00    1.42       1.0  T
   5   -159.1279384 -0.197127E+00  0.315E-01    1.41       1.0  T
   6   -159.1439137 -0.159753E-01  0.126E-01    1.39       1.0  T
   7   -159.1461151 -0.220138E-02  0.446E-02    1.38       1.0  T
   8   -159.1463315 -0.216366E-03  0.264E-02    1.38       1.0  T
   9   -159.1463765 -0.450117E-04  0.166E-02    1.38       1.0  T
  10   -159.1464086 -0.320950E-04  0.411E-03    1.38       2.7  T
  11   -159.1464111 -0.250667E-05  0.144E-03    1.38       7.8  T
  12   -159.1464113 -0.248599E-06  0.753E-04    1.38      14.8  T
  13   -159.1464114 -0.805893E-07  0.250E-04    1.38      44.7  T
  14   -159.1464114 -0.985733E-08  0.898E-05    1.38     124.5  T
  15   -159.1464114 -0.120178E-08  0.412E-05    1.38     271.2  T

   *** convergence criteria satisfied after 15 iterations ***

         #    Occupation            Energy/Eh            Energy/eV
      -------------------------------------------------------------
         1        2.0000           -1.0378957             -28.2426
       ...           ...                  ...                  ...
       119        2.0000           -0.4160962             -11.3226
       120        2.0000           -0.4125487             -11.2260
       121        2.0000           -0.4028665             -10.9626
       122        2.0000           -0.3864963             -10.5171
       123        2.0000           -0.3864388             -10.5155
       124        2.0000           -0.3786813             -10.3044
       125        2.0000           -0.3643845              -9.9154 (HOMO)
       126                         -0.3135135              -8.5311 (LUMO)
       127                         -0.3007900              -8.1849
       128                         -0.2995160              -8.1502
       129                         -0.2981703              -8.1136
       130                         -0.2601875              -7.0801
       ...                                ...                  ...
       322                        496.5597744           13512.0792
      -------------------------------------------------------------
                  HL-Gap            0.0508710 Eh            1.3843 eV
             Fermi-level           -0.3389490 Eh           -9.2233 eV

 SCC (total)                   0 d,  0 h,  0 min,  0.683 sec
 SCC setup                      ...        0 min,  0.001 sec (  0.138%)
 Dispersion                     ...        0 min,  0.001 sec (  0.202%)
 classical contributions        ...        0 min,  0.001 sec (  0.085%)
 integral evaluation            ...        0 min,  0.121 sec ( 17.658%)
 iterations                     ...        0 min,  0.295 sec ( 43.245%)
 molecular gradient             ...        0 min,  0.259 sec ( 37.860%)
 printout                       ...        0 min,  0.006 sec (  0.808%)

         :::::::::::::::::::::::::::::::::::::::::::::::::::::
         ::                     SUMMARY                     ::
         :::::::::::::::::::::::::::::::::::::::::::::::::::::
         :: total energy            -155.858259639338 Eh    ::
         :: gradient norm              0.049531059560 Eh/a0 ::
         :: HOMO-LUMO gap              1.384270361194 eV    ::
         ::.................................................::
         :: SCC energy              -159.146411415462 Eh    ::
         :: -> electrostatic           0.119643332519 Eh    ::
         :: repulsion energy           3.349182755050 Eh    ::
         :: dispersion energy         -0.061030978926 Eh    ::
         :: halogen bond corr.         0.000000000000 Eh    ::
         :: add. restraining           0.000000000000 Eh    ::
         :: total charge              -0.000000000000 e     ::
         :::::::::::::::::::::::::::::::::::::::::::::::::::::

           ------------------------------------------------- 
          |        vertical delta SCC IP calculation        |
           ------------------------------------------------- 
   1   -158.7355440 -0.158736E+03  0.219E-01    1.38       0.0  T
   2   -158.7405855 -0.504149E-02  0.139E-01    1.45       1.0  T
   3   -158.7427083 -0.212281E-02  0.106E-01    1.42       1.0  T
   4   -158.7435057 -0.797405E-03  0.506E-02    1.43       1.0  T
   5   -158.7434467  0.590326E-04  0.322E-02    1.43       1.0  T
   6   -158.7435605 -0.113831E-03  0.142E-02    1.43       1.0  T
   7   -158.7436038 -0.432784E-04  0.297E-03    1.43       3.8  T
   8   -158.7436053 -0.152207E-05  0.907E-04    1.43      12.3  T
   9   -158.7436054 -0.558578E-07  0.566E-04    1.43      19.8  T
  10   -158.7436054 -0.338515E-07  0.404E-04    1.43      27.7  T
  11   -158.7436055 -0.392930E-07  0.160E-04    1.43      69.8  T
  12   -158.7436055 -0.264174E-08  0.102E-04    1.43     110.1  T
     SCC iter.                  ...        0 min,  0.263 sec
     gradient                   ...        0 min,  0.283 sec
------------------------------------------------------------------------
empirical IP shift (eV):    4.8455
delta SCC IP (eV):    6.1154
------------------------------------------------------------------------
           ------------------------------------------------- 
          |        vertical delta SCC EA calculation        |
           ------------------------------------------------- 
   1   -159.3961269 -0.159396E+03  0.388E-01    0.37       0.0  T
   2   -159.4137736 -0.176467E-01  0.254E-01    0.25       1.0  T
   3   -159.4196402 -0.586660E-02  0.190E-01    0.31       1.0  T
   4   -159.4220173 -0.237706E-02  0.102E-01    0.29       1.0  T
   5   -159.4217777  0.239593E-03  0.677E-02    0.28       1.0  T
   6   -159.4223004 -0.522701E-03  0.253E-02    0.29       1.0  T
   7   -159.4224226 -0.122268E-03  0.494E-03    0.29       2.3  T
   8   -159.4224264 -0.371673E-05  0.195E-03    0.29       5.7  T
   9   -159.4224267 -0.374480E-06  0.961E-04    0.29      11.6  T
  10   -159.4224268 -0.386984E-07  0.723E-04    0.29      15.5  T
  11   -159.4224269 -0.112449E-06  0.373E-04    0.29      30.0  T
  12   -159.4224269 -0.298338E-07  0.160E-04    0.29      69.7  T
  13   -159.4224269 -0.274346E-08  0.703E-05    0.29     159.1  T
     SCC iter.                  ...        0 min,  0.308 sec
     gradient                   ...        0 min,  0.322 sec
------------------------------------------------------------------------
empirical EA shift (eV):    4.8455
delta SCC EA (eV):    2.6653
------------------------------------------------------------------------
           -------------------------------------------------
          |                Property Printout                |
           -------------------------------------------------

    * Orbital Energies and Occupations

         #    Occupation            Energy/Eh            Energy/eV
      -------------------------------------------------------------
         1        2.0000           -0.9654061             -26.2700
       ...           ...                  ...                  ...
       114        2.0000           -0.3549995              -9.6600
       115        2.0000           -0.3549375              -9.6583
       116        2.0000           -0.3499226              -9.5219
       117        2.0000           -0.3484770              -9.4825
       118        2.0000           -0.3438982              -9.3579
       119        2.0000           -0.3438642              -9.3570
       120        2.0000           -0.3370674              -9.1721
       121        2.0000           -0.3239611              -8.8154
       122        2.0000           -0.3135444              -8.5320
       123        2.0000           -0.3135190              -8.5313
       124        2.0000           -0.3039884              -8.2719
       125        2.0000           -0.2892494              -7.8709
       126        0.9952           -0.2385362              -6.4909 (HOMO)
       127        0.0030           -0.2279553              -6.2030 (LUMO)
       128        0.0018           -0.2274736              -6.1899
       129        0.0001           -0.2243157              -6.1039
       130                         -0.1872390              -5.0950
       131                         -0.1770743              -4.8184
       132                         -0.1656471              -4.5075
       133                         -0.1511586              -4.1132
       134                         -0.1454185              -3.9570
       135                         -0.1381091              -3.7581
       136                         -0.1231958              -3.3523
       137                         -0.1224800              -3.3329
       ...                                ...                  ...
       322                        496.6369229           13514.1785
      -------------------------------------------------------------
                  HL-Gap            0.0105809 Eh            0.2879 eV
             Fermi-level           -0.2486850 Eh           -6.7671 eV

  Mulliken/CM5 charges         n(s)   n(p)   n(d)
     1C    -0.04021 -0.08085   1.077  2.963  0.000
     2C     0.05700  0.11762   1.105  2.838  0.000
     3C    -0.04633 -0.09155   1.075  2.971  0.000
     4C    -0.04258 -0.08780   1.079  2.964  0.000
     5C     0.05245  0.11311   1.098  2.850  0.000
     6N    -0.16719 -0.52079   1.314  3.854  0.000
     7C    -0.02542 -0.06621   1.089  2.937  0.000
     8C     0.04917  0.11397   1.117  2.834  0.000
     9C    -0.04667 -0.09301   1.089  2.958  0.000
    10C    -0.04525 -0.09065   1.088  2.957  0.000
    11N    -0.29473 -0.48208   1.297  3.998  0.000
    12C     0.06058  0.13173   1.131  2.809  0.000
    13C     0.00372  0.01116   1.076  2.920  0.000
    14C     0.06194  0.12701   1.109  2.829  0.000
    15C    -0.04256 -0.08695   1.075  2.968  0.000
    16C    -0.04334 -0.08857   1.077  2.966  0.000
    17C     0.05228  0.11235   1.097  2.851  0.000
    18N    -0.16285 -0.51575   1.317  3.846  0.000
    19C    -0.02773 -0.06847   1.087  2.940  0.000
    20C     0.05075  0.11687   1.120  2.829  0.000
    21C    -0.04629 -0.09258   1.091  2.955  0.000
    22C    -0.04842 -0.09469   1.089  2.959  0.000
    23C     0.05387  0.11993   1.126  2.821  0.000
    24N    -0.30063 -0.48823   1.294  4.007  0.000
    25H     0.01207  0.07084   0.988  0.000  0.000
    26H     0.02492  0.08154   0.975  0.000  0.000
    27H     0.02646  0.08309   0.974  0.000  0.000
    28H     0.16135  0.36973   0.839  0.000  0.000
    29H     0.01739  0.07632   0.983  0.000  0.000
    30H     0.01755  0.07397   0.982  0.000  0.000
    31H     0.01529  0.07315   0.985  0.000  0.000
    32H     0.02450  0.08234   0.975  0.000  0.000
    33H     0.02675  0.08341   0.973  0.000  0.000
    34H     0.15969  0.36806   0.840  0.000  0.000
    35H     0.01645  0.07537   0.984  0.000  0.000
    36H     0.01703  0.07340   0.983  0.000  0.000
    37H     0.01584  0.07220   0.984  0.000  0.000
    38C    -0.04020 -0.08084   1.077  2.963  0.000
    39C     0.05699  0.11762   1.105  2.838  0.000
    40C    -0.04633 -0.09154   1.075  2.971  0.000
    41C    -0.04258 -0.08780   1.079  2.964  0.000
    42C     0.05245  0.11312   1.098  2.850  0.000
    43N    -0.16719 -0.52079   1.314  3.854  0.000
    44C    -0.02542 -0.06621   1.089  2.937  0.000
    45C     0.04917  0.11398   1.117  2.834  0.000
    46C    -0.04668 -0.09301   1.089  2.958  0.000
    47C    -0.04525 -0.09064   1.088  2.957  0.000
    48N    -0.29473 -0.48208   1.297  3.998  0.000
    49C     0.06059  0.13174   1.131  2.809  0.000
    50C     0.00373  0.01117   1.076  2.920  0.000
    51C     0.06193  0.12701   1.109  2.829  0.000
    52C    -0.04256 -0.08695   1.075  2.968  0.000
    53C    -0.04334 -0.08857   1.077  2.966  0.000
    54C     0.05229  0.11236   1.097  2.851  0.000
    55N    -0.16285 -0.51575   1.317  3.846  0.000
    56C    -0.02773 -0.06847   1.087  2.940  0.000
    57C     0.05075  0.11687   1.120  2.829  0.000
    58C    -0.04629 -0.09258   1.091  2.955  0.000
    59C    -0.04842 -0.09469   1.089  2.959  0.000
    60C     0.05386  0.11992   1.126  2.821  0.000
    61N    -0.30063 -0.48822   1.294  4.007  0.000
    62H     0.01207  0.07084   0.988  0.000  0.000
    63H     0.02492  0.08153   0.975  0.000  0.000
    64H     0.02646  0.08308   0.974  0.000  0.000
    65H     0.16135  0.36972   0.839  0.000  0.000
    66H     0.01739  0.07632   0.983  0.000  0.000
    67H     0.01755  0.07397   0.982  0.000  0.000
    68H     0.01529  0.07315   0.985  0.000  0.000
    69H     0.02451  0.08234   0.975  0.000  0.000
    70H     0.02675  0.08341   0.973  0.000  0.000
    71H     0.15969  0.36806   0.840  0.000  0.000
    72H     0.01645  0.07537   0.984  0.000  0.000
    73H     0.01703  0.07340   0.983  0.000  0.000
    74H     0.01584  0.07220   0.984  0.000  0.000
    75C    -0.03179 -0.03188   1.075  2.956  0.000
    76C    -0.03180 -0.03189   1.075  2.956  0.000
    77C    -0.03516 -0.03582   1.060  2.975  0.000
    78C    -0.02989 -0.03130   1.089  2.940  0.000
    79C    -0.03516 -0.03582   1.060  2.975  0.000
    80C    -0.02988 -0.03129   1.089  2.940  0.000

Wiberg/Mayer (AO) data.
largest (>0.10) Wiberg bond orders for each atom

 ---------------------------------------------------------------------------
     #   Z sym  total        # sym  WBO       # sym  WBO       # sym  WBO
 ---------------------------------------------------------------------------
     1   6 C    3.781 --    23 C    1.372     2 C    1.363    25 H    0.997
     2   6 C    3.927 --     1 C    1.363     3 C    1.241     6 N    1.229
     3   6 C    3.819 --     4 C    1.586     2 C    1.241    26 H    0.995
     4   6 C    3.841 --     3 C    1.586     5 C    1.247    27 H    0.995
     5   6 C    3.907 --     7 C    1.364     4 C    1.247     6 N    1.214
     6   7 N    3.246 --     2 C    1.229     5 C    1.214    28 H    0.963
     7   6 C    3.842 --     8 C    1.398     5 C    1.364    29 H    0.998
     8   6 C    3.941 --     7 C    1.398    11 N    1.336     9 C    1.156
     9   6 C    3.859 --    10 C    1.685     8 C    1.156    30 H    0.995
    10   6 C    3.839 --     9 C    1.685    12 C    1.169    31 H    1.002
    11   7 N    2.563 --    12 C    1.426     8 C    1.336
    12   6 C    3.944 --    11 N    1.426    13 C    1.265    10 C    1.169
    13   6 C    3.802 --    12 C    1.265    14 C    1.265    78 C    1.245
    14   6 C    3.901 --    15 C    1.277    13 C    1.265    18 N    1.250
    15   6 C    3.813 --    16 C    1.561    14 C    1.277    32 H    1.000
    16   6 C    3.826 --    15 C    1.561    17 C    1.260    33 H    0.995
    17   6 C    3.903 --    19 C    1.353    16 C    1.260    18 N    1.213
    18   7 N    3.267 --    14 C    1.250    17 C    1.213    34 H    0.962
    19   6 C    3.821 --    20 C    1.399    17 C    1.353    35 H    0.998
    20   6 C    3.964 --    19 C    1.399    24 N    1.357    21 C    1.144
    21   6 C    3.868 --    22 C    1.707    20 C    1.144    36 H    0.996
    22   6 C    3.854 --    21 C    1.707    23 C    1.144    37 H    0.996
    23   6 C    3.972 --    24 N    1.383     1 C    1.372    22 C    1.144
    24   7 N    2.537 --    23 C    1.383    20 C    1.357
    25   1 H    1.036 --     1 C    0.997
    26   1 H    1.019 --     3 C    0.995
    27   1 H    1.020 --     4 C    0.995
    28   1 H    1.088 --     6 N    0.963
    29   1 H    1.039 --     7 C    0.998
    30   1 H    1.023 --     9 C    0.995
    31   1 H    1.033 --    10 C    1.002
    32   1 H    1.028 --    15 C    1.000
    33   1 H    1.020 --    16 C    0.995
    34   1 H    1.089 --    18 N    0.962
    35   1 H    1.039 --    19 C    0.998
    36   1 H    1.023 --    21 C    0.996
    37   1 H    1.023 --    22 C    0.996
    38   6 C    3.781 --    60 C    1.372    39 C    1.363    62 H    0.997
    39   6 C    3.927 --    38 C    1.363    40 C    1.241    43 N    1.229
    40   6 C    3.819 --    41 C    1.586    39 C    1.241    63 H    0.995
    41   6 C    3.841 --    40 C    1.586    42 C    1.247    64 H    0.995
    42   6 C    3.907 --    44 C    1.364    41 C    1.247    43 N    1.214
    43   7 N    3.246 --    39 C    1.229    42 C    1.214    65 H    0.963
    44   6 C    3.842 --    45 C    1.398    42 C    1.364    66 H    0.998
    45   6 C    3.941 --    44 C    1.398    48 N    1.336    46 C    1.156
    46   6 C    3.859 --    47 C    1.685    45 C    1.156    67 H    0.995
    47   6 C    3.839 --    46 C    1.685    49 C    1.168    68 H    1.002
    48   7 N    2.563 --    49 C    1.426    45 C    1.336
    49   6 C    3.943 --    48 N    1.426    50 C    1.265    47 C    1.168
    50   6 C    3.802 --    49 C    1.265    51 C    1.265    80 C    1.245
    51   6 C    3.901 --    52 C    1.277    50 C    1.265    55 N    1.250
    52   6 C    3.813 --    53 C    1.561    51 C    1.277    69 H    1.000
    53   6 C    3.826 --    52 C    1.561    54 C    1.260    70 H    0.995
    54   6 C    3.903 --    56 C    1.353    53 C    1.260    55 N    1.213
    55   7 N    3.267 --    51 C    1.250    54 C    1.213    71 H    0.962
    56   6 C    3.821 --    57 C    1.399    54 C    1.353    72 H    0.998
    57   6 C    3.964 --    56 C    1.399    61 N    1.357    58 C    1.144
    58   6 C    3.868 --    59 C    1.707    57 C    1.144    73 H    0.996
    59   6 C    3.854 --    58 C    1.707    60 C    1.144    74 H    0.996
    60   6 C    3.972 --    61 N    1.383    38 C    1.372    59 C    1.144
    61   7 N    2.537 --    60 C    1.383    57 C    1.357
    62   1 H    1.036 --    38 C    0.997
    63   1 H    1.019 --    40 C    0.995
    64   1 H    1.020 --    41 C    0.995
    65   1 H    1.088 --    43 N    0.963
    66   1 H    1.039 --    44 C    0.998
    67   1 H    1.023 --    46 C    0.995
    68   1 H    1.033 --    47 C    1.002
    69   1 H    1.028 --    52 C    1.000
    70   1 H    1.020 --    53 C    0.995
    71   1 H    1.089 --    55 N    0.962
    72   1 H    1.039 --    56 C    0.998
    73   1 H    1.023 --    58 C    0.996
    74   1 H    1.023 --    59 C    0.996
    75   6 C    3.828 --    76 C    2.346    79 C    1.374    78 C    0.161
    76   6 C    3.828 --    75 C    2.346    77 C    1.374    80 C    0.161
    77   6 C    3.791 --    78 C    2.440    76 C    1.374
    78   6 C    3.761 --    77 C    2.440    13 C    1.245    75 C    0.161
    79   6 C    3.791 --    80 C    2.440    75 C    1.374
    80   6 C    3.761 --    79 C    2.440    50 C    1.245    76 C    0.161
 ---------------------------------------------------------------------------

Topologies differ in total number of bonds
Writing topology from bond orders to xtbtopo.mol

 dipole moment from electron density (au)
     X       Y       Z   
 -27.5259  -0.0011  -0.0140  total (Debye):   69.964


           -------------------------------------------------
          | TOTAL ENERGY             -156.134275148003 Eh   |
          | GRADIENT NORM               0.071595306407 Eh/α |
          | HOMO-LUMO GAP               0.287920195577 eV   |
           -------------------------------------------------
########################################################################
[WARNING] Runtime exception occurred
-1- restart_readRestart: Dimension missmatch in restart file.
########################################################################

------------------------------------------------------------------------
 * finished run on 2022/07/26 at 15:50:15.171     
------------------------------------------------------------------------
 total:
 * wall-time:     0 d,  0 h,  0 min,  2.302 sec
 *  cpu-time:     0 d,  0 h,  0 min,  2.287 sec
 * ratio c/w:     0.994 speedup
 SCF:
 * wall-time:     0 d,  0 h,  0 min,  2.145 sec
 *  cpu-time:     0 d,  0 h,  0 min,  2.133 sec
 * ratio c/w:     0.994 speedup

