80
 energy: -135.152984805890 gnorm: 4.259003117940 xtb: 6.5.1 (b24c23e)
C            3.22677200000000       -0.00158800000000        0.00000000000000
C            3.96120500000000       -1.37874600000000       -0.07188600000000
C            3.37406000000000       -2.62241000000000       -0.13680300000000
C            4.42597800000000       -3.57830800000000       -0.18670400000000
C            5.61443000000000       -2.88112300000000       -0.15031600000000
N            5.32273800000000       -1.54544400000000       -0.08058900000000
C            7.04578600000000       -3.49944500000000       -0.18260100000000
C            8.16834700000000       -2.75463800000000       -0.14371800000000
C            9.45333300000000       -3.40710400000000       -0.17778800000000
C           10.39061700000000       -2.46587600000000       -0.12865000000000
N            8.39017800000000       -1.41242100000000       -0.07364200000000
C            9.73955600000000       -1.16800800000000       -0.06088900000000
C           10.43631800000000       -0.00025600000000        0.00007100000000
C            9.66165300000000        1.39203200000000        0.07275800000000
C           10.22523200000000        2.65257100000000        0.13857200000000
C            9.16720700000000        3.59672800000000        0.18786000000000
C            7.98929600000000        2.88679900000000        0.15078800000000
N            8.29464500000000        1.54966300000000        0.08098000000000
C            6.55649900000000        3.51136100000000        0.18338600000000
C            5.43897800000000        2.76175300000000        0.14425100000000
C            4.13520900000000        3.38647400000000        0.17685700000000
C            3.21872600000000        2.42242100000000        0.12653100000000
C            3.91278100000000        1.15678500000000        0.06046800000000
N            5.24886300000000        1.41801100000000        0.07410700000000
H            2.14405500000000        0.00663000000000        0.00042600000000
H            2.31338300000000       -2.82007700000000       -0.14712000000000
H            4.32671300000000       -4.65137100000000       -0.24272000000000
H            6.00276300000000       -0.78940500000000       -0.04112600000000
H            7.12382800000000       -4.57887800000000       -0.23896000000000
H            9.61829400000000       -4.46801800000000       -0.23317900000000
H           11.44865600000000       -2.65327400000000       -0.13843800000000
H           11.28060600000000        2.87734600000000        0.15031200000000
H            9.25563400000000        4.67082500000000        0.24393800000000
H            7.61594200000000        0.79182100000000        0.04141400000000
H            6.47526700000000        4.59024100000000        0.23970300000000
H            3.94923500000000        4.44363000000000        0.23203900000000
H            2.15184500000000        2.55182100000000        0.13328200000000
C           25.90644000000000        0.00105600000000       -0.00017000000000
C           25.17200600000000        1.35759200000000       -0.24824600000000
C           25.75915200000000        2.58263300000000       -0.47227200000000
C           24.70723400000000        3.52421700000000       -0.64446800000000
C           23.51878100000000        2.83747100000000       -0.51888400000000
N           23.81047400000000        1.52179300000000       -0.27827500000000
C           22.08742600000000        3.44653300000000       -0.63027500000000
C           20.96486500000000        2.71287900000000       -0.49610400000000
C           19.67987900000000        3.35557400000000       -0.61364800000000
C           18.74259500000000        2.42844000000000       -0.44409300000000
N           20.74303400000000        1.39076300000000       -0.25430900000000
C           19.39365500000000        1.15000900000000       -0.21028700000000
C           18.69689400000000       -0.00025600000000        0.00007100000000
C           19.47155900000000       -1.37169400000000        0.25088300000000
C           18.90797999999999       -2.61335600000000        0.47796500000000
C           19.96600400000000       -3.54337500000000        0.64804600000000
C           21.14391600000000       -2.84407800000000        0.52014800000000
N           20.83856700000000       -1.52696600000000        0.27927100000000
C           22.57671300000000       -3.45928800000000        0.63265000000000
C           23.69423300000000       -2.72090600000000        0.49761300000000
C           24.99800200000000       -3.33627300000000        0.61014400000000
C           25.91448500000000       -2.38665600000000        0.43648000000000
C           25.22043100000000       -1.13997100000000        0.20849600000000
N           23.88434900000000       -1.39728500000000        0.25555600000000
H           26.98915600000000       -0.00703900000000        0.00130700000000
H           26.81982800000000        2.77734000000000       -0.50787800000000
H           24.80649800000000        4.58121100000000       -0.83776800000000
H           23.13044900000000        0.77707500000000       -0.14208700000000
H           22.00938300000000        4.50980000000000       -0.82473300000000
H           19.51491800000000        4.40060000000000       -0.80476900000000
H           17.68455600000000        2.61303200000000       -0.47785600000000
H           17.85260600000000       -2.83476500000000        0.51846200000000
H           19.87757700000000       -4.60138600000000        0.84154000000000
H           21.51727000000000       -0.78047300000000        0.14275000000000
H           22.65794500000000       -4.52201200000000        0.82699600000000
H           25.18397700000000       -4.37759900000000        0.80057400000000
H           26.98136700000000       -2.51411900000000        0.45978600000000
C           15.17027100000000        0.00035600000000        0.00869600000000
C           13.96133100000000       -0.01309900000000        0.00024900000000
C           12.53980300000000       -0.00428000000000       -0.01173400000000
C           11.32813300000000        0.00315900000000       -0.00087100000000
C           16.58687500000000       -0.00631900000000        0.00922900000000
C           17.80757100000000        0.00315900000000       -0.00087100000000
80
 energy: -136.288036852419 gnorm: 0.645471952900 xtb: 6.5.1 (b24c23e)
C            3.23306403964607       -0.01310237427334       -0.00060113978768
C            3.95811527140864       -1.37024577324274       -0.07144207907910
C            3.37538891139866       -2.62522902869691       -0.13695059875564
C            4.42314941527351       -3.57737454007194       -0.18665629876830
C            5.62281268510010       -2.88371660430761       -0.15044959364499
N            5.32264592445341       -1.54509577124708       -0.08057042094633
C            7.03427442209457       -3.49384045545285       -0.18230754754043
C            8.16986188583855       -2.75540452975249       -0.14381049923289
C            9.45402192683187       -3.41000285683527       -0.17794361706976
C           10.39287300763724       -2.46466610361868       -0.12860446837352
N            8.38665454742890       -1.41129568820581       -0.07359147744400
C            9.71019346787599       -1.18371100647896       -0.06142336606102
C           10.26809853227524        0.00834302177379        0.00110222410079
C            9.65051832396255        1.39283925500235        0.07262890281481
C           10.22437879837116        2.65342940125761        0.13863028996733
C            9.16946708835649        3.59588978569139        0.18782179738458
C            7.98055785650739        2.88997820706395        0.15097824752631
N            8.29259235219431        1.55137283185901        0.08108855008337
C            6.56807272564635        3.50602670334234        0.18311154736053
C            5.43676462123416        2.76034891751560        0.14417954894753
C            4.13380859500226        3.38884932062967        0.17698177028065
C            3.21637532355314        2.42371394691706        0.12659862906031
C            3.91435032279668        1.15910165147578        0.06058973032572
N            5.25134437107976        1.41518620447328        0.07395682544950
H            2.14550002067988        0.00520838008948        0.00035177478936
H            2.31375421720705       -2.82045311615663       -0.14713943828812
H            4.32632588662650       -4.65107474340997       -0.24270450750282
H            6.00239060144920       -0.78973268855717       -0.04114305818826
H            7.12238283469044       -4.57750016201445       -0.23887819409033
H            9.61808948109970       -4.46906991810873       -0.23323037138177
H           11.44990244600447       -2.65204976485856       -0.13837183827349
H           11.28043841046212        2.87711156237704        0.15030006277330
H            9.25608474986805        4.67046332621501        0.24391387613211
H            7.61626985417285        0.79227584175447        0.04143402400992
H            6.47682708089275        4.58890896629872        0.23962402637801
H            3.94948460179879        4.44475112082501        0.23209754189503
H            2.15075365864490        2.55151227814147        0.13326584712642
C           25.90015032471307        0.01239397326342       -0.00224355861599
C           25.17509369167538        1.34922343848172       -0.24671534705517
C           25.75782298782938        2.58540723992884       -0.47277980570798
C           24.71005912628665        3.52329799189201       -0.64430104238473
C           23.51040053302012        2.84002961910433       -0.51934985133248
N           23.81056791662881        1.52144811564668       -0.27821148272362
C           22.09893476000591        3.44101153005792       -0.62926335481267
C           20.96334977613682        2.71365578250075       -0.49629246477163
C           19.67920499653504        3.35843697864692       -0.61417397685993
C           18.74034869042487        2.42721880202137       -0.44388419261718
N           20.74656433590009        1.38966196515911       -0.25412157930764
C           19.42320689815925        1.16555044012169       -0.21291656371177
C           18.86630825754369       -0.00943285903246        0.00189133766584
C           19.48276685173941       -1.37267085609328        0.25083944583795
C           18.90882241514598       -2.61418393104999        0.47813232391530
C           19.96375956000277       -3.54254789963101        0.64790276609318
C           21.15263827765768       -2.84720899377510        0.52074707456963
N           20.84062542766325       -1.52864839808771        0.27959531353246
C           22.56515545637853       -3.45403447007697        0.63169406137023
C           23.69644154068081       -2.71952911422377        0.49736314648623
C           24.99940382588546       -3.33861274823068        0.61057257933435
C           25.91683492973667       -2.38793102746433        0.43671331536376
C           25.21886051577477       -1.14225163186750        0.20891388749168
N           23.88186749857531       -1.39449779279852        0.25504348926136
H           26.98771125976327       -0.00563867565429        0.00105091024759
H           26.81945667865773        2.77771042333325       -0.50794553455827
H           24.80688489036342        4.58091942554386       -0.83771464483700
H           23.13082274701335        0.77739706436110       -0.14214580628243
H           22.01082781290689        4.50844391601339       -0.82447611199941
H           19.51512264345945        4.40163674740802       -0.80495490946878
H           17.68331045539268        2.61182059826224       -0.47763285111388
H           17.85277024986783       -2.83452941384633        0.51841851559545
H           19.87712584015264       -4.60102938150653        0.84146966625192
H           21.51694337722928       -0.78092034231689        0.14282728867355
H           22.65638492356809       -4.52070130541181        0.82674662779701
H           25.18372759090125       -4.37870345307098        0.80077600320609
H           26.98245820375452       -2.51381499940829        0.45973037564195
C           15.17910309788283        0.00045346824674        0.00856286322106
C           13.95238190337862       -0.01308338117321        0.00019138288590
C           12.59840747125845       -0.00377051081036       -0.01165864811476
C           11.48043469722939        0.01146915947963       -0.00106864411988
C           16.53048405026994       -0.00735756369853        0.00983985538938
C           17.65168125328695       -0.00381452765831       -0.00008056141385
80
 energy: -136.441010388721 gnorm: 0.380181410128 xtb: 6.5.1 (b24c23e)
C            3.26276556020175       -0.04644030179189       -0.00235762781426
C            3.95660900876381       -1.35440562701044       -0.07063035811644
C            3.38091799487809       -2.62828965702270       -0.13712731345839
C            4.41834137600653       -3.57230835069529       -0.18640321672262
C            5.63645359161521       -2.88444300848264       -0.15049167344729
N            5.32381276635273       -1.54302792029432       -0.08047413992484
C            6.99344240243651       -3.47517686391878       -0.18137465221980
C            8.15750353829609       -2.75960008967021       -0.14403594667291
C            9.45237850689049       -3.41869718054129       -0.17846424468187
C           10.38977028096371       -2.46474207382033       -0.12885072994380
N            8.34676156346958       -1.41790090253699       -0.07318475406357
C            9.66152562313256       -1.19893052161303       -0.06137779457255
C           10.20686935575586        0.04919600956563        0.00480553016498
C            9.62294109832788        1.38525929016026        0.07256984522758
C           10.21319144007369        2.65308076661002        0.13834990710981
C            9.17086738946083        3.59192701956419        0.18757906340363
C            7.95750725630400        2.89815373446290        0.15141369032554
N            8.27161122945766        1.56008813972657        0.08177479058767
C            6.60002863523084        3.48222143779806        0.18186121085103
C            5.43807467934322        2.75262978803632        0.14376527044192
C            4.13147323756322        3.39499224424695        0.17728667357210
C            3.21042145502512        2.42529260654543        0.12666487297414
C            3.92297230085432        1.15725220587768        0.06047786625036
N            5.26084848434426        1.40577057283769        0.07345197138132
H            2.16875254064848       -0.01520902631357       -0.00073173553904
H            2.31849138687176       -2.82403796491455       -0.14734451664415
H            4.32171309683430       -4.64685007990181       -0.24249856547638
H            6.00230442218941       -0.78962814822491       -0.04115091636370
H            7.09870869861765       -4.56103222663788       -0.23803365467864
H            9.61668599229919       -4.47818287622690       -0.23374913860532
H           11.45322067668738       -2.64013623134490       -0.13780271201243
H           11.27315142986831        2.87350912657789        0.15008073577252
H            9.26169230921279        4.66653147092958        0.24370051522409
H            7.60698505501400        0.79634972047675        0.04169206576171
H            6.49769247065757        4.56944466326265        0.23859069727147
H            3.95197871893565        4.45312607286938        0.23251939357040
H            2.14281167353657        2.54843848329490        0.13308764493812
C           25.87044968120613        0.04522504545524       -0.00825963328672
C           25.17660167490044        1.33362022553903       -0.24387262281356
C           25.75229698415171        2.58841727445810       -0.47334300744362
C           24.71486867021322        3.51830673999901       -0.64339644903061
C           23.49677092455356        2.84074525609491       -0.51948074548832
N           23.80940272608839        1.51941276289299       -0.27784722213215
C           22.13978327370853        3.42265657754099       -0.62592859909293
C           20.97574896635307        2.71785034864847       -0.49703740314573
C           19.68087322919709        3.36707132118291       -0.61578651957813
C           18.74346288313595        2.42743565601328       -0.44414224737054
N           20.78645387210938        1.39631811082720       -0.25472699798124
C           19.47170860399315        1.18082893463701       -0.21535226888820
C           18.92626855680683       -0.04871852504409        0.00927039015279
C           19.50970492857629       -1.36484474860097        0.24937250388457
C           18.91986112192077       -2.61383288875052        0.47781699155035
C           19.96227894271709       -3.53857008245062        0.64716616652251
C           21.17557650268061       -2.85512787873153        0.52222749480760
N           20.86129198056178       -1.53705754828109        0.28130946132542
C           22.53314052555997       -3.43054298849823        0.62740446624700
C           23.69511739730842       -2.71191096783594        0.49596328935170
C           25.00173038646999       -3.34466270529215        0.61166696458103
C           25.92278635912967       -2.38948932777991        0.43698685574480
C           25.21024021293514       -1.14043094633506        0.20856993097615
N           23.87235949428182       -1.38522325878380        0.25333796879852
H           26.96446081438776        0.01446866852604       -0.00263887040934
H           26.81472175632721        2.78123835567125       -0.50860401509853
H           24.81149796698821        4.57675711657932       -0.83696416530090
H           23.13090804007757        0.77729550858430       -0.14213663424729
H           22.03451375244213        4.49224270819297       -0.82152705247462
H           19.51654017648288        4.41065911576285       -0.80663046699694
H           17.67999800929151        2.60013967174681       -0.47555915198124
H           17.85998192166084       -2.83104862236778        0.51774185689664
H           19.87151627459653       -4.59711271575116        0.84075962883346
H           21.52608960922499       -0.78488834010030        0.14357868954645
H           22.63549413542016       -4.50150464311188        0.82322297991663
H           25.18122860602508       -4.38695290372133        0.80227405800624
H           26.99039772353271       -2.51079101261533        0.45916490246789
C           15.16156721685848        0.00039768121415        0.00722687470287
C           13.96972935101339       -0.01193370067804        0.00113385294913
C           12.68170546645957        0.00178684737960       -0.01055067680756
C           11.45520299099745        0.04679030801272       -0.00433332578759
C           16.45012139716987       -0.01679778628939        0.01754850200770
C           17.67708564636368       -0.03842794582039        0.00071419221595
80
 energy: -136.506665670539 gnorm: 0.216054069926 xtb: 6.5.1 (b24c23e)
C            3.30739061178851       -0.08556028878583       -0.00442560727145
C            3.96121181475235       -1.33914296792657       -0.06985541360610
C            3.38844460535804       -2.63101967436489       -0.13729293235180
C            4.41044295649956       -3.56432477387093       -0.18600338180469
C            5.64664586191309       -2.88112253075007       -0.15032335014144
N            5.32776309906437       -1.53902738673587       -0.08027870856540
C            6.94159620171433       -3.44942495318022       -0.18010016972228
C            8.13881474089541       -2.76582946382469       -0.14425701520284
C            9.44152851109563       -3.42544389642801       -0.17886982118316
C           10.37596104517114       -2.45712076957656       -0.12806824018896
N            8.30795674856909       -1.42273626586785       -0.07231271110444
C            9.61803280869553       -1.20374884069750       -0.06008960051425
C           10.16351773724761        0.09137400058964        0.00784907460354
C            9.58272082608602        1.37801593516290        0.07226840961126
C           10.19053100415021        2.65171051640841        0.13816180226371
C            9.16837190458157        3.58755715972312        0.18724833128316
C            7.92888621609021        2.90786321308220        0.15205370817471
N            8.23736091079508        1.57095320815661        0.08272600472996
C            6.63358877185299        3.45113433955772        0.18025353045929
C            5.44021430244987        2.74299053222756        0.14324752104046
C            4.13233125932690        3.39709833363046        0.17736790011919
C            3.20821208397920        2.42142086301484        0.12643378795336
C            3.93627871117538        1.15297343526366        0.06022990559832
N            5.27246068504142        1.39656385780612        0.07294715956874
H            2.21179129576843       -0.05351467215510       -0.00275908704476
H            2.32615091857318       -2.82803862273197       -0.14757891399264
H            4.31313982276863       -4.63899948560140       -0.24210686558494
H            6.00611818868125       -0.78748387788510       -0.04104923105054
H            7.05004277970525       -4.53491306828558       -0.23672344342052
H            9.60837059182447       -4.48759101567310       -0.23447081394536
H           11.44624900010080       -2.61389447048519       -0.13640915804668
H           11.25381102466923        2.86350403602253        0.14950966879829
H            9.26930345290042        4.66111154465530        0.24333398672333
H            7.58133552990651        0.80303520335094        0.04216931987777
H            6.53154690264748        4.53847339752780        0.23689572996347
H            3.95926126311946        4.45958536221090        0.23282725827874
H            2.13663326723016        2.53807725148955        0.13251489893281
C           25.82582358130283        0.08375975084477       -0.01533529789037
C           25.17200424191176        1.31858029065130       -0.24114886852430
C           25.74478423398386        2.59109976624198       -0.47386578103680
C           24.72279379460384        3.51044292146445       -0.64198805796649
C           23.48660485914413        2.83748888181854       -0.51889120146644
N           23.80545375528981        1.51548342991793       -0.27714381266663
C           22.19169919992230        3.39738295129999       -0.62135192256013
C           20.99454415791293        2.72407333110579       -0.49806518036197
C           19.69179865387153        3.37377467080349       -0.61708324645863
C           18.75741872900207        2.41996679472524       -0.44262429334634
N           20.82551462672300        1.40127020088142       -0.25476551746042
C           19.51541569213623        1.18568918032717       -0.21485315005797
C           18.96895942628527       -0.08967121397863        0.01808422812078
C           19.54926255026950       -1.35763146575319        0.24770036774752
C           18.94222368962055       -2.61257119912646        0.47721522581596
C           19.96459826408554       -3.53416269030870        0.64628208241346
C           21.20396704918783       -2.86444887200375        0.52405895208637
N           20.89506812033193       -1.54755997326716        0.28335113076675
C           22.49942795409035       -3.39975302387285        0.62184133977810
C           23.69291254643158       -2.70235948343034        0.49421745678197
C           25.00081648135160       -3.34672783066161        0.61202064194676
C           25.92496477605829       -2.38568423858822        0.43626599741085
C           25.19692474352919       -1.13621159811877        0.20777460689969
N           23.86073840382008       -1.37612175284320        0.25165379792442
H           26.92142280959090        0.05219603800127       -0.00956804868957
H           26.80707457606695        2.78517016251822       -0.50935739132859
H           24.82009015223035        4.56902349050073       -0.83558161397241
H           23.12708875173831        0.77519767240205       -0.14176585757664
H           22.08322644908008        4.46658902921922       -0.81690381721978
H           19.52487642126700        4.41997687745594       -0.80850432729090
H           17.68708090618833        2.57425816537963       -0.47086664933198
H           17.87907402434205       -2.82136350529257        0.51586192574482
H           19.86386361739629       -4.59167477913359        0.83976829082938
H           21.55137369662437       -0.79134204903276        0.14481488128366
H           22.60150924708315       -4.47086805985957        0.81756782305793
H           25.17390337381644       -4.39330683602225        0.80341752841743
H           26.99654896258119       -2.50060198064205        0.45727512737914
C           15.17611087537184       -0.00172761519602        0.00558994762279
C           13.95620244956742       -0.00951677324210        0.00148215258551
C           12.67882261762802        0.01400038102343       -0.01011212805839
C           11.45048970936850        0.08301862545908       -0.00710891456183
C           16.45407439259527       -0.03143074338662        0.02179508695120
C           17.68224598040874       -0.07419309333505        0.00371095302441
80
 energy: -136.530801188152 gnorm: 0.135035897881 xtb: 6.5.1 (b24c23e)
C            3.34115619473476       -0.10515352901596       -0.00542902705722
C            3.97240214390050       -1.33596388782841       -0.06966543009594
C            3.38886190108793       -2.63414559786108       -0.13743809295839
C            4.39367273584701       -3.56102606874532       -0.18582884720077
C            5.63976710278847       -2.87839691800249       -0.15016583284337
N            5.33336300580805       -1.53843326379339       -0.08021191929268
C            6.90221006172307       -3.44358368868446       -0.17974750928450
C            8.11437188841793       -2.77716900121857       -0.14429758876039
C            9.41931513400749       -3.42528865479107       -0.17863586191363
C           10.34147246393923       -2.43915035323429       -0.12569678050394
N            8.26165476733081       -1.42996113741408       -0.07170900515301
C            9.57040126686156       -1.19745038686311       -0.05844143139903
C           10.12110052023617        0.11134969331130        0.00863039577720
C            9.52830705688380        1.37473134209999        0.07223849834968
C           10.15702553745586        2.64807080965030        0.13820176465984
C            9.16025305760818        3.58771159557391        0.18728005491929
C            7.90464975636436        2.91665298808868        0.15278681166043
N            8.19028176409040        1.57954899275206        0.08372553934984
C            6.63486870281438        3.44423925613932        0.17994295463591
C            5.43216134755878        2.74233779173050        0.14325100274889
C            4.12832927165098        3.39481922596016        0.17725714740559
C            3.20710621131549        2.41257730320108        0.12598723617429
C            3.94651709116391        1.15225019413474        0.06021362612734
N            5.27889363473108        1.39728907636267        0.07302818424133
H            2.25061104882939       -0.09185218740750       -0.00474258836382
H            2.32720215147955       -2.82764558091011       -0.14754064612470
H            4.29604725958871       -4.63451475713699       -0.24185843222028
H            6.01542536799787       -0.78937530308238       -0.04108118869496
H            6.99006907867912       -4.52598912315363       -0.23647131896699
H            9.59320215747179       -4.48892156387041       -0.23507378023429
H           11.41661973454986       -2.56843169652401       -0.13331703628498
H           11.22221551020187        2.84145905192738        0.14831023945841
H            9.27451387196111        4.65937898794511        0.24312870215236
H            7.52994187952991        0.81449136588361        0.04309067615006
H            6.54669482875759        4.52704466075291        0.23618336517418
H            3.96267807424632        4.45995090363265        0.23285272463795
H            2.13287572265145        2.51760803124721        0.13145981779160
C           25.79205610986462        0.10307100683055       -0.01887257809164
C           25.16085491371431        1.31546981995665       -0.24057970075509
C           25.74445400095360        2.59418273657080       -0.47444269155767
C           24.73970044283147        3.50723314828435       -0.64142507705561
C           23.49360857380406        2.83489604768845       -0.51842197821030
N           23.79989777964997        1.51497337219049       -0.27703181516245
C           22.23131564483772        3.39186172361708       -0.62033929951172
C           21.01929671845622        2.73545194687208       -0.49970190027773
C           19.71427118778022        3.37369266744092       -0.61697904146142
C           18.79236108198563        2.40227969911663       -0.43829213139480
N           20.87244647221513        1.40865114070829       -0.25508089495995
C           19.56382075802191        1.17955796229108       -0.21209485413416
C           19.01159234265105       -0.10902114367591        0.02330945389705
C           19.60315207700077       -1.35445984075619        0.24734850826132
C           18.97526638907811       -2.60907011169302        0.47653652789350
C           19.97242769442969       -3.53421941363891        0.64619275745042
C           21.22785069957359       -2.87284643999054        0.52572162852994
N           20.94159501955078       -1.55583879436801        0.28513250336971
C           22.49779773214390       -3.39260247886239        0.62057359889101
C           23.70074294695968       -2.70154753885289        0.49409772407598
C           25.00459194305486       -3.34442494317154        0.61160113966746
C           25.92591834858567       -2.37698069887740        0.43467276723971