      -----------------------------------------------------------      
     |                   =====================                   |     
     |                           x T B                           |     
     |                   =====================                   |     
     |                         S. Grimme                         |     
     |          Mulliken Center for Theoretical Chemistry        |     
     |                    University of Bonn                     |     
      -----------------------------------------------------------      

   * xtb version 6.5.1 (b24c23e) compiled by 'conda@728c89f4b128' on 2022-07-12

   xtb is free software: you can redistribute it and/or modify it under
   the terms of the GNU Lesser General Public License as published by
   the Free Software Foundation, either version 3 of the License, or
   (at your option) any later version.
   
   xtb is distributed in the hope that it will be useful,
   but WITHOUT ANY WARRANTY; without even the implied warranty of
   MERCHANTABILITY or FITNESS FOR A PARTICULAR PURPOSE.  See the
   GNU Lesser General Public License for more details.
   
   Cite this work as:
   * C. Bannwarth, E. Caldeweyher, S. Ehlert, A. Hansen, P. Pracht,
     J. Seibert, S. Spicher, S. Grimme, WIREs Comput. Mol. Sci., 2020, 11,
     e01493. DOI: 10.1002/wcms.1493
   
   for GFN2-xTB:
   * C. Bannwarth, S. Ehlert and S. Grimme., J. Chem. Theory Comput., 2019,
     15, 1652-1671. DOI: 10.1021/acs.jctc.8b01176
   for GFN1-xTB:
   * S. Grimme, C. Bannwarth, P. Shushkov, J. Chem. Theory Comput., 2017,
     13, 1989-2009. DOI: 10.1021/acs.jctc.7b00118
   for GFN0-xTB:
   * P. Pracht, E. Caldeweyher, S. Ehlert, S. Grimme, ChemRxiv, 2019, preprint.
     DOI: 10.26434/chemrxiv.8326202.v1
   for GFN-FF:
   * S. Spicher and S. Grimme, Angew. Chem. Int. Ed., 2020, 59, 15665-15673.
     DOI: 10.1002/anie.202004239
   
   for ALPB and GBSA implicit solvation:
   * S. Ehlert, M. Stahn, S. Spicher, S. Grimme, J. Chem. Theory Comput.,
     2021, 17, 4250-4261. DOI: 10.1021/acs.jctc.1c00471
   
   for DFT-D4:
   * E. Caldeweyher, C. Bannwarth and S. Grimme, J. Chem. Phys., 2017,
     147, 034112. DOI: 10.1063/1.4993215
   * E. Caldeweyher, S. Ehlert, A. Hansen, H. Neugebauer, S. Spicher,
     C. Bannwarth and S. Grimme, J. Chem. Phys., 2019, 150, 154122.
     DOI: 10.1063/1.5090222
   * E. Caldeweyher, J.-M. Mewes, S. Ehlert and S. Grimme, Phys. Chem. Chem. Phys.
     2020, 22, 8499-8512. DOI: 10.1039/D0CP00502A
   
   for sTDA-xTB:
   * S. Grimme and C. Bannwarth, J. Chem. Phys., 2016, 145, 054103.
     DOI: 10.1063/1.4959605
   
   in the mass-spec context:
   * V. Asgeirsson, C. Bauer and S. Grimme, Chem. Sci., 2017, 8, 4879.
     DOI: 10.1039/c7sc00601b
   * J. Koopman and S. Grimme, ACS Omega 2019, 4, 12, 15120-15133.
     DOI: 10.1021/acsomega.9b02011
   
   for metadynamics refer to:
   * S. Grimme, J. Chem. Theory Comput., 2019, 155, 2847-2862
     DOI: 10.1021/acs.jctc.9b00143
   
   for SPH calculations refer to:
   * S. Spicher and S. Grimme, J. Chem. Theory Comput., 2021, 17, 1701-1714
     DOI: 10.1021/acs.jctc.0c01306
   
   with help from (in alphabetical order)
   P. Atkinson, C. Bannwarth, F. Bohle, G. Brandenburg, E. Caldeweyher
   M. Checinski, S. Dohm, S. Ehlert, S. Ehrlich, I. Gerasimov, C. Hölzer
   A. Katbashev, J. Koopman, C. Lavigne, S. Lehtola, F. März, M. Müller,
   F. Musil, H. Neugebauer, J. Pisarek, C. Plett, P. Pracht, F. Pultar,
   J. Seibert, P. Shushkov, S. Spicher, M. Stahn, M. Steiner, T. Strunk,
   J. Stückrath, T. Rose, and J. Unsleber
   
 * started run on 2022/07/30 at 04:08:32.695     

           -------------------------------------------------
          |                Calculation Setup                |
           -------------------------------------------------

          program call               : xtb xtbopt.xyz --gfn 1 --vipea
          hostname                   : cx3-15-11.cx3.hpc.ic.ac.uk
          coordinate file            : xtbopt.xyz
          omp threads                :                     1

   ID    Z sym.   atoms
    1   28 Ni     1, 61, 127, 186
    2    6 C      2-6, 8-12, 14-18, 20-25, 27-31, 33-38, 62-66, 68-72, 74-78,
                  80-85, 87-91, 93-98, 121-126, 128-132, 134-138, 140-144,
                  146-151, 153-157, 159-164, 187-191, 193-197, 199-203,
                  205-210, 212-216, 218-223
    3    7 N      7, 13, 19, 26, 32, 39, 67, 73, 79, 86, 92, 99, 133, 139,
                  145, 152, 158, 165, 192, 198, 204, 211, 217, 224
    4    1 H      40-60, 100-120, 166-185, 225-244

           -------------------------------------------------
          |                 I P E A - x T B                 |
           -------------------------------------------------

        Reference                      10.1039/c7sc00601b
      * Hamiltonian:
        H0-scaling (s, p, d)           2.150000    2.300000    2.000000
        zeta-weighting                 0.000000
      * Dispersion:
        s8                             2.400000
        a1                             0.630000
        a2                             5.000000
        s9                             0.000000
      * Repulsion:
        kExp                           1.500000
        rExp                           1.000000
      * Coulomb:
        alpha                          1.000000
        third order                    atomic
        anisotropic                    false
      * Halogen bond correction:
        rad-scale                      1.300000
        damping                        0.440000


          ...................................................
          :                      SETUP                      :
          :.................................................:
          :  # basis functions                 994          :
          :  # atomic orbitals                 990          :
          :  # shells                          650          :
          :  # electrons                       778          :
          :  # halogen bonds                     0          :
          :  max. iterations                   250          :
          :  Hamiltonian                  GFN1-xTB          :
          :  restarted?                      false          :
          :  GBSA solvation                  false          :
          :  PC potential                    false          :
          :  electronic temp.          300.0000000     K    :
          :  accuracy                    1.0000000          :
          :  -> integral cutoff          0.2500000E+02      :
          :  -> integral neglect         0.1000000E-07      :
          :  -> SCF convergence          0.1000000E-05 Eh   :
          :  -> wf. convergence          0.2000000E-04 e    :
          :  Broyden damping             0.4000000          :
          ...................................................

 iter      E             dE          RMSdq      gap      omega  full diag
   1   -482.1473144 -0.482147E+03  0.103E+01    0.49       0.0  T
   2   -483.3504510 -0.120314E+01  0.644E+00    0.94       1.0  T
   3   -478.1508292  0.519962E+01  0.440E+00    0.73       1.0  T
   4   -484.2877047 -0.613688E+01  0.129E+00    1.41       1.0  T
   5   -485.2024384 -0.914734E+00  0.246E-01    1.15       1.0  T
   6   -485.2376124 -0.351740E-01  0.748E-02    1.22       1.0  T
   7   -485.2396375 -0.202515E-02  0.421E-02    1.20       1.0  T
   8   -485.2404708 -0.833298E-03  0.188E-02    1.20       1.0  T
   9   -485.2405323 -0.615402E-04  0.107E-02    1.20       1.0  T
  10   -485.2405633 -0.309130E-04  0.523E-03    1.20       1.2  T
  11   -485.2405731 -0.988786E-05  0.181E-03    1.20       3.5  T
  12   -485.2405747 -0.158353E-05  0.464E-04    1.20      13.8  T
  13   -485.2405748 -0.575045E-07  0.228E-04    1.20      28.1  T
  14   -485.2405748 -0.214275E-07  0.102E-04    1.20      62.7  T
  15   -485.2405748 -0.541951E-08  0.318E-05    1.20     201.6  T

   *** convergence criteria satisfied after 15 iterations ***

         #    Occupation            Energy/Eh            Energy/eV
      -------------------------------------------------------------
         1        2.0000           -1.0338354             -28.1321
       ...           ...                  ...                  ...
       383        2.0000           -0.3690042             -10.0411
       384        2.0000           -0.3689729             -10.0403
       385        2.0000           -0.3688304             -10.0364
       386        2.0000           -0.3687026             -10.0329
       387        2.0000           -0.3685653             -10.0292
       388        2.0000           -0.3636721              -9.8960
       389        2.0000           -0.3563652              -9.6972 (HOMO)
       390                         -0.3120945              -8.4925 (LUMO)
       391                         -0.3021409              -8.2217
       392                         -0.2915508              -7.9335
       393                         -0.2914171              -7.9299
       394                         -0.2912508              -7.9253
       ...                                ...                  ...
       990                        555.0367670           15103.3192
      -------------------------------------------------------------
                  HL-Gap            0.0442708 Eh            1.2047 eV
             Fermi-level           -0.3342295 Eh           -9.0948 eV

 SCC (total)                   0 d,  0 h,  0 min, 14.464 sec
 SCC setup                      ...        0 min,  0.018 sec (  0.122%)
 Dispersion                     ...        0 min,  0.023 sec (  0.158%)
 classical contributions        ...        0 min,  0.006 sec (  0.044%)
 integral evaluation            ...        0 min,  1.406 sec (  9.719%)
 iterations                     ...        0 min,  9.889 sec ( 68.368%)
 molecular gradient             ...        0 min,  2.986 sec ( 20.643%)
 printout                       ...        0 min,  0.137 sec (  0.945%)

         :::::::::::::::::::::::::::::::::::::::::::::::::::::
         ::                     SUMMARY                     ::
         :::::::::::::::::::::::::::::::::::::::::::::::::::::
         :: total energy            -475.986959657627 Eh    ::
         :: gradient norm              0.080974630190 Eh/a0 ::
         :: HOMO-LUMO gap              1.204668743523 eV    ::
         ::.................................................::
         :: SCC energy              -485.240574813963 Eh    ::
         :: -> electrostatic           0.381736647881 Eh    ::
         :: repulsion energy           9.481775817199 Eh    ::
         :: dispersion energy         -0.228160660863 Eh    ::
         :: halogen bond corr.         0.000000000000 Eh    ::
         :: add. restraining           0.000000000000 Eh    ::
         :: total charge               0.000000000000 e     ::
         :::::::::::::::::::::::::::::::::::::::::::::::::::::

           ------------------------------------------------- 
          |        vertical delta SCC IP calculation        |
           ------------------------------------------------- 
   1   -484.8521375 -0.484852E+03  0.812E-02    1.20       0.0  T
   2   -484.8487568  0.338065E-02  0.100E-01    1.13       1.0  T
   3   -484.8561154 -0.735856E-02  0.532E-02    1.16       1.0  T
   4   -484.8573033 -0.118791E-02  0.464E-02    1.16       1.0  T
   5   -484.8596545 -0.235123E-02  0.232E-02    1.17       1.0  T
   6   -484.8598381 -0.183558E-03  0.126E-02    1.16       1.0  T
   7   -484.8598536 -0.155299E-04  0.717E-03    1.16       1.0  T
   8   -484.8598879 -0.342940E-04  0.214E-03    1.16       3.0  T
   9   -484.8598895 -0.160642E-05  0.137E-03    1.16       4.7  T
  10   -484.8598900 -0.510194E-06  0.763E-04    1.16       8.4  T
  11   -484.8598902 -0.202601E-06  0.397E-04    1.16      16.1  T
  12   -484.8598903 -0.539678E-07  0.157E-04    1.16      40.7  T
  13   -484.8598903 -0.125170E-07  0.689E-05    1.16      92.9  T
     SCC iter.                  ...        0 min,  9.896 sec
     gradient                   ...        0 min,  3.019 sec
------------------------------------------------------------------------
empirical IP shift (eV):    4.8455
delta SCC IP (eV):    5.5134
------------------------------------------------------------------------
           ------------------------------------------------- 
          |        vertical delta SCC EA calculation        |
           ------------------------------------------------- 
   1   -485.5004974 -0.485500E+03  0.144E-01    0.32       0.0  T
   2   -485.5126500 -0.121526E-01  0.135E-01    0.14       1.0  T
   3   -485.5227676 -0.101176E-01  0.770E-02    0.22       1.0  T
   4   -485.5206160  0.215158E-02  0.731E-02    0.21       1.0  T
   5   -485.5231991 -0.258311E-02  0.527E-02    0.20       1.0  T
   6   -485.5253160 -0.211686E-02  0.280E-02    0.19       1.0  T
   7   -485.5259333 -0.617376E-03  0.103E-02    0.19       1.0  T
   8   -485.5260068 -0.734476E-04  0.419E-03    0.19       1.5  T
   9   -485.5260131 -0.633170E-05  0.191E-03    0.19       3.3  T
  10   -485.5260142 -0.104544E-05  0.930E-04    0.19       6.9  T
  11   -485.5260144 -0.268290E-06  0.440E-04    0.19      14.6  T
  12   -485.5260145 -0.717465E-07  0.232E-04    0.19      27.6  T
  13   -485.5260145 -0.210680E-07  0.967E-05    0.19      66.2  T
  14   -485.5260145 -0.410267E-08  0.334E-05    0.19     191.5  T
     SCC iter.                  ...        0 min, 10.447 sec
     gradient                   ...        0 min,  3.010 sec
------------------------------------------------------------------------
empirical EA shift (eV):    4.8455
delta SCC EA (eV):    2.9217
------------------------------------------------------------------------
           -------------------------------------------------
          |                Property Printout                |
           -------------------------------------------------

    * Orbital Energies and Occupations

         #    Occupation            Energy/Eh            Energy/eV
      -------------------------------------------------------------
         1        2.0000           -0.9858048             -26.8251
       ...           ...                  ...                  ...
       378        2.0000           -0.3218966              -8.7593
       379        2.0000           -0.3217823              -8.7561
       380        2.0000           -0.3177583              -8.6466
       381        2.0000           -0.3173152              -8.6346
       382        2.0000           -0.3156583              -8.5895
       383        2.0000           -0.3151993              -8.5770
       384        2.0000           -0.3151665              -8.5761
       385        2.0000           -0.3151049              -8.5744
       386        2.0000           -0.3149004              -8.5689
       387        2.0000           -0.3145084              -8.5582
       388        2.0000           -0.3142852              -8.5521
       389        2.0000           -0.3044856              -8.2855
       390        0.9756           -0.2593299              -7.0567 (HOMO)
       391        0.0243           -0.2523201              -6.8660 (LUMO)
       392        0.0001           -0.2464262              -6.7056
       393        0.0000           -0.2454243              -6.6783
       394        0.0000           -0.2408813              -6.5547
       395                         -0.2385869              -6.4923
       396                         -0.2380985              -6.4790
       397                         -0.2291910              -6.2366
       398                         -0.2059746              -5.6049
       399                         -0.2053421              -5.5876
       400                         -0.2020098              -5.4970
       401                         -0.2007637              -5.4631
       ...                                ...                  ...
       990                        555.0900796           15104.7699
      -------------------------------------------------------------
                  HL-Gap            0.0070098 Eh            0.1907 eV
             Fermi-level           -0.2688673 Eh           -7.3163 eV

  Mulliken/CM5 charges         n(s)   n(p)   n(d)
     1Ni    0.26376  0.64052   0.575  0.791  8.371
     2C    -0.02730 -0.06856   1.079  2.948  0.000
     3C     0.05695  0.11750   1.111  2.832  0.000
     4C    -0.04149 -0.08796   1.084  2.958  0.000
     5C    -0.03652 -0.08268   1.081  2.956  0.000
     6C     0.05731  0.12122   1.104  2.838  0.000
     7N    -0.21250 -0.46539   1.315  3.897  0.000
     8C     0.00886  0.01420   1.086  2.905  0.000
     9C    -0.00590 -0.01462   1.072  2.934  0.000
    10C    -0.02489 -0.07795   1.080  2.945  0.000
    11C    -0.04089 -0.08942   1.067  2.974  0.000
    12C     0.05728  0.10767   1.102  2.841  0.000
    13N    -0.30824 -0.76234   1.331  3.977  0.000
    14C    -0.04189 -0.09042   1.066  2.975  0.000
    15C    -0.02607 -0.07917   1.079  2.947  0.000
    16C     0.05705  0.12034   1.102  2.841  0.000
    17C    -0.03581 -0.08196   1.075  2.961  0.000
    18C    -0.03525 -0.08115   1.078  2.957  0.000
    19N    -0.20854 -0.46155   1.317  3.892  0.000
    20C     0.06186  0.12674   1.115  2.823  0.000
    21C     0.01541  0.02233   1.079  2.906  0.000
    22C     0.06186  0.12678   1.115  2.823  0.000
    23C    -0.03534 -0.08118   1.078  2.957  0.000
    24C    -0.03586 -0.08201   1.075  2.960  0.000
    25C     0.05697  0.12021   1.102  2.841  0.000
    26N    -0.20856 -0.46145   1.316  3.892  0.000
    27C     0.00883  0.01417   1.086  2.905  0.000
    28C    -0.00595 -0.01467   1.072  2.934  0.000
    29C    -0.02485 -0.07792   1.079  2.946  0.000
    30C    -0.04095 -0.08947   1.067  2.974  0.000
    31C     0.05731  0.10777   1.102  2.841  0.000
    32N    -0.30817 -0.76234   1.331  3.977  0.000
    33C    -0.04196 -0.09048   1.066  2.976  0.000
    34C    -0.02611 -0.07921   1.079  2.947  0.000
    35C     0.05735  0.12128   1.104  2.839  0.000
    36C    -0.03654 -0.08270   1.080  2.956  0.000
    37C    -0.04150 -0.08797   1.084  2.958  0.000
    38C     0.05692  0.11741   1.111  2.832  0.000
    39N    -0.21245 -0.46555   1.315  3.897  0.000
    40H     0.01870  0.07763   0.981  0.000  0.000
    41H     0.02364  0.08024   0.976  0.000  0.000
    42H     0.01522  0.07409   0.985  0.000  0.000
    43H     0.01642  0.07444   0.984  0.000  0.000
    44H     0.02631  0.08530   0.974  0.000  0.000
    45H     0.16244  0.35336   0.838  0.000  0.000
    46H     0.16174  0.35271   0.838  0.000  0.000
    47H     0.02476  0.08374   0.975  0.000  0.000
    48H     0.01469  0.07270   0.985  0.000  0.000
    49H     0.01670  0.07562   0.983  0.000  0.000
    50H     0.01698  0.07547   0.983  0.000  0.000
    51H     0.01738  0.07577   0.983  0.000  0.000
    52H     0.01659  0.07550   0.983  0.000  0.000
    53H     0.01653  0.07457   0.983  0.000  0.000
    54H     0.02630  0.08529   0.974  0.000  0.000
    55H     0.16254  0.35348   0.837  0.000  0.000
    56H     0.16180  0.35274   0.838  0.000  0.000
    57H     0.02471  0.08370   0.975  0.000  0.000
    58H     0.01457  0.07260   0.985  0.000  0.000
    59H     0.01523  0.07413   0.985  0.000  0.000
    60H     0.02362  0.08022   0.976  0.000  0.000
    61Ni    0.26333  0.63324   0.574  0.790  8.372
    62C    -0.02688 -0.06821   1.079  2.947  0.000
    63C     0.05717  0.11772   1.111  2.832  0.000
    64C    -0.04130 -0.08781   1.084  2.957  0.000
    65C    -0.03648 -0.08261   1.080  2.956  0.000
    66C     0.05770  0.12165   1.104  2.838  0.000
    67N    -0.21237 -0.46378   1.315  3.897  0.000
    68C     0.00912  0.01440   1.086  2.905  0.000
    69C    -0.00586 -0.01466   1.072  2.934  0.000
    70C    -0.02509 -0.07821   1.079  2.946  0.000
    71C    -0.04096 -0.08949   1.067  2.974  0.000
    72C     0.05728  0.10767   1.102  2.841  0.000
    73N    -0.30830 -0.76240   1.331  3.977  0.000
    74C    -0.04175 -0.09028   1.067  2.975  0.000
    75C    -0.02606 -0.07915   1.079  2.947  0.000
    76C     0.05750  0.12082   1.102  2.840  0.000
    77C    -0.03560 -0.08174   1.076  2.960  0.000
    78C    -0.03510 -0.08088   1.079  2.956  0.000
    79N    -0.20876 -0.45975   1.317  3.892  0.000
    80C     0.06231  0.12728   1.115  2.823  0.000
    81C     0.01569  0.02252   1.078  2.906  0.000
    82C     0.06223  0.12721   1.115  2.823  0.000
    83C    -0.03522 -0.08099   1.079  2.956  0.000
    84C    -0.03570 -0.08184   1.076  2.959  0.000
    85C     0.05739  0.12068   1.102  2.840  0.000
    86N    -0.20884 -0.45983   1.317  3.892  0.000
    87C     0.00908  0.01436   1.086  2.905  0.000
    88C    -0.00592 -0.01472   1.072  2.934  0.000
    89C    -0.02506 -0.07819   1.079  2.946  0.000
    90C    -0.04095 -0.08948   1.067  2.974  0.000
    91C     0.05724  0.10763   1.102  2.841  0.000
    92N    -0.30832 -0.76238   1.331  3.977  0.000
    93C    -0.04181 -0.09034   1.067  2.975  0.000
    94C    -0.02616 -0.07926   1.079  2.947  0.000
    95C     0.05775  0.12172   1.104  2.838  0.000
    96C    -0.03645 -0.08258   1.080  2.956  0.000
    97C    -0.04128 -0.08779   1.084  2.957  0.000
    98C     0.05717  0.11769   1.111  2.832  0.000
    99N    -0.21235 -0.46383   1.315  3.897  0.000
   100H     0.01884  0.07782   0.981  0.000  0.000
   101H     0.02400  0.08061   0.976  0.000  0.000
   102H     0.01566  0.07460   0.984  0.000  0.000
   103H     0.01642  0.07434   0.984  0.000  0.000
   104H     0.02609  0.08508   0.974  0.000  0.000
   105H     0.16240  0.35335   0.838  0.000  0.000
   106H     0.16188  0.35282   0.838  0.000  0.000
   107H     0.02493  0.08392   0.975  0.000  0.000
   108H     0.01473  0.07269   0.985  0.000  0.000
   109H     0.01708  0.07612   0.983  0.000  0.000
   110H     0.01768  0.07614   0.982  0.000  0.000
   111H     0.01773  0.07609   0.982  0.000  0.000
   112H     0.01721  0.07624   0.983  0.000  0.000
   113H     0.01652  0.07446   0.983  0.000  0.000
   114H     0.02623  0.08522   0.974  0.000  0.000
   115H     0.16245  0.35337   0.838  0.000  0.000
   116H     0.16181  0.35274   0.838  0.000  0.000
   117H     0.02486  0.08385   0.975  0.000  0.000
   118H     0.01459  0.07255   0.985  0.000  0.000
   119H     0.01574  0.07469   0.984  0.000  0.000
   120H     0.02399  0.08061   0.976  0.000  0.000
   121C    -0.03189 -0.03415   1.068  2.964  0.000
   122C    -0.02756 -0.02982   1.073  2.954  0.000
   123C    -0.02931 -0.03162   1.071  2.959  0.000
   124C    -0.02951 -0.03187   1.071  2.959  0.000
   125C    -0.02658 -0.02901   1.073  2.953  0.000
   126C    -0.03118 -0.03363   1.067  2.964  0.000
   127Ni    0.26258  0.64150   0.575  0.792  8.371
   128C     0.01040  0.01735   1.074  2.915  0.000
   129C     0.06137  0.12637   1.115  2.824  0.000
   130C    -0.03798 -0.08385   1.077  2.961  0.000
   131C    -0.03634 -0.08233   1.076  2.960  0.000
   132C     0.05548  0.11875   1.100  2.845  0.000
   133N    -0.20958 -0.46293   1.316  3.894  0.000
   134C     0.01204  0.01739   1.088  2.900  0.000
   135C    -0.00485 -0.01362   1.072  2.933  0.000
   136C    -0.02576 -0.07891   1.079  2.947  0.000
   137C    -0.04150 -0.09003   1.067  2.975  0.000
   138C     0.05659  0.10689   1.101  2.842  0.000
   139N    -0.30919 -0.76307   1.331  3.978  0.000
   140C    -0.04125 -0.08977   1.067  2.974  0.000
   141C    -0.02562 -0.07869   1.079  2.947  0.000
   142C     0.05581  0.11903   1.100  2.844  0.000
   143C    -0.03571 -0.08170   1.077  2.959  0.000
   144C    -0.03662 -0.08247   1.078  2.959  0.000
   145N    -0.20907 -0.46252   1.316  3.893  0.000
   146C     0.06184  0.12691   1.115  2.823  0.000
   147C     0.01254  0.01948   1.076  2.912  0.000
   148C     0.06172  0.12670   1.115  2.823  0.000
   149C    -0.03681 -0.08263   1.077  2.960  0.000
   150C    -0.03572 -0.08191   1.077  2.959  0.000
   151C     0.05569  0.11891   1.101  2.844  0.000
   152N    -0.20909 -0.46251   1.315  3.894  0.000
   153C     0.01107  0.01639   1.088  2.901  0.000
   154C    -0.00519 -0.01387   1.072  2.934  0.000
   155C    -0.02495 -0.07806   1.079  2.946  0.000
   156C    -0.04151 -0.09004   1.066  2.975  0.000
   157C     0.05727  0.10771   1.102  2.841  0.000
   158N    -0.30817 -0.76234   1.331  3.977  0.000
   159C    -0.04104 -0.08956   1.066  2.975  0.000
   160C    -0.02458 -0.07766   1.079  2.945  0.000
   161C     0.05523  0.11843   1.100  2.844  0.000
   162C    -0.03629 -0.08248   1.076  2.960  0.000
   163C    -0.03818 -0.08400   1.076  2.962  0.000
   164C     0.06132  0.12633   1.115  2.824  0.000
   165N    -0.20968 -0.46307   1.315  3.894  0.000
   166H     0.01446  0.07296   0.986  0.000  0.000
   167H     0.01602  0.07500   0.984  0.000  0.000
   168H     0.01463  0.07230   0.985  0.000  0.000
   169H     0.02427  0.08326   0.976  0.000  0.000
   170H     0.16044  0.35133   0.840  0.000  0.000
   171H     0.16060  0.35146   0.839  0.000  0.000
   172H     0.02488  0.08387   0.975  0.000  0.000
   173H     0.01498  0.07269   0.985  0.000  0.000
   174H     0.01664  0.07559   0.983  0.000  0.000
   175H     0.01588  0.07435   0.984  0.000  0.000
   176H     0.01537  0.07373   0.985  0.000  0.000
   177H     0.01473  0.07362   0.985  0.000  0.000
   178H     0.01527  0.07338   0.985  0.000  0.000
   179H     0.02462  0.08361   0.975  0.000  0.000
   180H     0.16151  0.35248   0.838  0.000  0.000
   181H     0.16115  0.35210   0.839  0.000  0.000
   182H     0.02573  0.08472   0.974  0.000  0.000
   183H     0.01626  0.07435   0.984  0.000  0.000
   184H     0.01435  0.07325   0.986  0.000  0.000
   185H     0.01412  0.07250   0.986  0.000  0.000
   186Ni    0.26155  0.63271   0.574  0.791  8.373
   187C     0.01294  0.01980   1.076  2.911  0.000
   188C     0.06192  0.12693   1.115  2.823  0.000
   189C    -0.03649 -0.08236   1.078  2.958  0.000
   190C    -0.03575 -0.08181   1.076  2.960  0.000
   191C     0.05617  0.11945   1.100  2.844  0.000
   192N    -0.20931 -0.46059   1.316  3.893  0.000
   193C     0.01177  0.01703   1.088  2.900  0.000
   194C    -0.00491 -0.01376   1.072  2.933  0.000
   195C    -0.02552 -0.07871   1.078  2.947  0.000
   196C    -0.04126 -0.08980   1.066  2.975  0.000
   197C     0.05662  0.10689   1.101  2.842  0.000
   198N    -0.30909 -0.76301   1.331  3.978  0.000
   199C    -0.04142 -0.08995   1.067  2.974  0.000
   200C    -0.02572 -0.07880   1.079  2.946  0.000
   201C     0.05573  0.11904   1.100  2.844  0.000
   202C    -0.03632 -0.08232   1.077  2.959  0.000
   203C    -0.03828 -0.08402   1.078  2.960  0.000
   204N    -0.20996 -0.46129   1.316  3.894  0.000
   205C     0.06153  0.12661   1.115  2.824  0.000
   206C     0.01042  0.01728   1.073  2.916  0.000
   207C     0.06154  0.12656   1.115  2.824  0.000
   208C    -0.03822 -0.08400   1.077  2.961  0.000
   209C    -0.03623 -0.08239   1.077  2.959  0.000
   210C     0.05558  0.11888   1.100  2.844  0.000
   211N    -0.20990 -0.46138   1.315  3.894  0.000
   212C     0.01112  0.01638   1.087  2.902  0.000
   213C    -0.00509 -0.01387   1.072  2.933  0.000
   214C    -0.02462 -0.07775   1.079  2.946  0.000
   215C    -0.04098 -0.08952   1.066  2.975  0.000
   216C     0.05718  0.10757   1.101  2.841  0.000
   217N    -0.30832 -0.76242   1.331  3.977  0.000
   218C    -0.04149 -0.09002   1.066  2.975  0.000
   219C    -0.02509 -0.07821   1.079  2.946  0.000
   220C     0.05595  0.11917   1.101  2.844  0.000
   221C    -0.03570 -0.08190   1.077  2.959  0.000
   222C    -0.03665 -0.08248   1.077  2.959  0.000
   223C     0.06204  0.12709   1.115  2.823  0.000
   224N    -0.20921 -0.46075   1.316  3.893  0.000
   225H     0.01599  0.07453   0.984  0.000  0.000
   226H     0.01670  0.07580   0.983  0.000  0.000
   227H     0.01523  0.07294   0.985  0.000  0.000
   228H     0.02491  0.08389   0.975  0.000  0.000
   229H     0.16058  0.35152   0.839  0.000  0.000
   230H     0.16057  0.35147   0.839  0.000  0.000
   231H     0.02439  0.08338   0.976  0.000  0.000
   232H     0.01457  0.07230   0.985  0.000  0.000
   233H     0.01589  0.07492   0.984  0.000  0.000
   234H     0.01470  0.07310   0.985  0.000  0.000
   235H     0.01409  0.07247   0.986  0.000  0.000
   236H     0.01455  0.07354   0.985  0.000  0.000
   237H     0.01620  0.07424   0.984  0.000  0.000
   238H     0.02573  0.08472   0.974  0.000  0.000
   239H     0.16101  0.35196   0.839  0.000  0.000
   240H     0.16140  0.35235   0.839  0.000  0.000
   241H     0.02443  0.08342   0.976  0.000  0.000
   242H     0.01525  0.07326   0.985  0.000  0.000
   243H     0.01505  0.07405   0.985  0.000  0.000
   244H     0.01576  0.07424   0.984  0.000  0.000

Wiberg/Mayer (AO) data.
largest (>0.10) Wiberg bond orders for each atom

 ---------------------------------------------------------------------------
     #   Z sym  total        # sym  WBO       # sym  WBO       # sym  WBO
 ---------------------------------------------------------------------------
     1  28 Ni   3.350 --    19 N    0.718    26 N    0.717    39 N    0.717
                             7 N    0.716
     2   6 C    3.801 --    38 C    1.389     3 C    1.388    40 H    0.997
     3   6 C    3.946 --     2 C    1.388     7 N    1.254     4 C    1.204
     4   6 C    3.843 --     5 C    1.636     3 C    1.204    41 H    0.994
     5   6 C    3.833 --     4 C    1.636     6 C    1.212    42 H    1.000
     6   6 C    3.915 --     8 C    1.368     7 N    1.246     5 C    1.212
     7   7 N    3.005 --     3 C    1.254     6 C    1.246     1 Ni   0.716
     8   6 C    3.833 --     6 C    1.368    16 C    1.361     9 C    1.055
     9   6 C    3.875 --    15 C    1.409    10 C    1.409     8 C    1.055
    10   6 C    3.873 --    11 C    1.466     9 C    1.409    43 H    0.990
    11   6 C    3.872 --    10 C    1.466    12 C    1.376    44 H    0.989
    12   6 C    3.972 --    14 C    1.377    11 C    1.376    13 N    1.147
    13   7 N    3.059 --    12 C    1.147    46 H    0.972    45 H    0.972
    14   6 C    3.871 --    15 C    1.465    12 C    1.377    47 H    0.990
    15   6 C    3.872 --    14 C    1.465     9 C    1.409    48 H    0.991
    16   6 C    3.902 --     8 C    1.361    19 N    1.242    17 C    1.223
    17   6 C    3.817 --    18 C    1.616    16 C    1.223    49 H    0.999
    18   6 C    3.817 --    17 C    1.616    20 C    1.233    50 H    0.998
    19   7 N    3.020 --    20 C    1.275    16 C    1.242     1 Ni   0.718
    20   6 C    3.918 --    21 C    1.299    19 N    1.275    18 C    1.233
    21   6 C    3.825 --    20 C    1.299    22 C    1.299   121 C    1.212
    22   6 C    3.920 --    21 C    1.299    26 N    1.276    23 C    1.233
    23   6 C    3.818 --    24 C    1.615    22 C    1.233    51 H    0.999
    24   6 C    3.818 --    23 C    1.615    25 C    1.224    52 H    0.999
    25   6 C    3.902 --    27 C    1.361    26 N    1.241    24 C    1.224
    26   7 N    3.020 --    22 C    1.276    25 C    1.241     1 Ni   0.717
    27   6 C    3.833 --    35 C    1.367    25 C    1.361    28 C    1.055
    28   6 C    3.875 --    34 C    1.409    29 C    1.409    27 C    1.055
    29   6 C    3.873 --    30 C    1.466    28 C    1.409    53 H    0.990
    30   6 C    3.871 --    29 C    1.466    31 C    1.376    54 H    0.989
    31   6 C    3.972 --    33 C    1.377    30 C    1.376    32 N    1.147
    32   7 N    3.059 --    31 C    1.147    56 H    0.972    55 H    0.971
    33   6 C    3.871 --    34 C    1.465    31 C    1.377    57 H    0.990
    34   6 C    3.873 --    33 C    1.465    28 C    1.409    58 H    0.991
    35   6 C    3.915 --    27 C    1.367    39 N    1.247    36 C    1.212
    36   6 C    3.833 --    37 C    1.636    35 C    1.212    59 H    1.000
    37   6 C    3.843 --    36 C    1.636    38 C    1.204    60 H    0.994
    38   6 C    3.946 --     2 C    1.389    39 N    1.253    37 C    1.204
    39   7 N    3.005 --    38 C    1.253    35 C    1.247     1 Ni   0.717
    40   1 H    1.040 --     2 C    0.997
    41   1 H    1.028 --     4 C    0.994
    42   1 H    1.049 --     5 C    1.000
    43   1 H    1.057 --    10 C    0.990
    44   1 H    1.024 --    11 C    0.989
    45   1 H    1.029 --    13 N    0.972
    46   1 H    1.029 --    13 N    0.972
    47   1 H    1.023 --    14 C    0.990
    48   1 H    1.057 --    15 C    0.991
    49   1 H    1.047 --    17 C    0.999
    50   1 H    1.050 --    18 C    0.998
    51   1 H    1.047 --    23 C    0.999
    52   1 H    1.047 --    24 C    0.999
    53   1 H    1.057 --    29 C    0.990
    54   1 H    1.024 --    30 C    0.989
    55   1 H    1.029 --    32 N    0.971
    56   1 H    1.029 --    32 N    0.972
    57   1 H    1.023 --    33 C    0.990
    58   1 H    1.057 --    34 C    0.991
    59   1 H    1.049 --    36 C    1.000
    60   1 H    1.029 --    37 C    0.994
    61  28 Ni   3.334 --    86 N    0.716    79 N    0.716    99 N    0.715
                            67 N    0.715
    62   6 C    3.801 --    98 C    1.389    63 C    1.389   100 H    0.997
    63   6 C    3.946 --    62 C    1.389    67 N    1.254    64 C    1.204
    64   6 C    3.843 --    65 C    1.636    63 C    1.204   101 H    0.994
    65   6 C    3.833 --    64 C    1.636    66 C    1.212   102 H    1.000
    66   6 C    3.914 --    68 C    1.368    67 N    1.248    65 C    1.212
    67   7 N    3.006 --    63 C    1.254    66 C    1.248    61 Ni   0.715
    68   6 C    3.834 --    66 C    1.368    76 C    1.364    69 C    1.052
    69   6 C    3.875 --    70 C    1.411    75 C    1.410    68 C    1.052
    70   6 C    3.873 --    71 C    1.465    69 C    1.411   103 H    0.990
    71   6 C    3.871 --    70 C    1.465    72 C    1.377   104 H    0.989
    72   6 C    3.973 --    74 C    1.377    71 C    1.377    73 N    1.147
    73   7 N    3.059 --    72 C    1.147   106 H    0.972   105 H    0.972
    74   6 C    3.871 --    75 C    1.464    72 C    1.377   107 H    0.990
    75   6 C    3.873 --    74 C    1.464    69 C    1.410   108 H    0.990
    76   6 C    3.901 --    68 C    1.364    79 N    1.242    77 C    1.222
    77   6 C    3.819 --    78 C    1.618    76 C    1.222   109 H    0.998
    78   6 C    3.820 --    77 C    1.618    80 C    1.230   110 H    0.999
    79   7 N    3.021 --    80 C    1.276    76 C    1.242    61 Ni   0.716
    80   6 C    3.922 --    81 C    1.304    79 N    1.276    78 C    1.230
    81   6 C    3.825 --    80 C    1.304    82 C    1.303   126 C    1.203
    82   6 C    3.923 --    81 C    1.303    86 N    1.276    83 C    1.231
    83   6 C    3.822 --    84 C    1.618    82 C    1.231   111 H    0.999
    84   6 C    3.821 --    83 C    1.618    85 C    1.222   112 H    0.998
    85   6 C    3.902 --    87 C    1.364    86 N    1.242    84 C    1.222
    86   7 N    3.022 --    82 C    1.276    85 C    1.242    61 Ni   0.716
    87   6 C    3.834 --    95 C    1.367    85 C    1.364    88 C    1.052
    88   6 C    3.875 --    89 C    1.411    94 C    1.410    87 C    1.052
    89   6 C    3.873 --    90 C    1.465    88 C    1.411   113 H    0.990
    90   6 C    3.871 --    89 C    1.465    91 C    1.377   114 H    0.989
    91   6 C    3.973 --    93 C    1.377    90 C    1.377    92 N    1.147
    92   7 N    3.059 --    91 C    1.147   116 H    0.972   115 H    0.972
    93   6 C    3.871 --    94 C    1.464    91 C    1.377   117 H    0.990
    94   6 C    3.873 --    93 C    1.464    88 C    1.410   118 H    0.990
    95   6 C    3.914 --    87 C    1.367    99 N    1.248    96 C    1.212
    96   6 C    3.833 --    97 C    1.636    95 C    1.212   119 H    1.000
    97   6 C    3.843 --    96 C    1.636    98 C    1.204   120 H    0.994
    98   6 C    3.946 --    62 C    1.389    99 N    1.254    97 C    1.204
    99   7 N    3.006 --    98 C    1.254    95 C    1.248    61 Ni   0.715
   100   1 H    1.041 --    62 C    0.997
   101   1 H    1.028 --    64 C    0.994
   102   1 H    1.051 --    65 C    1.000
   103   1 H    1.058 --    70 C    0.990
   104   1 H    1.024 --    71 C    0.989
   105   1 H    1.029 --    73 N    0.972
   106   1 H    1.029 --    73 N    0.972
   107   1 H    1.024 --    74 C    0.990
   108   1 H    1.057 --    75 C    0.990
   109   1 H    1.049 --    77 C    0.998
   110   1 H    1.048 --    78 C    0.999
   111   1 H    1.048 --    83 C    0.999
   112   1 H    1.049 --    84 C    0.998
   113   1 H    1.057 --    89 C    0.990
   114   1 H    1.024 --    90 C    0.989
   115   1 H    1.029 --    92 N    0.972
   116   1 H    1.029 --    92 N    0.972
   117   1 H    1.024 --    93 C    0.990
   118   1 H    1.057 --    94 C    0.990
   119   1 H    1.051 --    96 C    1.000
   120   1 H    1.028 --    97 C    0.994
   121   6 C    3.765 --   122 C    2.616    21 C    1.212
   122   6 C    3.768 --   121 C    2.616   128 C    1.213
   123   6 C    3.765 --   124 C    2.614   147 C    1.214
   124   6 C    3.765 --   123 C    2.614   187 C    1.213
   125   6 C    3.766 --   126 C    2.623   206 C    1.204
   126   6 C    3.763 --   125 C    2.623    81 C    1.203
   127  28 Ni   3.340 --   145 N    0.718   133 N    0.716   152 N    0.716
                           165 N    0.715
   128   6 C    3.813 --   129 C    1.296   164 C    1.295   122 C    1.213
   129   6 C    3.920 --   128 C    1.296   133 N    1.280   130 C    1.232
   130   6 C    3.815 --   131 C    1.617   129 C    1.232   166 H    0.999
   131   6 C    3.818 --   130 C    1.617   132 C    1.224   167 H    1.000
   132   6 C    3.899 --   134 C    1.369   133 N    1.235   131 C    1.224
   133   7 N    3.007 --   129 C    1.280   132 C    1.235   127 Ni   0.716
   134   6 C    3.829 --   142 C    1.370   132 C    1.369   135 C    1.043
   135   6 C    3.875 --   136 C    1.416   141 C    1.415   134 C    1.043
   136   6 C    3.874 --   137 C    1.461   135 C    1.416   168 H    0.991
   137   6 C    3.871 --   136 C    1.461   138 C    1.379   169 H    0.990
   138   6 C    3.973 --   137 C    1.379   140 C    1.379   139 N    1.143
   139   7 N    3.057 --   138 C    1.143   170 H    0.973   171 H    0.973
   140   6 C    3.871 --   141 C    1.462   138 C    1.379   172 H    0.990
   141   6 C    3.875 --   140 C    1.462   135 C    1.415   173 H    0.990
   142   6 C    3.900 --   134 C    1.370   145 N    1.235   143 C    1.223
   143   6 C    3.820 --   144 C    1.618   142 C    1.223   174 H    1.000
   144   6 C    3.817 --   143 C    1.618   146 C    1.232   175 H    0.999
   145   7 N    3.009 --   146 C    1.280   142 C    1.235   127 Ni   0.718
   146   6 C    3.922 --   147 C    1.296   145 N    1.280   144 C    1.232
   147   6 C    3.814 --   146 C    1.296   148 C    1.295   123 C    1.214
   148   6 C    3.922 --   147 C    1.295   152 N    1.279   149 C    1.234
   149   6 C    3.813 --   150 C    1.614   148 C    1.234   176 H    0.999
   150   6 C    3.821 --   149 C    1.614   151 C    1.225   177 H    0.999
   151   6 C    3.900 --   153 C    1.363   152 N    1.238   150 C    1.225
   152   7 N    3.007 --   148 C    1.279   151 C    1.238   127 Ni   0.716
   153   6 C    3.829 --   161 C    1.365   151 C    1.363   154 C    1.059
   154   6 C    3.875 --   155 C    1.409   160 C    1.408   153 C    1.059
   155   6 C    3.870 --   156 C    1.466   154 C    1.409   178 H    0.991
   156   6 C    3.871 --   155 C    1.466   157 C    1.376   179 H    0.990
   157   6 C    3.971 --   159 C    1.377   156 C    1.376   158 N    1.146
   158   7 N    3.058 --   157 C    1.146   181 H    0.972   180 H    0.972
   159   6 C    3.870 --   160 C    1.466   157 C    1.377   182 H    0.989
   160   6 C    3.870 --   159 C    1.466   154 C    1.408   183 H    0.990
   161   6 C    3.900 --   153 C    1.365   165 N    1.236   162 C    1.225
   162   6 C    3.820 --   163 C    1.614   161 C    1.225   184 H    0.999
   163   6 C    3.812 --   162 C    1.614   164 C    1.234   185 H    0.999
   164   6 C    3.922 --   128 C    1.295   165 N    1.279   163 C    1.234
   165   7 N    3.005 --   164 C    1.279   161 C    1.236   127 Ni   0.715
   166   1 H    1.047 --   130 C    0.999
   167   1 H    1.047 --   131 C    1.000
   168   1 H    1.057 --   136 C    0.991
   169   1 H    1.024 --   137 C    0.990
   170   1 H    1.031 --   139 N    0.973
   171   1 H    1.031 --   139 N    0.973
   172   1 H    1.024 --   140 C    0.990
   173   1 H    1.057 --   141 C    0.990
   174   1 H    1.048 --   143 C    1.000
   175   1 H    1.048 --   144 C    0.999
   176   1 H    1.048 --   149 C    0.999
   177   1 H    1.049 --   150 C    0.999
   178   1 H    1.057 --   155 C    0.991
   179   1 H    1.024 --   156 C    0.990
   180   1 H    1.030 --   158 N    0.972
   181   1 H    1.030 --   158 N    0.972
   182   1 H    1.023 --   159 C    0.989
   183   1 H    1.057 --   160 C    0.990
   184   1 H    1.048 --   162 C    0.999
   185   1 H    1.046 --   163 C    0.999
   186  28 Ni   3.322 --   192 N    0.716   224 N    0.714   204 N    0.714
                           211 N    0.713
   187   6 C    3.815 --   188 C    1.298   223 C    1.296   124 C    1.213
   188   6 C    3.922 --   187 C    1.298   192 N    1.280   189 C    1.232
   189   6 C    3.816 --   190 C    1.618   188 C    1.232   225 H    0.999
   190   6 C    3.819 --   189 C    1.618   191 C    1.223   226 H    1.000
   191   6 C    3.900 --   193 C    1.368   192 N    1.238   190 C    1.223
   192   7 N    3.010 --   188 C    1.280   191 C    1.238   186 Ni   0.716
   193   6 C    3.829 --   201 C    1.371   191 C    1.368   194 C    1.044
   194   6 C    3.875 --   195 C    1.416   200 C    1.415   193 C    1.044
   195   6 C    3.873 --   196 C    1.462   194 C    1.416   227 H    0.990
   196   6 C    3.870 --   195 C    1.462   197 C    1.379   228 H    0.990
   197   6 C    3.973 --   196 C    1.379   199 C    1.379   198 N    1.144
   198   7 N    3.057 --   197 C    1.144   229 H    0.973   230 H    0.973
   199   6 C    3.872 --   200 C    1.462   197 C    1.379   231 H    0.990
   200   6 C    3.875 --   199 C    1.462   194 C    1.415   232 H    0.991
   201   6 C    3.899 --   193 C    1.371   204 N    1.237   202 C    1.222
   202   6 C    3.822 --   203 C    1.619   201 C    1.222   233 H    1.000
   203   6 C    3.819 --   202 C    1.619   205 C    1.230   234 H    0.999
   204   7 N    3.007 --   205 C    1.280   201 C    1.237   186 Ni   0.714
   205   6 C    3.925 --   206 C    1.301   204 N    1.280   203 C    1.230
   206   6 C    3.813 --   205 C    1.301   207 C    1.299   125 C    1.204
   207   6 C    3.924 --   206 C    1.299   211 N    1.279   208 C    1.231
   208   6 C    3.815 --   209 C    1.616   207 C    1.231   235 H    0.999
   209   6 C    3.821 --   208 C    1.616   210 C    1.224   236 H    0.999
   210   6 C    3.900 --   212 C    1.366   211 N    1.238   209 C    1.224
   211   7 N    3.006 --   207 C    1.279   210 C    1.238   186 Ni   0.713
   212   6 C    3.829 --   210 C    1.366   220 C    1.365   213 C    1.055
   213   6 C    3.875 --   219 C    1.410   214 C    1.409   212 C    1.055
   214   6 C    3.872 --   215 C    1.465   213 C    1.409   237 H    0.990
   215   6 C    3.870 --   214 C    1.465   216 C    1.377   238 H    0.990
   216   6 C    3.972 --   215 C    1.377   218 C    1.377   217 N    1.146
   217   7 N    3.058 --   216 C    1.146   239 H    0.972   240 H    0.972
   218   6 C    3.871 --   219 C    1.465   216 C    1.377   241 H    0.990
   219   6 C    3.873 --   218 C    1.465   213 C    1.410   242 H    0.991
   220   6 C    3.899 --   212 C    1.365   224 N    1.238   221 C    1.224
   221   6 C    3.821 --   222 C    1.615   220 C    1.224   243 H    0.999
   222   6 C    3.815 --   221 C    1.615   223 C    1.233   244 H    0.999
   223   6 C    3.922 --   187 C    1.296   224 N    1.281   222 C    1.233
   224   7 N    3.008 --   223 C    1.281   220 C    1.238   186 Ni   0.714
   225   1 H    1.048 --   189 C    0.999
   226   1 H    1.048 --   190 C    1.000
   227   1 H    1.057 --   195 C    0.990
   228   1 H    1.024 --   196 C    0.990
   229   1 H    1.031 --   198 N    0.973
   230   1 H    1.031 --   198 N    0.973
   231   1 H    1.025 --   199 C    0.990
   232   1 H    1.058 --   200 C    0.991
   233   1 H    1.047 --   202 C    1.000
   234   1 H    1.045 --   203 C    0.999
   235   1 H    1.048 --   208 C    0.999
   236   1 H    1.051 --   209 C    0.999
   237   1 H    1.057 --   214 C    0.990
   238   1 H    1.023 --   215 C    0.990
   239   1 H    1.030 --   217 N    0.972
   240   1 H    1.030 --   217 N    0.972
   241   1 H    1.025 --   218 C    0.990
   242   1 H    1.057 --   219 C    0.991
   243   1 H    1.052 --   221 C    0.999
   244   1 H    1.048 --   222 C    0.999
 ---------------------------------------------------------------------------

Topologies differ in total number of bonds
Writing topology from bond orders to xtbtopo.mol

 dipole moment from electron density (au)
     X       Y       Z   
-127.6428  -0.0939   0.0913  total (Debye):  324.436


           -------------------------------------------------
          | TOTAL ENERGY             -476.272399381510 Eh   |
          | GRADIENT NORM               0.085483804722 Eh/α |
          | HOMO-LUMO GAP               0.190746354504 eV   |
           -------------------------------------------------
########################################################################
[WARNING] Runtime exception occurred
-1- restart_readRestart: Dimension missmatch in restart file.
########################################################################

------------------------------------------------------------------------
 * finished run on 2022/07/30 at 04:09:18.036     
------------------------------------------------------------------------
 total:
 * wall-time:     0 d,  0 h,  0 min, 45.341 sec
 *  cpu-time:     0 d,  0 h,  0 min, 44.990 sec
 * ratio c/w:     0.992 speedup
 SCF:
 * wall-time:     0 d,  0 h,  0 min, 43.987 sec
 *  cpu-time:     0 d,  0 h,  0 min, 43.656 sec
 * ratio c/w:     0.992 speedup

