244
 energy: -419.696854330517 gnorm: 1.819076036328 xtb: 6.5.1 (b24c23e)
Ni          51.40019600000000       -0.03827500000000        0.04264600000000
C           48.05860200000000        0.10501300000000        0.03314400000000
C           48.72087100000000        1.14408600000000       -0.48364600000000
C           48.07032199999999        2.29194200000000       -1.10383100000000
C           49.01053700000000        3.14042800000000       -1.47627500000000
C           50.31545999999999        2.57956300000000       -1.09940800000000
N           50.13830700000000        1.30605800000000       -0.47764600000000
C           51.50758200000000        3.18167800000000       -1.29204600000000
C           51.55730600000000        4.52721000000000       -1.90876700000000
C           52.11424600000000        4.69518900000000       -3.18544900000000
C           52.17750400000000        5.96619400000000       -3.76410600000000
C           51.68849599999999        7.08273300000000       -3.07117600000000
N           51.75340600000000        8.38255000000000       -3.66368500000000
C           51.13744700000000        6.91682700000000       -1.79262200000000
C           51.07453200000000        5.64647600000000       -1.21260700000000
C           52.79877000000000        2.55654900000000       -0.90197800000000
C           54.08222600000000        3.26919000000000       -0.89580800000000
C           55.01673899999999        2.41382000000000       -0.53392100000000
N           52.94143300000000        1.31466000000000       -0.55306000000000
C           54.33662500000000        1.14542800000000       -0.30239200000000
C           54.93082299999999       -0.01270700000000        0.02801500000000
C           54.16723999999999       -1.25871800000000        0.26081900000000
C           54.69776100000000       -2.47490300000000        0.24096800000000
C           53.65486499999999       -3.40650300000000        0.62471200000000
C           52.55723200000000       -2.69642400000000        0.85848100000000
N           52.79107800000000       -1.30458100000000        0.63805500000000
C           51.27861800000000       -3.26744700000000        1.35399100000000
C           51.30143799999999       -4.60543400000000        1.99390100000000
C           52.04039000000000       -4.80939900000000        3.16943100000000
C           52.08136600000000       -6.07305400000000        3.76589200000000
C           51.38918300000000       -7.14812400000000        3.19095200000000
N           51.43158100000000       -8.44048000000000        3.80155900000000
C           50.65772399999999       -6.94856300000000        2.01174500000000
C           50.61667100000000       -5.68561200000000        1.41393300000000
C           50.11656099999999       -2.59633700000000        1.23790200000000
C           48.80922900000000       -3.03897200000000        1.71984700000000
C           47.94756700000000       -2.11238700000000        1.34714000000000
C           48.69602500000000       -1.07355800000000        0.64149500000000
N           49.96088500000000       -1.34501700000000        0.57171000000000
H           46.97523900000000        0.12297600000000        0.00968500000000
H           47.00701099999999        2.43548400000000       -1.24708000000000
H           48.82273700000000        4.08229600000000       -1.97486900000000
H           52.49730700000000        3.84157000000000       -3.73124200000000
H           52.60785200000000        6.08111700000000       -4.75096600000000
H           52.16273500000000        8.51649500000000       -4.61519600000000
H           51.39241499999999        9.22045300000000       -3.15527700000000
H           50.75925299999999        7.77126200000000       -1.24562400000000
H           50.65185499999999        5.53351400000000       -0.22173900000000
H           54.25314400000000        4.30958900000000       -1.13925700000000
H           56.07051400000000        2.63906800000000       -0.43778100000000
H           55.72344300000000       -2.73015100000000        0.01056000000000
H           53.76361199999999       -4.47847900000000        0.72687900000000
H           52.58137200000000       -3.98863800000000        3.62442100000000
H           52.65274599999999       -6.21460400000000        4.67463300000000
H           51.97457100000000       -8.59938900000000        4.67949600000000
H           50.92008100000000       -9.24781300000000        3.38031000000000
H           50.12265900000000       -7.77155500000000        1.55490400000000
H           50.05523400000000       -5.54904300000000        0.49776800000000
H           48.56739200000000       -3.93702200000000        2.27281100000000
H           46.88301400000000       -2.12863100000000        1.54053100000000
Ni          83.97377000000000        0.01361600000000        0.01478700000000
C           87.31536300000000       -0.07347400000000        0.12896700000000
C           86.65309499999999       -1.07833200000000        0.70949100000000
C           87.30364299999998       -2.22947400000000        1.32355500000000
C           86.36342800000000       -3.00871400000000        1.82497900000000
C           85.05850500000000       -2.38470600000000        1.56573000000000
N           85.23565899999998       -1.16282400000000        0.84780900000000
C           83.86638299999998       -2.87795200000000        1.96115200000000
C           83.81665999999998       -4.13542800000000        2.74189300000000
C           83.25971999999999       -5.29235000000000        2.17650300000000
C           83.19646200000000       -6.47692100000000        2.91615700000000
C           83.68546900000000       -6.51628400000000        4.22964900000000
N           83.62055900000000       -7.72832000000000        4.98566400000000
C           84.23651800000000       -5.35894700000000        4.79780100000000
C           84.29943299999998       -4.17360600000000        4.05944300000000
C           82.57519499999998       -2.20743200000000        1.65563300000000
C           81.29173900000001       -2.59604200000000        2.25302500000000
C           80.35722599999998       -1.82179700000000        1.74003000000000
N           82.43253300000001       -1.23043400000000        0.81331000000000
C           81.03733999999999       -0.92799900000000        0.81075700000000
C           80.44314199999999       -0.01270700000000        0.02801500000000
C           81.20672500000001        0.86978900000000       -0.88190000000000
C           80.67620399999998        1.52521600000000       -1.90655300000000
C           81.71910000000000        2.35979900000000       -2.47100900000000
C           82.81673400000000        2.16230700000000       -1.74999700000000
N           82.58288800000000        1.20955400000000       -0.71169400000000
C           84.09534699999999        2.89081800000000       -1.95216100000000
C           84.07252699999999        4.16345300000000       -2.71380000000000
C           83.33357499999998        5.25594800000000       -2.23429300000000
C           83.29259900000000        6.45129700000000       -2.95798400000000
C           83.98478199999998        6.56609100000000       -4.17171900000000
N           83.94238400000000        7.78909000000000       -4.91151500000000
C           84.71624199999999        5.47296500000000       -4.65692900000000
C           84.75729400000000        4.27687800000000       -3.93457100000000
C           85.25740500000001        2.42325200000000       -1.45693600000000
C           86.56473600000000        3.06951900000000       -1.55958300000000
C           87.42639800000001        2.24690700000000       -0.99320900000000
C           86.67794099999999        1.08477400000000       -0.51723600000000
N           85.41308100000001        1.17659700000000       -0.78205500000000
H           88.39872600000000       -0.10295300000000        0.13097800000000
H           88.36695400000001       -2.42818200000000        1.36404800000000
H           86.55122799999998       -3.94469700000000        2.33453600000000
H           82.87665800000001       -5.27562000000000        1.16345000000000
H           82.76611399999999       -7.36296300000000        2.46667900000000
H           83.21123000000000       -8.59540900000000        4.57157200000000
H           83.98155000000000       -7.76752800000000        5.96496100000000
H           84.61471200000000       -5.37512500000000        5.81220000000000
H           84.72211100000000       -3.28530600000000        4.51277000000000
H           81.12082099999999       -3.37380400000000        2.98568100000000
H           79.30345100000000       -1.86612000000000        1.98089300000000
H           79.65052300000001        1.47420400000000       -2.24660700000000
H           81.61035400000000        3.03724900000000       -3.30804600000000
H           82.79259399999998        5.18168800000000       -1.29879800000000
H           82.72122000000000        7.28693900000000       -2.57386200000000
H           83.39939500000000        8.60864800000000       -4.55888200000000
H           84.45388500000000        7.88405400000000       -5.81717500000000
H           85.25130600000000        5.54691500000000       -5.59530500000000
H           85.31873200000000        3.43780100000000       -4.32694600000000
H           86.80657300000000        4.02660800000000       -2.00257700000000
H           88.49095199999999        2.41707200000000       -0.89989500000000
C           56.75199499999999       -0.01270700000000        0.02801500000000
C           57.97391300000000       -0.01270700000000        0.02801500000000
C           67.07602400000000       -0.01270700000000        0.02801500000000
C           68.29794200000001       -0.01270700000000        0.02801500000000
C           77.40005300000000       -0.01270700000000        0.02801500000000
C           78.62197000000000       -0.01270700000000        0.02801500000000
Ni          62.56044500000000       -0.04273500000000        0.05193000000000
C           59.07625900000000        0.01356800000000       -0.02991400000000
C           59.73311899999999        1.12346400000000       -0.41386100000000
C           59.08839400000000        2.35555000000000       -0.87398000000000
C           60.02641800000000        3.25114700000000       -1.10848800000000
C           61.32926600000000        2.64335800000000       -0.81872100000000
N           61.15284800000000        1.29333700000000       -0.38121100000000
C           62.51330200000000        3.28571700000000       -0.90573200000000
C           62.53468000000000        4.70581200000000       -1.31984700000000
C           62.40100800000000        5.04910600000000       -2.67366900000000
C           62.41803400000000        6.39184800000000       -3.06279200000000
C           62.57162300000000        7.40323500000000       -2.10311800000000
N           62.58955000000000        8.77656200000000       -2.50190600000000
C           62.70727600000000        7.05914600000000       -0.75005200000000
C           62.68817200000000        5.71689000000000       -0.35967900000000
C           63.81679100000000        2.64190800000000       -0.60157400000000
C           65.09570500000000        3.36301200000000       -0.56712000000000
C           66.04719299999999        2.48626600000000       -0.32124100000000
N           63.98023400000000        1.37194300000000       -0.39311300000000
C           65.38448099999999        1.19378200000000       -0.20518100000000
C           65.99957200000000        0.01356800000000       -0.02991400000000
C           65.25421400000000       -1.26085900000000        0.06521700000000
C           65.80271500000001       -2.46049100000000       -0.08012800000000
C           64.77019199999999       -3.44099900000000        0.19005400000000
C           63.66029200000000       -2.77436100000000        0.48524200000000
N           63.87481600000000       -1.36467400000000        0.41727500000000
C           62.39507600000000       -3.41062800000000        0.92738100000000
C           62.44825899999999       -4.79864300000000        1.44714400000000
C           61.80329700000000       -5.84156500000000        0.76094100000000
C           61.86944600000000       -7.15068600000000        1.24722800000000
C           62.58509000000000       -7.43263000000000        2.42048200000000
N           62.64925500000000       -8.77127300000000        2.92010000000000
C           63.23832899999999       -6.39359300000000        3.10073400000000
C           63.17403800000000       -5.08447100000000        2.61412300000000
C           61.21912799999999       -2.75504600000000        0.88468800000000
C           59.93653299999999       -3.26889400000000        1.35431100000000
C           59.04826600000000       -2.33307100000000        1.09085000000000
C           59.75170200000000       -1.21269600000000        0.45612300000000
N           61.02145199999999       -1.45147800000000        0.33557800000000
H           58.02903200000000        2.53736100000000       -0.99786000000000
H           59.83702100000000        4.26179600000000       -1.44787700000000
H           62.28187200000000        4.27680600000000       -3.42419200000000
H           62.31208399999999        6.64400800000000       -4.11060500000000
H           62.49044300000000        9.04258800000000       -3.50700000000000
H           62.70704700000000        9.53677300000000       -1.79494400000000
H           62.82774999999999        7.83061900000000        0.00047800000000
H           62.79366499999999        5.46389500000000        0.68851500000000
H           65.25468100000001        4.42213200000000       -0.72052700000000
H           67.10225600000000        2.71107400000000       -0.24072400000000
H           66.83402700000001       -2.67660400000000       -0.32386300000000
H           64.89591100000000       -4.51616200000000        0.18844000000000
H           61.25212699999999       -5.63932700000000       -0.14987600000000
H           61.36483999999999       -7.94496700000000        0.70959200000000
H           63.17916600000000       -8.99139500000000        3.79327900000000
H           62.16389800000000       -9.55173600000000        2.42323400000000
H           63.79685499999999       -6.59815000000000        4.00680300000000
H           63.68466100000000       -4.29207900000000        3.14928400000000
H           59.72891400000000       -4.21647100000000        1.83420600000000
H           57.99382599999999       -2.40011800000000        1.32215200000000
Ni          72.88447300000000       -0.04273500000000        0.05193000000000
C           69.40028800000000        0.01356800000000       -0.02991400000000
C           70.05714800000000        1.12346400000000       -0.41386100000000
C           69.41242300000000        2.35555000000000       -0.87398000000000
C           70.35044600000001        3.25114700000000       -1.10848800000000
C           71.65329500000000        2.64335800000000       -0.81872100000000
N           71.47687700000000        1.29333700000000       -0.38121100000000
C           72.83732999999999        3.28571700000000       -0.90573200000000
C           72.85870900000000        4.70581200000000       -1.31984700000000
C           72.72503700000000        5.04910600000000       -2.67366900000000
C           72.74206300000000        6.39184800000000       -3.06279200000000
C           72.89565200000000        7.40323500000000       -2.10311800000000
N           72.91357800000000        8.77656200000000       -2.50190600000000
C           73.03130500000000        7.05914600000000       -0.75005200000000
C           73.01220000000001        5.71689000000000       -0.35967900000000
C           74.14082000000001        2.64190800000000       -0.60157400000000
C           75.41973400000001        3.36301200000000       -0.56712000000000
C           76.37122100000001        2.48626600000000       -0.32124100000000
N           74.30426199999999        1.37194300000000       -0.39311300000000
C           75.70851000000000        1.19378200000000       -0.20518100000000
C           76.32360099999998        0.01356800000000       -0.02991400000000
C           75.57824200000000       -1.26085900000000        0.06521700000000
C           76.12674400000000       -2.46049100000000       -0.08012800000000
C           75.09422099999999       -3.44099900000000        0.19005400000000
C           73.98432000000000       -2.77436100000000        0.48524200000000
N           74.19884500000001       -1.36467400000000        0.41727500000000
C           72.71910400000000       -3.41062800000000        0.92738100000000
C           72.77228799999999       -4.79864300000000        1.44714400000000
C           72.12732600000000       -5.84156500000000        0.76094100000000
C           72.19347399999999       -7.15068600000000        1.24722800000000
C           72.90911900000000       -7.43263000000000        2.42048200000000
N           72.97328299999998       -8.77127300000000        2.92010000000000
C           73.56235800000000       -6.39359300000000        3.10073400000000
C           73.49806599999999       -5.08447100000000        2.61412300000000
C           71.54315699999999       -2.75504600000000        0.88468800000000
C           70.26056199999998       -3.26889400000000        1.35431100000000
C           69.37229499999998       -2.33307100000000        1.09085000000000
C           70.07573100000000       -1.21269600000000        0.45612300000000
N           71.34548100000001       -1.45147800000000        0.33557800000000
H           68.35306000000000        2.53736100000000       -0.99786000000000
H           70.16104900000001        4.26179600000000       -1.44787700000000
H           72.60590000000001        4.27680600000000       -3.42419200000000
H           72.63611299999999        6.64400800000000       -4.11060500000000
H           72.81447199999998        9.04258800000000       -3.50700000000000
H           73.03107500000000        9.53677300000000       -1.79494400000000
H           73.15177799999998        7.83061900000000        0.00047800000000
H           73.11769400000000        5.46389500000000        0.68851500000000
H           75.57871000000000        4.42213200000000       -0.72052700000000
H           77.42628400000000        2.71107400000000       -0.24072400000000
H           77.15805600000000       -2.67660400000000       -0.32386300000000
H           75.21993899999998       -4.51616200000000        0.18844000000000
H           71.57615600000000       -5.63932700000000       -0.14987600000000
H           71.68886899999998       -7.94496700000000        0.70959200000000
H           73.50319500000001       -8.99139500000000        3.79327900000000
H           72.48792700000000       -9.55173600000000        2.42323400000000
H           74.12088400000000       -6.59815000000000        4.00680300000000
H           74.00869000000000       -4.29207900000000        3.14928400000000
H           70.05294200000000       -4.21647100000000        1.83420600000000
H           68.31785499999999       -2.40011800000000        1.32215200000000
244
 energy: -420.274205362432 gnorm: 0.582705862270 xtb: 6.5.1 (b24c23e)
Ni          51.40577765096836       -0.03543736740273        0.04198423185143
C           48.05919473299372        0.09393640328679        0.03911595600658
C           48.72728388033151        1.14543047841887       -0.48464496650603
C           48.06958948041294        2.28745458210135       -1.10176076879248
C           49.01743127573682        3.14190216221723       -1.47659425847938
C           50.31396129663443        2.57307281354391       -1.09728532649342
N           50.12843919120022        1.31276809810646       -0.48088462728394
C           51.51857526394446        3.17972094391744       -1.29000403763498
C           51.55969713718871        4.52868477393864       -1.90838884300673
C           52.11384199388145        4.69963040029494       -3.18410104160580
C           52.17654400384406        5.96699977690374       -3.76253117649507
C           51.68884964388203        7.08994882721332       -3.07447345155229
N           51.75327122619255        8.37968030797149       -3.66237021618931
C           51.13817760961395        6.91602193792659       -1.79434104664262
C           51.07529400386145        5.64810239332657       -1.21686074241026
C           52.79230661324574        2.56654851323253       -0.90674766119018
C           54.07261654969043        3.27486641440984       -0.89968722783976
C           55.01625847271653        2.40838623137747       -0.53252883622400
N           52.94636992717786        1.30841301981376       -0.54613672620145
C           54.34128790228506        1.14451707831542       -0.30164323425842
C           54.94930554018527       -0.02363708017882        0.02852736053977
C           54.16591394682768       -1.24483968084234        0.26377341329294
C           54.69849502264368       -2.49126823869158        0.24419066991168
C           53.67046210264621       -3.40840286100815        0.62250067902928
C           52.54734203562648       -2.68556160207440        0.86189374864760
N           52.79214139247010       -1.30601412927346        0.63190617022257
C           51.28818736755920       -3.26323663520169        1.35154306084696
C           51.30464501240650       -4.60547045058614        1.99203124137039
C           52.03963152666545       -4.81352612082339        3.16807897259864
C           52.07999812472590       -6.07345562051696        3.76443554707843
C           51.38941572555802       -7.15540021520430        3.19439511170675
N           51.43147121525337       -8.43747011884870        3.80013016628860
C           50.65879889310246       -6.94750037364609        2.01317085457000
C           50.61787349593272       -5.68669390483294        1.41801074755748
C           50.11575237385897       -2.59415511880965        1.23739366098541
C           48.81572043147118       -3.03949524000172        1.71896771322031
C           47.94199664931377       -2.10465691538575        1.34301707808284
C           48.68293073562281       -1.06649298737372        0.63806175112906
N           49.96665204035115       -1.34690623428775        0.57534943621406
H           46.97554522664532        0.12111182096794        0.01122902324653
H           47.00715629207956        2.43210002941541       -1.24538238972640
H           48.82738410444942        4.08265843126993       -1.97467599466988
H           52.49675810781548        3.84252907546931       -3.73039732059254
H           52.60765304276592        6.08133787098604       -4.75080382264250
H           52.15785659868869        8.51371395317278       -4.60343960827491
H           51.39661231215168        9.20938324745995       -3.16071958959774
H           50.75945656810540        7.77126129876769       -1.24589156608861
H           50.65250952095055        5.53341967194262       -0.22298213436896
H           54.24925975632085        4.31109560856478       -1.14030974880171
H           56.06942458671101        2.63496674754227       -0.43653884771629
H           55.72342325899465       -2.73264557015137        0.01065425920036
H           53.76574916069001       -4.47853717374849        0.72602852003803
H           52.58067412245434       -3.98951932233749        3.62369364923699
H           52.65245369738001       -6.21471490802858        4.67445678362167
H           51.96813990032261       -8.59629266820440        4.66856673548095
H           50.92607392825142       -9.23708805409034        3.38468961689397
H           50.12293980809993       -7.77145674383913        1.55508617687962
H           50.05606834083210       -5.54895919464944        0.49883390195932
H           48.57183933810979       -3.93687653747350        2.27202691370511
H           46.88170198312004       -2.12560022131597        1.53908961190500
Ni          83.96824405140907        0.01150462578007        0.01679362415711
C           87.31474321947002       -0.06242588139120        0.12306927114055
C           86.64674621718858       -1.07988605191585        0.71006083638649
C           87.30438231855953       -2.22528824387676        1.32096675052789
C           86.35656055807551       -3.00976933878254        1.82603496334158
C           85.06003105058490       -2.37925235346895        1.56140542118924
N           85.24546813318780       -1.16927321662476        0.85162662491173
C           83.85524728194655       -2.87516390250649        1.96064385686968
C           83.81424913530715       -4.13594222398182        2.74334571917510
C           83.26009964433534       -5.29369938440479        2.18094346788991
C           83.19741907492410       -6.47605014234956        2.91768577258810
C           83.68511334260357       -6.52308965841823        4.23388582746513
N           83.62069295593807       -7.72557072656889        4.98395997153357
C           84.23579312039396       -5.35991683045118        4.79618421688959
C           84.29869209538431       -4.17805349212519        4.05847332805547
C           82.58180141055358       -2.21688191638145        1.66129767841261
C           81.30111710712828       -2.60230561874960        2.25559920336160
C           80.35729944903767       -1.81781853796295        1.73636685109258
N           82.42777685967816       -1.22118737659380        0.81192648293417
C           81.03277630932034       -0.92693261654709        0.81019022545815
C           80.42640890929985       -0.00586603496631        0.01913988332040
C           81.20809774136484        0.86481852519288       -0.86873271944702
C           80.67536602493931        1.53702735712537       -1.91850245367463
C           81.70345781354330        2.35896948602589       -2.47379515223784
C           82.82662711029018        2.15911167900487       -1.73901374579267
N           82.58191671205786        1.20525991698491       -0.71623599879107
C           84.08577891643945        2.88648330110361       -1.95002105300899
C           84.06931080688950        4.16191483046049       -2.71486221440908
C           83.33429357747951        5.25712017552010       -2.23848419155840
C           83.29395961892527        6.45030220908256       -2.95910458670013
C           83.98454652494996        6.57306656229914       -4.17593355341734
N           83.94250381864146        7.78616016078195       -4.90974069875335
C           84.71517735676261        5.47354330347791       -4.65525440092980
C           84.75612909004752        4.28089012879179       -3.93323967720434
C           85.25820922704582        2.42160504535320       -1.45539261700817
C           86.55825603710034        3.06906577990194       -1.56050059166221
C           87.43196159949004        2.23921473787027       -0.98905181993074
C           86.69101041927857        1.07803932906036       -0.51326388176344
N           85.40732471428487        1.18066420693891       -0.78159985803470
H           88.39840047009045       -0.10064477382420        0.13027656165052
H           88.36679670718323       -2.42489734345321        1.36216756269084
H           86.54657010157190       -3.94471991637238        2.33493745038852
H           82.87720740338560       -5.27544813028476        1.16471110012361
H           82.76631639842526       -7.36293706073035        2.46694655328686
H           83.21611393940539       -8.58406413253003        4.57574772751371
H           83.97735344883451       -7.76594003419158        5.95272230836664
H           84.61450561099880       -5.37533457700389        5.81204220583200
H           84.72145608602385       -3.28628648310064        4.51201026796732
H           81.12468515279558       -3.37548560589082        2.98632213139162
H           79.30404243113149       -1.86289908249165        1.97798095991371
H           79.65049907032174        1.47567478937428       -2.24860791123808
H           81.60821352085786        3.03654633097099       -3.30854045637625
H           82.79329017579599        5.18157461075276       -1.29992353941745
H           82.72151529712004        7.28684452311974       -2.57404083413550
H           83.40582555675530        8.59781690626337       -4.56233940845930
H           84.44788684032689        7.88176832842586       -5.80580976233477
H           85.25101996498391        5.54699856779526       -5.59511106502977
H           85.31789714746476        3.43864167857256       -4.32629034321541
H           86.80211960776091        4.02586103503598       -2.00288289214333
H           88.49224691388744        2.41419255048127       -0.89816281316178
C           56.67644185818773       -0.01295149885962        0.02748301662314
C           57.87566184316751       -0.01835950506457        0.03326064228339
C           67.12647515784552       -0.02387908538578        0.03543611365615
C           68.26067822951933       -0.01978242516715        0.03555208651339
C           77.50692360299391       -0.02288666141394        0.03385053731629
C           78.70208488874313       -0.01368662937060        0.02836953303103
Ni          62.55549337268793       -0.04187487159065        0.04675172571283
C           59.14546075713000        0.00422410353476       -0.02655408851424
C           59.76275464461830        1.13616249633197       -0.41942568246523
C           59.08909994803295        2.34816122232682       -0.87158455932664
C           60.03457877614867        3.25357032213112       -1.10883254016354
C           61.32800643887816        2.63880935301713       -0.81812472996090
N           61.14961411255955        1.30489172441395       -0.38398831086880
C           62.52461983536643        3.28455096902484       -0.90413420232395
C           62.53623192020903        4.70799944661905       -1.32018052460413
C           62.40094594670047        5.05320220335725       -2.67146850940729
C           62.41822894085261        6.39252650862854       -3.06075588367891
C           62.57175542429650        7.41075284931113       -2.10530990782681