177
 energy: -309.737284129931 gnorm: 0.746808915161 xtb: 6.5.1 (b24c23e)
Zn          35.68059800000000       -0.29536300000000       -0.20173500000000
C           32.29489200000000       -0.15303900000000       -0.15385900000000
C           32.96038700000000        0.63676300000000        0.69366200000000
C           32.31278200000000        1.52229200000000        1.65439600000000
C           33.25729400000000        2.17026700000000        2.31108400000000
C           34.56181600000000        1.73170300000000        1.79569700000000
N           34.38017100000000        0.75418700000000        0.77103800000000
C           35.75518800000000        2.20513300000000        2.20196500000000
C           35.79660100000000        3.21900900000000        3.23217300000000
C           35.83362999999999        4.06422700000000        4.09091400000000
C           35.87853900000000        5.07254000000000        5.11569500000000
C           37.08413199999999        5.71770000000000        5.41497300000000
C           37.10598300000000        6.69427900000000        6.41432000000000
N           35.96493800000000        7.00949300000000        7.08517300000000
C           34.78242700000000        6.39497100000000        6.81070800000000
C           34.71699900000000        5.41296100000000        5.81864700000000
C           37.05008900000000        1.75020500000000        1.63619200000000
C           38.34140400000000        2.36991600000000        1.95711400000000
C           39.27775400000000        1.70785300000000        1.30916000000000
N           37.19050400000000        0.74629900000000        0.82471900000000
C           38.59231700000000        0.65477400000000        0.56879600000000
C           39.18835000000000       -0.28331700000000       -0.18669300000000
C           38.43136199999999       -1.33055800000000       -0.91284500000000
C           38.98424400000000       -2.41143400000000       -1.44958000000000
C           37.93779700000000       -3.13364900000000       -2.14471600000000
C           36.81122100000000       -2.44777500000000       -1.98741000000000
N           37.03296900000000       -1.27515600000000       -1.20039800000000
C           35.51375500000000       -2.81885900000000       -2.60656400000000
C           35.50705799999999       -3.82907600000000       -3.64279300000000
C           35.50192100000000       -4.67081200000000       -4.50581900000000
C           35.49562300000000       -5.67515300000000       -5.53552000000000
C           36.68869900000000       -6.29938900000000       -5.91615600000000
C           36.66083300000000       -7.27200600000000       -6.91925700000000
N           35.48391200000000       -7.60392000000000       -7.51506500000000
C           34.31256400000000       -7.01019100000000       -7.16060000000000
C           34.29642800000000       -6.03258500000000       -6.16200800000000
C           34.35069099999999       -2.25628700000000       -2.23541400000000
C           33.03099900000000       -2.57278300000000       -2.77954700000000
C           32.16885200000000       -1.84504300000000       -2.09642200000000
C           32.92830900000000       -1.06179100000000       -1.12282000000000
N           34.20127900000000       -1.29437900000000       -1.19372500000000
H           31.21144800000000       -0.12945800000000       -0.13478900000000
H           31.24843300000000        1.64114600000000        1.81182300000000
H           33.07489800000000        2.90199900000000        3.08770900000000
H           37.99486300000000        5.46885400000000        4.88248900000000
H           38.03053200000000        7.20169000000000        6.65668900000000
H           33.89275700000000        6.66873100000000        7.36260100000000
H           33.77346900000000        4.92558700000000        5.60232200000000
H           38.51607600000000        3.21804100000000        2.60628500000000
H           40.33696100000000        1.92485500000000        1.34519600000000
H           40.02605900000000       -2.69854300000000       -1.40381000000000
H           38.06348200000000       -4.04990500000000       -2.70703700000000
H           37.62782399999999       -6.03749400000000       -5.44352400000000
H           37.57537700000000       -7.76314100000000       -7.22407100000000
H           33.39338800000000       -7.29690000000000       -7.65391500000000
H           33.36157200000000       -5.56171600000000       -5.88218000000000
H           32.78368000000000       -3.26649900000000       -3.57284600000000
H           31.09615100000000       -1.84162400000000       -2.23862500000000
Zn          55.86595400000000       -0.26422400000000       -0.18407800000000
C           59.25166000000000       -0.37837400000000       -0.28163800000000
C           58.58616400000000       -1.51114700000000       -0.52433900000000
C           59.23376999999999       -2.79022000000000       -0.79107100000000
C           58.28925800000000       -3.68641600000000       -1.01002600000000
C           56.98473600000000       -3.01898300000000       -0.89824300000000
N           57.16638099999999       -1.63783000000000       -0.58538700000000
C           55.79136400000000       -3.61067200000000       -1.09596400000000
C           55.74995100000000       -5.01525300000000       -1.43717600000000
C           55.71292200000000       -6.18610400000000       -1.72167300000000
C           55.66801299999999       -7.58317200000000       -2.06089500000000
C           54.46242000000000       -8.17120500000000       -2.46091500000000
C           54.44056900000000       -9.53015500000000       -2.78596100000000
N           55.58161400000000      -10.26768200000000       -2.71207800000000
C           56.76412500000000       -9.71667100000000       -2.32561300000000
C           56.82955200000000       -8.36118600000000       -1.99216600000000
C           54.49646299999999       -2.89159900000000       -0.99600400000000
C           53.20514799999999       -3.48514100000000       -1.36307400000000
C           52.26879799999999       -2.58920800000000       -1.12754500000000
N           54.35604799999999       -1.67984800000000       -0.55106000000000
C           52.95423400000000       -1.41323600000000       -0.60389700000000
C           52.35820200000000       -0.28331700000000       -0.18669300000000
C           53.11519000000000        0.87746100000000        0.33924100000000
C           52.56230799999999        1.89295200000000        0.99128000000000
C           53.60875500000000        2.86025700000000        1.25420700000000
C           54.73533100000000        2.37315900000000        0.74636500000000
N           54.51358300000000        1.09579000000000        0.14407800000000
C           56.03279700000000        3.09500100000000        0.74696800000000
C           56.03949400000000        4.50287000000000        1.08194700000000
C           56.04463100000000        5.67561100000000        1.36125700000000
C           56.05092899999999        7.07486100000000        1.69454500000000
C           54.85785199999999        7.72197200000000        2.03484300000000
C           54.88571900000000        9.08211000000000        2.35456100000000
N           56.06263900000000        9.76380800000000        2.33353600000000
C           57.23398799999999        9.15481800000000        2.00598300000000
C           57.25012399999999        7.79598900000000        1.67966800000000
C           57.19586000000000        2.48768600000000        0.45471900000000
C           58.51555299999999        3.11712300000000        0.44699000000000
C           59.37770000000000        2.15729100000000        0.17315400000000
C           58.61824300000000        0.91968000000000        0.00080000000000
N           57.34527299999999        1.09993100000000        0.16400000000000
H           60.33510400000000       -0.40684500000000       -0.29208500000000
H           60.29811899999999       -2.98633400000000       -0.81225100000000
H           58.47165399999999       -4.72853800000000       -1.23928900000000
H           53.55168799999999       -7.58649400000000       -2.52071900000000
H           53.51602000000000       -9.99863500000000       -3.09698400000000
H           57.65379500000000      -10.33082800000000       -2.27722500000000
H           57.77308300000000       -7.92534100000000       -1.68496800000000
H           53.03047599999999       -4.47763700000000       -1.75765100000000
H           51.20959100000000       -2.73153300000000       -1.29527100000000
H           51.52049299999999        2.00106400000000        1.26116500000000
H           53.48306999999999        3.81319600000000        1.75183900000000
H           53.91872800000000        7.18192600000000        2.05272400000000
H           53.97117500000000        9.59582300000000        2.61956000000000
H           58.15316400000000        9.72535300000000        1.99878000000000
H           58.18498000000000        7.31412100000000        1.41923400000000
H           58.76287199999999        4.15403800000000        0.63506800000000
H           60.45040100000000        2.27757000000000        0.09721800000000
C           40.44886499999999       -0.28331700000000       -0.18669300000000
C           41.67078200000000       -0.28331700000000       -0.18669300000000
C           49.87577000000000       -0.28331700000000       -0.18669300000000
C           51.09768700000000       -0.28331700000000       -0.18669300000000
Zn          45.84410300000000        0.46938100000000        0.39190400000000
C           42.36248999999999        0.59645600000000        0.39303800000000
C           43.01763600000000        1.14664000000000       -0.64292800000000
C           42.36453800000000        1.70698500000000       -1.82317300000000
C           43.29223600000000        1.97732500000000       -2.71539000000000
C           44.59949099999999        1.66212200000000       -2.13452700000000
N           44.43435900000000        1.12149700000000       -0.82663500000000
C           45.77920100000000        1.84873400000000       -2.75549200000000
C           45.78608899999999        2.24611100000000       -4.14469200000000
C           45.78090199999999        2.53214300000000       -5.31782900000000
C           45.76239200000000        2.83502700000000       -6.72174100000000
C           46.70692700000000        2.25891900000000       -7.57621600000000
C           46.65888499999999        2.54921700000000       -8.94252800000000
N           45.69648100000000        3.37807700000000       -9.42957800000000
C           44.76054800000000        3.93842500000000       -8.61656300000000
C           44.77753500000000        3.68104500000000       -7.24388900000000
C           47.09106600000000        1.64256100000000       -2.09639000000000
C           48.36265300000000        2.12735100000000       -2.64083900000000
C           49.31389200000000        1.80315500000000       -1.78833900000000
N           47.25722399999999        1.04257000000000       -0.96325500000000
C           48.65686100000000        1.10015200000000       -0.69640400000000
C           49.26228500000000        0.59645600000000        0.39303800000000
C           48.53570400000000       -0.17236400000000        1.42991600000000
C           49.12595199999999       -0.81067300000000        2.43712800000000
C           48.10026599999999       -1.54422200000000        3.15403100000000
C           46.94759100000000       -1.30427700000000        2.54081900000000
N           47.13135199999999       -0.42436600000000        1.42877800000000
C           45.64884899999999       -1.89810900000000        2.94689400000000
C           45.66965600000000       -3.09600200000000        3.75496500000000
C           45.70332600000000       -4.13378900000000        4.36777800000000
C           45.76724200000000       -5.41047500000000        5.02256600000000
C           44.59763300000000       -6.04415400000000        5.44948800000000
C           44.66389800000000       -7.36778900000000        5.88693700000000
N           45.85633199999999       -8.01962500000000        5.91301700000000
C           47.01030000000000       -7.41215500000000        5.54056800000000
C           46.98771300000000       -6.09438900000000        5.09093700000000
C           44.46857399999999       -1.40868900000000        2.53158500000000
C           43.15411199999999       -1.89322100000000        2.94253500000000
C           42.27314699999999       -1.17146800000000        2.27894100000000
C           43.01349500000000       -0.23808400000000        1.42412800000000
N           44.29826000000000       -0.37089600000000        1.56681300000000
H           41.31090300000000        1.87083200000000       -1.96836600000000
H           43.10508700000000        2.41095100000000       -3.68034700000000
H           47.46892699999999        1.59233400000000       -7.19455800000000
H           47.39106000000000        2.12144400000000       -9.61129400000000
H           44.00512000000000        4.58595700000000       -9.03678900000000
H           44.02456200000000        4.12207000000000       -6.60469500000000
H           48.51183700000000        2.66668100000000       -3.56480100000000
H           50.36278500000000        2.02425700000000       -1.91052400000000
H           50.18287100000000       -0.83139100000000        2.66768200000000
H           48.25685600000000       -2.18453800000000        4.01919500000000
H           43.63813100000000       -5.53768500000000        5.38294800000000
H           43.76109400000000       -7.88799100000000        6.17412400000000
H           47.93927000000000       -7.96058000000000        5.55900000000000
H           47.90180900000000       -5.63035300000000        4.74501800000000
H           42.91950500000000       -2.68051000000000        3.64792200000000
H           41.19770900000000       -1.27792200000000        2.35697200000000
177
 energy: -309.973313251771 gnorm: 0.374586693522 xtb: 6.5.1 (b24c23e)
Zn          35.67832241608084       -0.29281443445446       -0.19981033577240
C           32.29539627466484       -0.16507862486182       -0.16704763022241
C           32.96538243805732        0.63786408539169        0.69494763726058
C           32.31180643558584        1.51777035670308        1.64952338186340
C           33.26643209872758        2.17230775232060        2.31274083656789
C           34.55720959094422        1.72868630165240        1.79357696560607
N           34.35899347215467        0.76942144243477        0.78955551678565
C           35.77015188110293        2.21066683637318        2.20618745436841
C           35.80164835377786        3.21505480397639        3.22604208439243
C           35.83447053719801        4.06562371533701        4.09291378594101
C           35.87815859933539        5.06822074271410        5.11125320599100
C           37.08006741434839        5.71811987481267        5.41686943520182
C           37.08894052726681        6.68811877648602        6.41319483218486
N           35.96493833117298        7.00875639301286        7.08444830965536
C           34.79912725620053        6.39323199021398        6.80381483980365
C           34.72100787822678        5.41469895353520        5.81894617288347
C           37.04235830237626        1.76964077843699        1.65466872027393
C           38.32697232893623        2.38076623642034        1.96881353674944
C           39.27135994907622        1.70233821191494        1.30596322037801
N           37.19112537197623        0.75886079144492        0.82772117996404
C           38.56314368407833        0.66903712778496        0.57846527044933
C           39.11644487166165       -0.29274163757680       -0.19325000155136
C           38.39795486034077       -1.32676818936189       -0.91620281401137
C           38.98284258505677       -2.42969670597959       -1.46433091246575
C           37.96002101569542       -3.13943104644915       -2.14674398977004
C           36.80138283262292       -2.43855713199171       -1.98856422395967
N           37.02943956982288       -1.28937617398440       -1.20585738842888
C           35.52834982217438       -2.81738993400277       -2.60551503638148
C           35.51455273472276       -3.82271653503416       -3.63305244803410
C           35.50385054890172       -4.67041052149575       -4.50534532022933
C           35.49549328320500       -5.67016523985786       -5.53043738537891
C           36.68450683118037       -6.29967988578745       -5.91737049800941
C           36.64386325543781       -7.26610229693773       -6.91680844969204
N           35.48387313360129       -7.60293491447942       -7.51402782667435
C           34.32949312723008       -7.00803231303970       -7.15466528937271
C           34.30043180894798       -6.03381029330167       -6.16230906837565
C           34.34651443989978       -2.25525457635959       -2.23576799360889
C           33.03704229189530       -2.57279958065669       -2.77808538360389
C           32.15717894731054       -1.83719647061715       -2.08831580501856
C           32.90729311429818       -1.05677207536139       -1.11717781460345
N           34.19715055022100       -1.30185710695805       -1.20650103227900
H           31.21197505498013       -0.13371314975640       -0.14025152657492
H           31.24831286886323        1.63468314411898        1.80512345921273
H           33.08637395163860        2.90294011242328        3.08850842691542
H           37.99253937304097        5.46950077375400        4.88390731643778
H           38.01798340217702        7.20105110749012        6.65984070740882
H           33.90543482690516        6.67133410635118        7.36149732987288
H           33.77577611668146        4.92681854697569        5.60293554353542
H           38.50757818675977        3.22367686989760        2.61225878968567
H           40.33362261127958        1.91456544271177        1.33709032121846
H           40.02569292052442       -2.70246669381272       -1.40550458779989
H           38.07119192953033       -4.05311320467602       -2.70652294895206
H           37.62563176028792       -6.03810088802094       -5.44462717491889
H           37.56271909339606       -7.76267298865044       -7.22632111468868
H           33.40594924053946       -7.29924598922481       -7.65356829742499
H           33.36363265044221       -5.56276472790978       -5.88280707271465
H           32.79437295233080       -3.26632919420484       -3.57168116321985
H           31.09024845891173       -1.83596761377374       -2.23321761471545
Zn          55.86825092147393       -0.26725967209762       -0.18524197681249
C           59.25124103768972       -0.36061439048647       -0.27807456919116
C           58.58099456974882       -1.51279289965912       -0.52462380147635
C           59.23470082396364       -2.78365823475656       -0.78972218274745
C           58.28012237800665       -3.68895732037656       -1.01088669343416
C           56.98933701691154       -3.01604260443455       -0.89697532952347
N           57.18775078944175       -1.66124455561381       -0.58899222636784
C           55.77712775405059       -3.61734408539887       -1.09928783223524
C           55.74513036210990       -5.00798751059162       -1.43701434045503
C           55.71210482969644       -6.18859713320568       -1.72191577565542
C           55.66838776887981       -7.57708326580615       -2.05948578942523
C           54.46648033676739       -8.17305146279784       -2.46034207292640
C           54.45761566396883       -9.52599317901993       -2.78127970369578
N           55.58162602226820      -10.26672368174897       -2.71187273495826
C           56.74743967495929       -9.70982558016052       -2.32769539190517
C           56.82555353375313       -8.36233521830744       -1.99354896733930
C           54.50438672811588       -2.91782816890963       -1.00333224255774
C           53.22066384195865       -3.50021400174991       -1.36587792568875
C           52.27726738998586       -2.58083170781266       -1.12325011964256
N           54.35795025100574       -1.68990916873849       -0.55718771766708
C           52.98888704999968       -1.42681886243256       -0.60704082302398
C           52.42980554189042       -0.26637267911309       -0.17538564692471
C           53.14396570346716        0.88396565251417        0.33468929630819
C           52.56169899121842        1.91735254546418        1.00015085771947
C           53.58690352309869        2.86566009392031        1.25851842670507
C           54.74424152915081        2.36927830220514        0.73798053833181
N           54.51413587141464        1.10762234759939        0.15298093194513
C           56.01840513973821        3.09324384525015        0.74621438829950
C           56.03197758970931        4.49115556326004        1.08134934457731
C           56.04267549677502        5.67498486291042        1.36111676124399
C           56.05106336032325        7.06785421703502        1.69281903632477
C           54.86204671671654        7.72319663040786        2.03443692371069
C           54.90268802280660        9.07697159332928        2.35071395433634
N           56.06266225708040        9.76250569562874        2.33319544786817
C           57.21704577667848        9.14861796890827        2.00713261024781
C           57.24610840232594        7.79691340514166        1.68052637997055
C           57.19987303007621        2.48750881905046        0.45370692202360
C           58.50957196797266        3.11592613351701        0.44769070410622
C           59.38932135573134        2.14639697530954        0.17057023910620
C           58.63922160147271        0.91206059592212       -0.00067412633937
N           57.34923353467137        1.11463353042824        0.16371171142543
H           60.33462694679782       -0.39985961430845       -0.29130110823670
H           60.29823602535494       -2.97719676443666       -0.81020371720835
H           58.46023565094666       -4.72973059187700       -1.23974127917784
H           53.55401870446486       -7.58803654758069       -2.52057635568396
H           53.52857164672649      -10.00099788816716       -3.09484816205733
H           57.64113940752492      -10.33119587073749       -2.28006839951389
H           57.77078738813652       -7.92648315713876       -1.68575640913007
H           53.03898730156920       -4.48511641694298       -1.75938070255846
H           51.21444371632803       -2.71762874164614       -1.28997864244024
H           51.51953730891927        2.00553572649896        1.26449121971073
H           53.47570623791975        3.81478893543526        1.75508760758330
H           53.92090950041758        7.18320584608295        2.05265445085322
H           53.98381781359289        9.59752754784685        2.61797560585192
H           58.14059169644265        9.72628358285945        2.00092657648758
H           58.18290718986117        7.31523274891216        1.41977191549554
H           58.75220811325838        4.15301006518838        0.63547325809385
H           60.45628787220767        2.27009032097375        0.09510191482101
C           40.42540956952806       -0.30424904954924       -0.19947622126069
C           41.63781671066104       -0.32918294811220       -0.21336399036565
C           49.90777207799646       -0.33302979094358       -0.22513401801932
C           51.12793904889987       -0.29075382798179       -0.18560604856142
Zn          45.83653144348099        0.46836477406689        0.38774230696063
C           42.43096808486750        0.57719029297927        0.40719050734630
C           43.05982891785599        1.17627565147892       -0.65396573105326
C           42.36850107748698        1.70318503611370       -1.81276723065622
C           43.30701310782414        1.98410058417181       -2.72003225190930
C           44.59792737298699        1.66329032896701       -2.13931480590052
N           44.42932753347724        1.15288663598978       -0.84840578895579
C           45.79803231497073        1.84766437658269       -2.76870744872380
C           45.79076615554790        2.24557752014799       -4.14068575708752
C           45.78153551473831        2.53274954819140       -5.31991558294102
C           45.76132022914086        2.83300361714488       -6.71646896331249
C           46.70426102493583        2.26245412103767       -7.57732116008357
C           46.64578488005086        2.55908567697598       -8.93461613254073
N           45.69646114672786        3.37762261811939       -9.42862454838905
C           44.77462260697325        3.92772416741432       -8.61395032658733
C           44.78001347230990        3.67785225625881       -7.24664772254622
C           47.08296686182766        1.65855300675978       -2.12897103782072
C           48.34545604848565        2.13473891102880       -2.65864116006176
C           49.30741695404261        1.80012372087079       -1.78345488699773
N           47.25471413606197        1.06846180446192       -0.96484501895917
C           48.61767729667950        1.13925996842463       -0.70752903055816
C           49.17190427506841        0.57966272130124        0.41648507117033
C           48.49135190247583       -0.16504100117406        1.45445665753619
C           49.12396905927290       -0.82555039848648        2.45989941782742
C           48.12120433364407       -1.54940712555558        3.16057066646359
C           46.93659043249092       -1.30681660807407        2.53726891253055
N           47.12349479149801       -0.42924754021177        1.45244376950951
C           45.66467309380156       -1.90316874506807        2.94340377351180
C           45.67910407485960       -3.08636489250338        3.75163893643828
C           45.70599451541116       -4.13257624586262        4.36981369282421
C           45.76640165371698       -5.40652778911897        5.01467309624595
C           44.60028049404868       -6.04610129097903        5.44625275493045
C           44.67956919140681       -7.36320042136804        5.88341426697638
N           45.85512844865620       -8.01956521155498        5.91429217858611
C           46.99338662299180       -7.40695400371469        5.54156730633697
C           46.98376888782720       -6.09481585135530        5.08927158300973
C           44.46713088101605       -1.41488498581454        2.53370760448964
C           43.16155837194221       -1.89376401074331        2.94420560386088
C           42.26593816842576       -1.16096266119940        2.27346634534712
C           43.02388670195560       -0.23242880149606        1.44389369483015
N           44.31030824105507       -0.38048417364983        1.59232702490173
H           41.31004917813841        1.86434265150157       -1.95476039570343
H           43.11547225593689        2.41256182077411       -3.68698545536375
H           47.46779497159425        1.59391511923356       -7.19514492402731
H           47.38083537134631        2.12848439359014       -9.61180641746476
H           44.01465643213514        4.57951086001967       -9.04039045286179
H           44.02647128639833        4.12179354730533       -6.60563631365283
H           48.50368580374534        2.67051387114567       -3.57474177628013
H           50.36081695729048        2.01735972092896       -1.89751606666636
H           50.18263682412322       -0.83119601234393        2.67148942602050
H           48.26435401072174       -2.18447388900879        4.02072818860407
H           43.64093296179539       -5.53938930444292        5.38429324587761
H           43.77284047663240       -7.88966696507497        6.17468751999780
H           47.92816295379514       -7.96234735474429        5.56286230998577
H           47.90083347264648       -5.62986029041774        4.74614655225568
H           42.92959358018900       -2.67998350449325        3.64825446205213
H           41.19458589304018       -1.26874933959484        2.35013439958185
177
 energy: -310.101802236288 gnorm: 0.158114171854 xtb: 6.5.1 (b24c23e)
Zn          35.67590467683630       -0.28963226869485       -0.19907785532879
C           32.29903073766121       -0.17844055626056       -0.18154283386481
C           32.97024198630168        0.64042707503723        0.69883703721704
C           32.31132394587524        1.51307489116917        1.64435773190042
C           33.27585483248404        2.17394915447045        2.31396631892869
C           34.54963634168674        1.72574075157762        1.79272869815896
N           34.33338670688892        0.78882559786974        0.81245237648553
C           35.78526821503856        2.21787879266724        2.21117816215339
C           35.80576244750098        3.21372542108160        3.22111696010863
C           35.83477538386757        4.06418725436577        4.09106656558870
C           35.87765740167752        5.06019804219858        5.10350203373220
C           37.07564559046902        5.71719400555821        5.41759139395942
C           37.07108949321837        6.68151143818917        6.41176202633342
N           35.96492412827063        7.00904278945541        7.08469508491248
C           34.81648376402651        6.39130266798915        6.79635674364805
C           34.72518065622447        5.41533281916212        5.81786678895955
C           37.03281567794194        1.79343290428813        1.67623986525273
C           38.31241639250565        2.38762926987018        1.97945153674955
C           39.25812120620284        1.69253667455538        1.29998494459806
N           37.19201926509131        0.77303268694404        0.82751855991878
C           38.53169652851731        0.67412837716024        0.58034002292644
C           39.04085073605857       -0.33014479398655       -0.21391936393700
C           38.36045052625871       -1.33107027232461       -0.92598502448452
C           38.97717381264623       -2.45358172389988       -1.48758773892079
C           37.98584650633367       -3.14418307029989       -2.15219875425600
C           36.79018019477979       -2.43341978743588       -1.99377520826863
N           37.02542850353191       -1.31656818556568       -1.21464498935737