248
 energy: -449.867211974532 gnorm: 1.858534795382 xtb: 6.5.1 (b24c23e)
Co          46.34161599999999       -0.01286800000000       -0.00771400000000
C           43.00362000000000        0.11028700000000        0.06436400000000
C           43.66559400000000        1.25973100000000        0.22528600000000
C           43.01472400000000        2.55703900000000        0.36246100000000
C           43.95469300000000        3.46769600000000        0.53514800000000
C           45.25977000000000        2.79228000000000        0.52915100000000
N           45.08298400000000        1.39026200000000        0.32206700000000
C           46.45170399999999        3.39813400000000        0.71080500000000
C           46.50091400000000        4.85659900000000        0.96307500000000
C           46.01823600000000        5.38574200000000        2.17078300000000
C           46.08118900000000        6.76158900000000        2.41126800000000
C           46.63202400000000        7.61813300000000        1.44960700000000
C           46.69803600000000        9.03435500000000        1.69832000000000
N           46.75109500000000       10.17293100000000        1.89836700000000
C           47.12113200000000        7.09313000000000        0.24667300000000
C           47.05781500000000        5.71747400000000        0.00488000000000
C           47.74313699999999        2.66241000000000        0.67928900000000
C           49.02647899999999        3.24749000000000        1.08658300000000
C           49.96128000000000        2.33759500000000        0.90177300000000
N           47.88616600000000        1.44056400000000        0.26569800000000
C           49.28149700000000        1.15986100000000        0.37658800000000
C           49.87605599999999        0.01782700000000       -0.00518300000000
C           49.11284400000000       -1.14226500000000       -0.51661100000000
C           49.64376099999999       -2.13478400000000       -1.21946700000000
C           48.60114500000000       -3.12058100000000       -1.42896200000000
C           47.50323700000000       -2.66668800000000       -0.83544700000000
N           47.73663299999999       -1.39336300000000       -0.23154100000000
C           46.22474400000000       -3.41802500000000       -0.74932500000000
C           46.24800200000000       -4.88356400000000       -0.97686700000000
C           45.56383200000000       -5.44760600000000       -2.06631200000000
C           45.60571400000000       -6.82760300000000       -2.28667600000000
C           46.33736800000000       -7.65447800000000       -1.42507000000000
C           46.38138400000000       -9.07504200000000       -1.65310700000000
N           46.41680700000000      -10.21712500000000       -1.83636200000000
C           47.02910000000000       -7.09553000000000       -0.34315300000000
C           46.98718200000000       -5.71570200000000       -0.12143500000000
C           45.06242300000000       -2.79889100000000       -0.46664100000000
C           43.75513399999999       -3.43665700000000       -0.31966300000000
C           42.89315300000000       -2.46170500000000       -0.10426700000000
C           43.64136300000000       -1.20572700000000       -0.09935800000000
N           44.90638900000000       -1.39004700000000       -0.30961100000000
H           41.92026000000000        0.13811300000000        0.05500700000000
H           41.95137299999999        2.75617900000000        0.32525300000000
H           43.76665800000000        4.52645200000000        0.65640800000000
H           45.59593000000000        4.73196300000000        2.92405400000000
H           45.70310500000000        7.15664400000000        3.34656900000000
H           47.55196200000000        7.74627500000000       -0.50266800000000
H           47.44086200000000        5.32224400000000       -0.92800000000000
H           49.19714599999999        4.24359200000000        1.47336600000000
H           51.01505899999999        2.46959200000000        1.10799600000000
H           50.66953100000000       -2.21518300000000       -1.55350000000000
H           48.71025899999999       -4.06303900000000       -1.94983300000000
H           45.00247800000000       -4.81755600000000       -2.74534400000000
H           45.07098900000000       -7.24883700000000       -3.12953400000000
H           47.60101999999999       -7.72552500000000        0.32752000000000
H           47.52755100000000       -5.29513500000000        0.71787900000000
H           43.51353800000000       -4.49012500000000       -0.37079400000000
H           41.82853500000000       -2.58458200000000        0.04558300000000
Co          95.33978500000001        0.04833900000000       -0.00937200000000
C           98.67778199999999       -0.07073300000000        0.06926700000000
C           98.01580800000001       -1.20978000000000        0.29218000000000
C           98.66667799999999       -2.49775900000000        0.49938500000000
C           97.72670899999999       -3.39773200000000        0.72111900000000
C           96.42163200000000       -2.72363100000000        0.67856700000000
N           96.59841800000000       -1.33488000000000        0.39588500000000
C           95.22969800000000       -3.31876300000000        0.89275300000000
C           95.18048800000000       -4.76143200000000        1.22360900000000
C           95.66316600000000       -5.22441800000000        2.45819200000000
C           95.60021300000000       -6.58522800000000        2.77280700000000
C           95.04937700000001       -7.49257700000000        1.85892600000000
C           94.98336500000001       -8.89325800000000        2.18394400000000
N           94.93030600000000      -10.01933400000000        2.44533600000000
C           94.56026899999999       -7.03346600000000        0.62933500000000
C           94.62358599999999       -5.67291700000000        0.31342300000000
C           93.93826499999999       -2.58582400000000        0.82145400000000
C           92.65492300000000       -3.14799600000000        1.25982400000000
C           91.72012100000001       -2.24944100000000        1.02602700000000
N           93.79523600000000       -1.38816000000000        0.34232300000000
C           92.39990500000000       -1.10186500000000        0.43785400000000
C           91.80534499999999        0.01782700000000       -0.00518300000000
C           92.56855800000000        1.14853000000000       -0.57866400000000
C           92.03763999999998        2.10154400000000       -1.33422100000000
C           93.08025699999999        3.07455400000000       -1.59677600000000
C           94.17816400000000        2.65345700000000       -0.97955900000000
N           93.94476899999998        1.41469300000000       -0.30760600000000
C           95.45665800000000        3.40835400000000       -0.93423800000000
C           95.43340000000001        4.85942600000000       -1.24078600000000
C           96.11757000000000        5.36366300000000       -2.35916800000000
C           96.07568799999999        6.72970600000000       -2.65391700000000
C           95.34403399999999        7.60201300000000       -1.83833900000000
C           95.30001799999998        9.00814900000000       -2.14294500000000
N           95.26459399999999       10.13863600000000       -2.38776000000000
C           94.65230199999999        7.10245500000000       -0.72774900000000
C           94.69421900000000        5.73665400000000       -0.43165700000000
C           96.61897900000000        2.80543200000000       -0.61845100000000
C           97.92626799999999        3.45022000000000       -0.50621500000000
C           98.78824899999999        2.48835800000000       -0.23835400000000
C           98.04003899999999        1.23448800000000       -0.16545800000000
N           96.77501300000000        1.40715600000000       -0.38538100000000
H           99.76114199999999       -0.09902500000000        0.06143100000000
H           99.73002799999999       -2.69862200000000        0.47301300000000
H           97.91474399999998       -4.44837100000000        0.89951900000000
H           96.08547200000000       -4.53081900000000        3.17496500000000
H           95.97829599999999       -6.92907000000000        3.72812400000000
H           94.12943999999999       -7.72622100000000       -0.08354800000000
H           94.24053999999998       -5.32877000000000       -0.63948500000000
H           92.48425599999999       -4.12169800000000        1.69996500000000
H           90.66634300000000       -2.37008000000000        1.23909300000000
H           91.01187100000000        2.16374200000000       -1.67211700000000
H           92.97114300000000        3.98743100000000       -2.16790400000000
H           96.67892399999998        4.69777600000000       -3.00309600000000
H           96.61041299999999        7.10469300000000       -3.51834300000000
H           94.08038199999999        7.76783400000000       -0.09216600000000
H           94.15385100000000        5.36214200000000        0.42919400000000
H           98.16786399999999        4.49937500000000       -0.61430200000000
H           99.85286700000000        2.61916800000000       -0.09537700000000
C           55.88296600000000        0.01904400000000        0.00327500000000
C           54.67402700000000        0.00558900000000       -0.00517200000000
C           53.25249800000000        0.01440800000000       -0.01715500000000
C           52.04082900000000        0.02184700000000       -0.00629200000000
C           57.29957100000000        0.01236900000000        0.00380800000000
C           58.52026699999999        0.02184700000000       -0.00629200000000
C           71.44458700000000        0.01904400000000        0.00327500000000
C           70.23564700000000        0.00558900000000       -0.00517200000000
C           68.81411899999999        0.01440800000000       -0.01715500000000
C           67.60244899999999        0.02184700000000       -0.00629200000000
C           72.86119100000001        0.01236900000000        0.00380800000000
C           74.08188699999999        0.02184700000000       -0.00629200000000
C           87.00620700000000        0.01904400000000        0.00327500000000
C           85.79726800000000        0.00558900000000       -0.00517200000000
C           84.37573900000000        0.01440800000000       -0.01715500000000
C           83.16406900000000        0.02184700000000       -0.00629200000000
C           88.42281100000000        0.01236900000000        0.00380800000000
C           89.64350700000000        0.02184700000000       -0.00629200000000
Co          63.04303800000000        0.02513100000000       -0.01729500000000
C           59.60649399999999       -0.02158900000000        0.00626800000000
C           60.26206300000000       -1.13102500000000       -0.38163200000000
C           59.62134000000000       -2.40207300000000       -0.72541800000000
C           60.55783799999999       -3.24923600000000       -1.10345100000000
C           61.85498300000000       -2.56941400000000       -1.02775600000000
N           61.67704799999999       -1.22941100000000       -0.56192900000000
C           63.03941000000000       -3.12524400000000       -1.36104500000000
C           63.07501299999999       -4.50859500000000       -1.88963000000000
C           62.55377899999999       -4.79680500000000       -3.16110200000000
C           62.60255100000000       -6.10096800000000       -3.66254700000000
C           63.17710900000000       -7.12561700000000       -2.89978200000000
C           63.22846200000000       -8.46791600000000       -3.41697200000000
N           63.26987700000000       -9.54706500000000       -3.83277300000000
C           63.70391099999999       -6.84073600000000       -1.63360300000000
C           63.65484699999999       -5.53703000000000       -1.13089100000000
C           64.33636199999999       -2.41596200000000       -1.21761900000000
C           65.60498000000000       -2.91246400000000       -1.76612200000000
C           66.55719300000000       -2.07884400000000       -1.39936900000000
N           64.50413900000000       -1.31904100000000       -0.54678000000000
C           65.90230000000000       -1.03880600000000       -0.61661500000000
C           66.51730999999999       -0.02158900000000        0.00626800000000
C           65.76635100000000        1.00617300000000        0.75710700000000
C           66.29909300000000        1.81049500000000        1.66807700000000
C           65.26682099999999        2.74769200000000        2.06917200000000
C           64.17539499999999        2.45368700000000        1.37179800000000
N           64.40074100000000        1.33844300000000        0.51134500000000
C           62.92220999999999        3.24564000000000        1.39831500000000
C           62.98437200000000        4.65313800000000        1.86333700000000
C           62.27514099999999        5.05916500000000        3.00589700000000
C           62.35190700000000        6.38266900000000        3.44976000000000
C           63.14336899999999        7.30980000000000        2.76042700000000
C           63.22222100000000        8.67228300000000        3.21795700000000
N           63.28558800000000        9.76768200000000        3.58576900000000
C           63.86031299999999        6.90750100000000        1.62665100000000
C           63.78379200000000        5.58430600000000        1.18158900000000
C           61.75072600000000        2.71850300000000        0.99276700000000
C           60.47544199999999        3.42278600000000        0.90722900000000
C           59.58735500000000        2.52741200000000        0.52596500000000
C           60.28448500000000        1.24742900000000        0.35863700000000
N           61.54901799999999        1.35324700000000        0.62646700000000
H           58.56665600000000       -2.63894500000000       -0.68397500000000
H           60.37160100000000       -4.27145500000000       -1.40606200000000
H           62.11241900000000       -4.01106000000000       -3.76192500000000
H           62.19481699999999       -6.30970800000000       -4.64433000000000
H           64.15268700000000       -7.62527100000000       -1.03625200000000
H           64.06654899999999       -5.32791800000000       -0.15106900000000
H           65.75457900000001       -3.80191300000000       -2.36397100000000
H           67.60649500000000       -2.17559700000000       -1.64464900000000
H           67.32094900000000        1.79910700000000        2.02294700000000
H           65.38122199999999        3.56059200000000        2.77456500000000
H           61.66706300000000        4.34941800000000        3.55332400000000
H           61.79702900000000        6.68188100000000        4.33091600000000
H           64.47819600000000        7.61573800000000        1.08778700000000
H           64.34367899999999        5.28533600000000        0.30385100000000
H           60.27184599999999        4.46763100000000        1.10162100000000
H           58.53725400000000        2.72861700000000        0.36256100000000
Co          78.60465800000000        0.02513100000000       -0.01729500000000
C           75.16811400000000       -0.02158900000000        0.00626800000000
C           75.82368400000000       -1.13102500000000       -0.38163200000000
C           75.18295999999999       -2.40207300000000       -0.72541800000000
C           76.11945799999999       -3.24923600000000       -1.10345100000000
C           77.41660299999998       -2.56941400000000       -1.02775600000000
N           77.23866800000000       -1.22941100000000       -0.56192900000000
C           78.60102999999999       -3.12524400000000       -1.36104500000000
C           78.63663399999999       -4.50859500000000       -1.88963000000000
C           78.11539900000000       -4.79680500000000       -3.16110200000000
C           78.16417199999999       -6.10096800000000       -3.66254700000000
C           78.73873000000000       -7.12561700000000       -2.89978200000000
C           78.79008299999998       -8.46791600000000       -3.41697200000000
N           78.83149700000000       -9.54706500000000       -3.83277300000000
C           79.26553199999999       -6.84073600000000       -1.63360300000000
C           79.21646699999998       -5.53703000000000       -1.13089100000000
C           79.89798199999998       -2.41596200000000       -1.21761900000000
C           81.16660000000000       -2.91246400000000       -1.76612200000000
C           82.11881300000000       -2.07884400000000       -1.39936900000000
N           80.06576000000000       -1.31904100000000       -0.54678000000000
C           81.46392000000000       -1.03880600000000       -0.61661500000000
C           82.07893100000000       -0.02158900000000        0.00626800000000
C           81.32797099999999        1.00617300000000        0.75710700000000
C           81.86071300000000        1.81049500000000        1.66807700000000
C           80.82844100000000        2.74769200000000        2.06917200000000
C           79.73701599999998        2.45368700000000        1.37179800000000
N           79.96236099999999        1.33844300000000        0.51134500000000
C           78.48383000000000        3.24564000000000        1.39831500000000
C           78.54599200000000        4.65313800000000        1.86333700000000
C           77.83676100000000        5.05916500000000        3.00589700000000
C           77.91352699999999        6.38266900000000        3.44976000000000
C           78.70498900000000        7.30980000000000        2.76042700000000
C           78.78384100000000        8.67228300000000        3.21795700000000
N           78.84720799999999        9.76768200000000        3.58576900000000
C           79.42193300000000        6.90750100000000        1.62665100000000
C           79.34541200000000        5.58430600000000        1.18158900000000
C           77.31234600000001        2.71850300000000        0.99276700000000
C           76.03706199999999        3.42278600000000        0.90722900000000
C           75.14897499999998        2.52741200000000        0.52596500000000
C           75.84610600000001        1.24742900000000        0.35863700000000
N           77.11063799999999        1.35324700000000        0.62646700000000
H           74.12827600000000       -2.63894500000000       -0.68397500000000
H           75.93322100000000       -4.27145500000000       -1.40606200000000
H           77.67404000000001       -4.01106000000000       -3.76192500000000
H           77.75643700000001       -6.30970800000000       -4.64433000000000
H           79.71430700000001       -7.62527100000000       -1.03625200000000
H           79.62816900000000       -5.32791800000000       -0.15106900000000
H           81.31619899999998       -3.80191300000000       -2.36397100000000
H           83.16811500000000       -2.17559700000000       -1.64464900000000
H           82.88256900000000        1.79910700000000        2.02294700000000
H           80.94284200000000        3.56059200000000        2.77456500000000
H           77.22868400000000        4.34941800000000        3.55332400000000
H           77.35864899999999        6.68188100000000        4.33091600000000
H           80.03981600000000        7.61573800000000        1.08778700000000
H           79.90529900000000        5.28533600000000        0.30385100000000
H           75.83346599999999        4.46763100000000        1.10162100000000
H           74.09887400000000        2.72861700000000        0.36256100000000
248
 energy: -450.448808053728 gnorm: 0.550206270921 xtb: 6.5.1 (b24c23e)
Co          46.34765261643988       -0.00993060380285       -0.00584243878637
C           43.00448579927011        0.09829005708257        0.06312786186973
C           43.67173173757516        1.26062678489540        0.22543277663312
C           43.01409755270432        2.55220197908993        0.36163021558209
C           43.96135727014889        3.46891392050545        0.53570543957876
C           45.25872463378850        2.78549279157897        0.52768990885896
N           45.07474954607798        1.39630254859948        0.32115538879030
C           46.46247260496644        3.39516708975684        0.71148620819403
C           46.50332610308700        4.85767992806517        0.96416558930770
C           46.01874096445129        5.38842666538582        2.16868995092921
C           46.08146621253554        6.75968912461142        2.40973006964763
C           46.63208594641734        7.61933511670454        1.44981904277249
C           46.69803550723907        9.03387953497793        1.69824724447944
N           46.75087606649488       10.16839536666234        1.89756796138371
C           47.12042492002362        7.09093279220739        0.24735765634926
C           47.05752649221839        5.71954588265324        0.00763323251959
C           47.73715775669339        2.67222357124248        0.68072791076507
C           49.01782346324987        3.25398624924943        1.08665467913326
C           49.96169867288585        2.33292568448825        0.90030484857473
N           47.88972386811685        1.43179472877296        0.26735955517814
C           49.28831037204777        1.15741179273027        0.37624896241205
C           49.88897204231141        0.01032301547994       -0.01047617490984
C           49.11299393388196       -1.13120740935033       -0.50626213177947
C           49.64477968598039       -2.14893960588859       -1.22585688212612
C           48.61574123807998       -3.12084618696140       -1.43171321036707
C           47.49348576352302       -2.65984536699588       -0.82662021328025
N           47.73576091058001       -1.39003487978257       -0.23735765392252
C           46.23353001494443       -3.41306533614782       -0.74909241865897
C           46.25118063815633       -4.88295143729164       -0.97839809367092
C           45.56482138174436       -5.44973194814899       -2.06407082062284
C           45.60628537905892       -6.82543910506340       -2.28516728294210
C           46.33740491744912       -7.65566044130062       -1.42526046560633
C           46.38141156643849       -9.07456994657791       -1.65306504790674
N           46.41664472614858      -10.21256440594721       -1.83562230362979
C           47.02811281429678       -7.09314609710116       -0.34365543059662
C           46.98651080440339       -5.71746650045889       -0.12399630864745
C           45.06192270013032       -2.79665551343392       -0.46603656891557
C           43.76100930095444       -3.43681085650672       -0.32057753557397
C           42.88778995759847       -2.45364850648414       -0.10331431924339
C           43.62956842732664       -1.19795609320195       -0.09819831618212
N           44.91217972816541       -1.39320876510586       -0.30717305071344
H           41.92064709651547        0.13585607758795        0.05513826497110
H           41.95161590247771        2.75256527549757        0.32478025290799
H           43.77111059426260        4.52654033852485        0.65674627541301
H           45.59646461585332        4.73223064576681        2.92310895962479
H           45.70346544713499        7.15660483239423        3.34590664975994
H           47.55158548654323        7.74606760258417       -0.50206341425072
H           47.44039394193098        5.32225663417812       -0.92702497122826
H           49.19352410610883        4.24528385197493        1.47332782948447
H           51.01465421200373        2.46562349026148        1.10653276727477
H           50.66953431224558       -2.21711144830423       -1.55457631545837
H           48.71222764596044       -4.06253494002643       -1.95051511404352
H           45.00317399901576       -4.81773208386686       -2.74452338629196
H           45.07147711756357       -7.24869067943199       -3.12891293775804
H           47.60052340578407       -7.72525238162497        0.32696963271699
H           47.52696773318837       -5.29513701684318        0.71701600328371
H           43.51769761497881       -4.48963755378284       -0.37133740423587
H           41.82735014735972       -2.58145191975927        0.04603780313837
Co          95.33375885145317        0.04551412883329       -0.00734555912098
C           98.67691456999370       -0.05881299180278        0.06738091229672
C           98.00966105491133       -1.21066764074663        0.29236966305904
C           98.66730464876530       -2.49297832559675        0.49829452132973
C           97.72004829927930       -3.39891922176054        0.72174204593346
C           96.42268094737356       -2.71691273428472        0.67672651660372
N           96.60668424637156       -1.34099465229033        0.39532540046069
C           95.21890252971217       -3.31575033754171        0.89327788670120
C           95.17806918805074       -4.76245273663245        1.22475941190158
C           95.66266054956012       -5.22721196900859        2.45624747213493
C           95.59993664756638       -6.58341463237037        2.77116794013885
C           95.04931504520255       -7.49376558797606        1.85920237290148
C           94.98336553723165       -8.89278755684086        2.18384513564305
N           94.93052473635231      -10.01484811309903        2.44429396743592
C           94.56097589673220       -7.03123638249718        0.62989958954638
C           94.62387492970517       -5.67483723346136        0.31628496752678
C           93.94425766242495       -2.59554449846957        0.82342336986888
C           92.66356529160872       -3.15447756521895        1.26024278222873
C           91.71968022990788       -2.24486976122207        1.02432668685729
N           93.79165605734723       -1.37928572961250        0.34345719049618
C           92.39300697344947       -1.09941855814600        0.43738052979143
C           91.79262003908556        0.02522600982453       -0.01081687763505
C           92.56841696176932        1.13807369649578       -0.56774644689737
C           92.03662388106038        2.11538406336228       -1.34140108674466
C           93.06562233048260        3.07466118209776       -1.59954012485337
C           94.18791230997199        2.64708110626438       -0.97037130418200
N           93.94563037055762        1.41107842891166       -0.31321327974760
C           95.44786662069366        3.40340647299448       -0.93373717941425
C           95.43021781474683        4.85873183059016       -1.24228354303209
C           96.11658073729980        5.36590612938534       -2.35704537539765
C           96.07511653884605        6.72762746058237       -2.65229253787334
C           95.34399666292410        7.60318265442859       -1.83859215772293
C           95.29998991610005        9.00768078882279       -2.14287743375728
N           95.26475726764005       10.13412147188020       -2.38677638301999
C           94.65328925761801        7.10004805196776       -0.72812128064147
C           94.69488995113576        5.73827688056219       -0.43430979699207
C           96.61947418854859        2.80322428038084       -0.61772099748692
C           97.92039501533550        3.45032191811287       -0.50713642217257
C           98.79361069030546        2.48036641801630       -0.23696783325427
C           98.05183586138573        1.22677914876415       -0.16387927250085
N           96.76921156143412        1.41044266486739       -0.38311484328664
H           99.76075435816034       -0.09676288135805        0.06144163124037
H           99.72978548425442       -2.69504003969696        0.47234569510045
H           97.91029108029500       -4.44844151002762        0.89986191156083
H           96.08493738623670       -4.53113727763383        3.17403572069487
H           95.97793559840106       -6.92906668808418        3.72746032820805
H           94.12981651389410       -7.72598127637404       -0.08295564239531
H           94.24100820092595       -5.32872982366553       -0.63851104520406
H           92.48787315568379       -4.12338766980208        1.70001655027791
H           90.66673992315459       -2.36620704724893        1.23742541231768
H           91.01186176645517        2.16561810949091       -1.67329524157308
H           92.96916795377753        3.98688742189597       -2.16855524736496
H           96.67822808723390        4.69799593899198       -3.00228648796355
H           96.60992501557081        7.10458020168665       -3.51771490084028
H           94.08087864143079        7.76753140329996       -0.09270090236503
H           94.15443422164368        5.36209763908276        0.42833238980271
H           98.16370395033056        4.49885807616905       -0.61481806666554
H           99.85405112343784        2.61606745110416       -0.09475356644272
C           55.88170103889802        0.01904243832010        0.00324945512030
C           54.65773081472405        0.00599079812895       -0.00536802082045
C           53.24735152686299        0.01420702582964       -0.01664964760505
C           52.01627302561580        0.02029732484095       -0.00674013124148
C           57.24542911949183        0.01263628694393        0.00406000502678
C           58.43078444944013        0.02871167782008       -0.00484424679732
C           71.45170562992635        0.01896281648523        0.00335628302953
C           70.22854162558291        0.00603865559563       -0.00561595458985
C           68.87229597067525        0.01593688869324       -0.01693151355647
C           67.68652868665691        0.03151636038196       -0.00338213188702
C           72.80619263921247        0.01260985494071        0.00402584622640
C           73.99367062089156        0.02876390777797       -0.00495976194746
C           87.02258007254157        0.01864715406662        0.00325209601577
C           85.79875541033631        0.00604593341078       -0.00560955714205
C           84.43279749768263        0.01604085111924       -0.01686546673320
C           83.24954543835713        0.03146689999744       -0.00340583330333
C           88.43089776351987        0.01282294971013        0.00359281616866
C           89.66484313822603        0.02272565836825       -0.00637022017886