538
 energy: -888.305620478731 gnorm: 0.000787974142 xtb: 6.5.1 (b24c23e)
C          111.06112071303055       -0.06182289832555        0.08217075428085
C          111.67370296192449       -1.15132648679301        0.68769359343455
C          111.02560356468442       -2.26638959429425        1.28976306066140
C          111.99089152625211       -3.10824249231427        1.76578353657639
C          113.26033378008600       -2.53023560227001        1.47774742279962
N          113.01782872084961       -1.35656190594841        0.82189074346672
C          114.52463009361219       -3.05186749496434        1.77224104464774
C          115.73864619583514       -2.45231876052587        1.42901523264239
C          117.03822391863713       -2.98913156040819        1.79168861449837
C          117.95675884239439       -2.13400126465394        1.29697860592813
N          115.88970898865965       -1.28678287546561        0.74238459831684
C          117.21742699666227       -1.07184905640740        0.64206128529593
C          117.84989335936596        0.01787676748547        0.01221643539826
C          117.21223214652856        1.10479519311657       -0.61300052910279
C          117.85385840433045        2.18363540052668       -1.27790533487632
C          116.88459902135074        3.01914509681626       -1.75923705258361
C          115.61954351735689        2.48053766605631       -1.39373721945741
C          114.35619703544492        3.00134787680346       -1.69156136259406
C          114.32020798333828        4.28136024765327       -2.44072586639129
C          113.72398080883931        4.34447035697834       -3.70105479753165
C          113.69452855574148        5.53947483105967       -4.40385088094421
C          114.25462755414672        6.68571087569377       -3.85626689901688
C          114.84703660832768        6.63185457534014       -2.60193506969137
C          114.88306397548163        5.43740877313912       -1.89814599087975
C          113.14148864623404        2.40520061655070       -1.33710457161970
C          111.83587272617493        2.98792520864203       -1.60538866084918
C          110.92409247505428        2.12817447614225       -1.10819488129577
C          111.67145278224255        1.02585528816020       -0.52872166641285
N          113.00312189690086        1.22993157618489       -0.67885917632745
N          115.86983488889094        1.32122956973790       -0.70804075647702
C          114.55867530976330       -4.33991006273300        2.50908220681036
C          114.01331589339705       -4.43618768604414        3.78997144269215
C          114.04813857745285       -5.63975569243021        4.47817493661929
C          114.62124632907532       -6.76138494916249        3.89440101203122
C          115.16271671177850       -6.67433580465802        2.61896681928005
C          115.13472063031971       -5.47128434751157        1.92983642488153
H          109.97580014378501       -0.06948028487624        0.09254422360732
H          109.95646754992066       -2.39804312536913        1.33994264696708
H          111.84344348248035       -4.05180516229206        2.26576227136351
H          113.74106028983050       -0.73295468386709        0.47942618087898
H          117.20285890147191       -3.89047986297817        2.35955819368196
H          119.03163067729982       -2.18879262878812        1.36280903743293
H          118.92182773302329        2.29298996081738       -1.37693646869902
H          117.02931489966352        3.92400167016795       -2.32661829431282
H          113.29778676426240        3.44720183793228       -4.13581537246267
H          113.23327695758233        5.57545867148258       -5.38459898602264
H          114.22930469902815        7.61965048903685       -4.40616877218849
H          115.28267808535313        7.52509862222574       -2.16801166797230
H          115.33379175248687        5.40104642924380       -0.91249256782355
H          111.66596978962610        3.93305481601665       -2.09558897055953
H          109.84822886846851        2.20798164484530       -1.11097159434481
H          115.14926409119757        0.71009336093315       -0.33801078007484
H          113.57734054011689       -3.55783494868857        4.25312443984625
H          113.62706933116247       -5.70136242651237        5.47564712563636
H          114.64624802815085       -7.70194835655375        4.43291832398067
H          115.60880398198455       -7.54837984459051        2.15740745116027
H          115.54747193639326       -5.40769877723927        0.92917100563235
C          225.43729115952459        0.09002498670937       -0.00815364154175
C          224.82469699557359        1.13079884966024       -0.69411261926500
C          225.47235502745687        2.17967670976882       -1.40563683555940
C          224.50687098574258        2.99499832819847       -1.92552408337309
C          223.23785075957673        2.47662859048940       -1.53902847357794
N          223.48064900577930        1.34850775620358       -0.80762102633509
C          221.97319382871103        2.99085089887122       -1.84489760878294
C          220.76000447590033        2.41512939567578       -1.46002924490395
C          219.46164302384614        3.00650776402109       -1.73011155676631
C          218.54310857188500        2.16572514936542       -1.21116066578506
N          220.60878370515641        1.24918895492316       -0.77416572551857
C          219.28146077781292        1.06630214168371       -0.61993529749738
C          218.64858924698538       -0.03086275475089       -0.00307952085328
C          219.28727935797230       -1.11923798565913        0.61886705234374
C          218.64773004786267       -2.23542398223748        1.22083747947830
C          219.61742407650814       -3.04962593986983        1.73695667731886
C          220.88027468017393       -2.45023412267483        1.47279508683499
C          222.14299931340065       -2.94059836299126        1.82138620086576
C          222.17775226295575       -4.19996890706194        2.60452034244259
C          222.80812796233727       -5.33519454465862        2.09299122000460
C          222.83803523914014       -6.51130965030357        2.82704112853355
C          222.24433364770547       -6.56762543625828        4.08074208222005
C          221.61701928704821       -5.44215589044238        4.59750781401940
C          221.58041274710197       -4.26569519639852        3.86425970415332
C          223.35715206961575       -2.33068427334399        1.48917813657117
C          224.66141708779750       -2.82539030932806        1.90192219057935
C          225.57306471904616       -1.97704080205213        1.38522568929532
C          224.82671411440910       -0.95852420414407        0.66759748436919
N          223.49573979844456       -1.19834650670884        0.75944190942497
N          220.62899819190687       -1.29232010077925        0.78529936709673
C          221.93605100061552        4.24374599279692       -2.63943697374930
C          222.50533842437432        5.41686309511325       -2.14252239841983
C          222.46776756152909        6.58513198654992       -2.88900007956601
C          221.86802865756485        6.59487557871987       -4.14096994508899
C          221.30194697765242        5.43101221951957       -4.64339668072200
C          221.33247365275216        4.26240336674316       -3.89765996744968
H          226.52256223253346        0.10593530191741       -0.00504471884151
H          226.54130481931958        2.28186278100649       -1.50465054978575
H          224.65411753345418        3.87507735996524       -2.53036087476775
H          222.75766070579451        0.75768265148932       -0.41085087929441
H          219.29820489580547        3.94465918874403       -2.23530848186568
H          217.46896280633487        2.26013441444366       -1.20997117226978
H          217.58087440629771       -2.38871810501098        1.24662398777704
H          219.47471829321506       -3.98762428774453        2.24828046131270
H          223.26086441405246       -5.29698566624439        1.10845913080550
H          223.32640779699386       -7.38863397537831        2.41750992556807
H          222.27061030303250       -7.48718440627248        4.65432094959437
H          221.15473846241935       -5.47956329641903        5.57774214179903
H          221.10230036347423       -3.38369382171277        4.27595830817172
H          224.83066126880485       -3.69683813353676        2.51376934585191
H          226.64806896553117       -2.00617287660624        1.47112372545985
H          221.34823238090024       -0.65997982148481        0.44995223371395
H          222.96202918542227        5.41505885163160       -1.15892083527125
H          222.90777933602757        7.49253054529519       -2.49024376978225
H          221.84127199610066        7.50841054397943       -4.72407523935228
H          220.83455735836495        5.43268449539651       -5.62190930809031
H          220.90019654692131        3.35127480690120       -4.29604473362130
C          120.47967762771931        0.04757810630050       -0.01265719172065
C          119.25831918873457        0.03344814144812       -0.00059333376086
C          121.83076511642510        0.05709480047271       -0.02293010025384
C          123.05225157549795        0.06094945943759       -0.03307036686872
C          133.94073072495704        0.04907563038311       -0.04979855622971
C          132.71802249673894        0.05620277042959       -0.05454833811413
C          135.28886327926443        0.04364017885558       -0.04234996447837
C          136.51160768821376        0.03610791237637       -0.03716245321049
C          147.39582564244216        0.00849838059193       -0.01462593570091
C          146.17298234483400        0.01150474434638       -0.01189935931250
C          148.74376756526220        0.00966603108005       -0.01602282183688
C          149.96660708955153        0.00725421310583       -0.01822719215319
C          160.84968325894511        0.01570019499503       -0.02983533875779
C          159.62685695111250        0.01731859531152       -0.02929780897672
C          162.19758870509861        0.01815782828346       -0.03175257910083
C          163.42043749494678        0.01545915673784       -0.03172664936269
C          174.30298863210675        0.01792845421175       -0.03115318754578
C          173.08009076325044        0.02057646182949       -0.03151451697828
C          175.65090454575912        0.01869731723569       -0.03186919310445
C          176.87372253336400        0.01690244823327       -0.03508915668430
C          187.75653734618544        0.02129014994996       -0.03594655423278
C          186.53369363011680        0.02378140341646       -0.03635922782213
C          189.10448625257715        0.02253517693921       -0.03681556938045
C          190.32733487335901        0.01771983490737       -0.03642415349196
C          201.21151168831707        0.00033409344855       -0.04713250636906
C          199.98871775378231        0.00504384553765       -0.04615035242808
C          202.55961614888972       -0.00414770641647       -0.04777286828434
C          203.78237712571124       -0.01057229500002       -0.04803062630922
C          214.66842417834073       -0.07142477211651       -0.00617658100453
C          213.44660825284845       -0.06641950309888       -0.00832856296554
C          216.01927831561341       -0.06618571212436       -0.00409091414500
C          217.24073906829810       -0.04998795038114        0.00061085183437
C          124.45988982165598        0.06416499465376       -0.04230193751950
C          125.08473656712236        1.23724397105845        0.42013501706345
C          124.43428776891717        2.39479913931169        0.92112088556498
C          125.39779094957485        3.30159693682495        1.26908385993087
C          126.66555774684494        2.72650588588718        0.98143321179421
N          126.42551499037376        1.47646223808511        0.47686219626861
C          127.92466001412926        3.30267548544575        1.18893885908220
C          129.14952132090411        2.68616050915881        0.93053768249930
C          130.43546032909623        3.33728111109354        1.10477538312529
C          131.37304631668312        2.43116077327999        0.75809934430389
N          129.32706607880237        1.41709029767341        0.46875745815638
C          130.65811447614820        1.23313832471864        0.36437716645164
C          131.31386367918807        0.05917099575565       -0.05924264183176
C          130.68786355876728       -1.12562697828004       -0.49284170581328
C          131.33822015601510       -2.31866772990862       -0.90143530000255
C          130.37444766439609       -3.22385554728564       -1.25321497774860
C          129.10679696140005       -2.60557727055131       -1.07616942980268
C          127.84803764029606       -3.17242965849192       -1.30732709260466
C          127.83598126795697       -4.55566007563344       -1.84644721516574
C          128.39902625918876       -4.83314324539984       -3.09278268896836
C          128.38447137357664       -6.12514495463212       -3.59658071383076
C          127.81431849427589       -7.15497968832754       -2.86070059786053
C          127.25546987606776       -6.88734328393198       -1.61836836119775
C          127.26303330236284       -5.59575955825623       -1.11357738391631
C          126.62263647718009       -2.54588292314412       -1.07420730688739
C          125.33598750387526       -3.14957552907798       -1.37191382343351
C          124.39848397813336       -2.24843989421281       -1.01303503912642
C          125.11367162164622       -1.09285458991675       -0.50808401054488
N          126.44605116766557       -1.29663968083533       -0.56336649474991
N          129.34744705995612       -1.34128739718978       -0.60778735923186
C          127.93830338784393        4.68424869007308        1.73225324095786
C          127.36767393986077        5.73504947231087        1.01299199883315
C          127.38414038177706        7.02435227264174        1.52377741824759
C          127.96412860936927        7.27870059624912        2.75911863628216
C          128.53125542291320        6.23791614858452        3.48195424546533
C          128.52150844530846        4.94833979369014        2.97226947481937
H          123.36563841603527        2.50771223620712        1.00753411831634
H          125.24606061335781        4.27922335675397        1.69661895175689
H          127.14809432892888        0.82139541645896        0.19747763290091
H          130.57903404613103        4.35364935826259        1.43394321977324
H          132.44579803423116        2.54044338324072        0.75249480521344
H          132.40692358708887       -2.45963047691362       -0.91635946864663
H          130.52587683210612       -4.23433414932040       -1.59608586060945
H          128.83324168003747       -4.02769355287450       -3.67474473048607
H          128.81938799422034       -6.32812971708712       -4.56897842425891
H          127.80538499025666       -8.16478923590567       -3.25500368873060
H          126.81172834029773       -7.68887710898723       -1.03829677124432
H          126.83675749661026       -5.39026705730410       -0.13801462675835
H          125.19198434603358       -4.12464691404808       -1.80827590813354
H          123.32545853545784       -2.32909695876245       -1.08191583659313
H          128.62520670913986       -0.66832735611971       -0.37374944315213
H          126.92609294346121        5.54089909383949        0.04176977659007
H          126.94298391382161        7.83436433871307        0.95353144866908
H          127.97440407502376        8.28675134014194        3.15787818174488
H          128.98305640709407        6.43078267997186        4.44868286561116
H          128.95434074815188        4.13435946716450        3.54304700693665
C          137.91561880813455        0.03192210838883       -0.03036764529043
C          138.54146869995174        1.18376832939541        0.48538331383182
C          137.89089403336661        2.32304841943615        1.02511706545225
C          138.85461171671938        3.21773614065505        1.40393304377832
C          140.12191836499505        2.65295321727502        1.09654145473642
N          139.88181193810001        1.41936712788285        0.55237824526168
C          141.38118153705966        3.22542035868122        1.31411445699630
C          142.60557802613553        2.61800055165805        1.03354350452785
C          143.89118356692978        3.26803547464440        1.21315371251341
C          144.82839412576030        2.37112072699621        0.84219416463435
N          142.78274352994043        1.35901606587934        0.54433568512429
C          144.11348038987899        1.17945047327810        0.42987475272575
C          144.76915753457553        0.01240719620357       -0.01292492040878
C          144.14317573471817       -1.16786087202812       -0.45964711584331
C          144.79332178797861       -2.35909441832507       -0.87299169456382
C          143.82957064045596       -3.25905800158578       -1.23895335055642
C          142.56272222930261       -2.63804644153030       -1.06838670271727
C          141.30365565487091       -3.19471473030776       -1.32406915829747
C          141.28984154315373       -4.57288521491612       -1.87552925812557
C          141.87574309217186       -4.84770936860046       -3.11184200847173
C          141.85928995550753       -6.13631462955866       -3.62429187326562
C          141.26426904203018       -7.16537130073390       -2.90725419638469
C          140.68193774784729       -6.90031977422923       -1.67518947193465
C          140.69136553593933       -5.61215543933649       -1.16193284337849
C          140.07936188566842       -2.56237015032652       -1.10406554936411
C          138.79437264695750       -3.14785547523305       -1.44100527653008
C          137.85710266137312       -2.24688387679483       -1.08007871654397
C          138.57138656519862       -1.11109095432272       -0.53155895730783
N          139.90199633878217       -1.32273407096101       -0.56802374160611
N          142.80312053000137       -1.37891682187329       -0.58622816779777
C          141.39511677867080        4.59309757994093        1.89101124758702
C          140.81533167143354        5.65916412190153        1.20206754017044
C          140.83235016762995        6.93581726117021        1.74357568080457
C          141.42192954597601        7.16212541302716        2.97983054946244
C          141.99815753008528        6.10602045016447        3.67261591778742
C          141.98806619974124        4.82907757011687        3.13207227840059
H          136.82224566339281        2.43363878142782        1.11429538917161
H          138.70270112066285        4.18048007469201        1.86390145707690
H          140.60422709396340        0.77419026593057        0.25045821736822
H          144.03473899019005        4.27786368772275        1.56187531882901
H          145.90086035010759        2.48273457699193        0.83243512351675
H          145.86168100293392       -2.50316046737721       -0.88049386657187
H          143.98107743968941       -4.26737129193249       -1.58808002474802
H          142.32923316187404       -4.04282850913245       -3.67969318704568
H          142.31233724360612       -6.33728830108741       -4.58878691123695
H          141.25413104698120       -8.17253250130348       -3.30824691019234
H          140.21839252983591       -7.70115909589185       -1.10982723160777
H          140.24653574665291       -5.40862408688604       -0.19426936172550
H          138.65136136639987       -4.11093912906349       -1.90358407648868
H          136.78499544068913       -2.31674000056440       -1.17203349200347
H          142.08090574672016       -0.70600325917265       -0.35196083805283
H          140.36633019071414        5.48709710752241        0.23009547405782
H          140.38412733546724        7.75793267187302        1.19666336222806
H          141.43260396993412        8.16030617508277        3.40266809362754
H          142.45747090483323        6.27698113313381        4.63991060638168
H          142.42805876465195        4.00293739280251        3.67940895232139
C          151.37043822136189        0.00963289573179       -0.01966214098854
C          151.99415438875965        1.16475551695677        0.49145006049869
C          151.34156220964218        2.30218396530908        1.03264975005139
C          152.30336055572440        3.20257457041925        1.40275631520040
C          153.57136802901235        2.64301838776234        1.08882243242102
N          153.33371977537001        1.40685118072502        0.54943083876729
C          154.82920031255202        3.22190345858839        1.29754169835837
C          156.05472997305878        2.61815934312338        1.01397919040831
C          157.33882498933275        3.27285047516916        1.18713653428286
C          158.27772047529925        2.37709997958843        0.81754557415359
N          156.23430317321862        1.35786794947738        0.52898803136968
C          157.56523111159674        1.18191589084444        0.41130208712117
C          158.22307482393234        0.01537170901911       -0.02961817154063
C          157.59952085768822       -1.16700344572026       -0.47424731450037
C          158.25237095307460       -2.35640007465461       -0.88857351537140
C          157.29060406560222       -3.25882995186640       -1.25372873592190
C          156.02232083060679       -2.64146027548023       -1.08095998667774
C          154.76441395089626       -3.20199406035889       -1.33424937441019
C          154.75386521799260       -4.57911008046367       -1.88828184283246
C          155.33837509413223       -4.84947652805472       -3.12625446481446
C          155.32507704125337       -6.13703070212312       -3.64140533388126
C          154.73463043092380       -7.16947707371583       -2.92545718429794
C          154.15375273547201       -6.90887889705027       -1.69175658674362
C          154.16005739888845       -5.62179034769588       -1.17576596160015
C          153.53876670052810       -2.57439730363033       -1.10881470175412
C          152.25441330616704       -3.16403507182093       -1.44082128407421
C          151.31548290009559       -2.26764561524886       -1.07286292480288
C          152.02817521306932       -1.13008690664349       -0.52594661762869
N          153.35927976012536       -1.33635127761736       -0.56958711217740
N          156.25986361618934       -1.38182333631022       -0.59879562027961
C          154.83967074535678        4.59207067346496        1.86851720257168
C          154.25108551131888        5.65213066000122        1.17773252887854
C          154.26418497728318        6.93123350451707        1.71351401736680
C          154.85855731369597        7.16598805576606        2.94589685297109
C          155.44357928942122        6.11591029850564        3.64046310133261
C          155.43743174267124        4.83654032734838        3.10560251917916
H          150.27298718751825        2.40783233985210        1.12840713648920
H          152.14981733333789        4.16584884013433        1.86107348775950
H          154.05728656355191        0.76442028388326        0.24443873628721
H          157.48033239108400        4.28452010496376        1.53133010870964
H          159.34982061426155        2.49185591855990        0.80439687578421
H          159.32110817461415       -2.49752204011068       -0.89761352490692
H          157.44434599704999       -4.26660833305202       -1.60341034101416
H          155.78825804666340       -4.04194469890373       -3.69321444636081
H          155.77699559850225       -6.33452276995144       -4.60714715137361
H          154.72695509479996       -8.17581937098027       -3.32855389661496
H          153.69382323828472       -7.71238598029307       -1.12723091039922
H          153.71651382948187       -5.42175967408849       -0.20678224134001
H          152.11274735748751       -4.12661381923819       -1.90486586685405
H          150.24320094659970       -2.34154937684707       -1.15947333187609
H          155.53614792357027       -0.71100126068211       -0.36316361942314
H          153.79818257630600        5.47344179445168        0.20876678147685
H          153.80904041354552        7.74860402667180        1.16521125958871
H          154.86602210416009        8.16603713609493        3.36436280540458
H          155.90657984517256        6.29345792431510        4.60481021678754
H          155.88417786790149        4.01508293264859        3.65450576403707
C          164.82423817743219        0.01715959769550       -0.03114380728852
C          165.44772970609759        1.17169721835603        0.48153972297038
C          164.79491420824081        2.30894114002383        1.02285257646244
C          165.75662988789304        3.20833858350518        1.39558654575705
C          167.02481185068436        2.64844266696232        1.08293787177336
N          166.78730997114783        1.41300670365824        0.54178110944100
C          168.28268332851007        3.22643272228903        1.29370743769539
C          169.50816265000671        2.62232340181011        1.01067185025206
C          170.79233202978082        3.27662471296108        1.18460816982830
C          171.73116641576107        2.38072331581695        0.81520455258741
N          169.68760591755839        1.36209267722050        0.52552255853173
C          171.01855550823896        1.18581062909531        0.40839835449699
C          171.67630473987899        0.01902862754786       -0.03195479359257
C          171.05278687154365       -1.16319671875500       -0.47703810526450
C          171.70569963756463       -2.35277701182616       -0.89072056777478
C          170.74402737790848       -3.25498855978265       -1.25667298861033
C          169.47577357411905       -2.63727550927443       -1.08508136264784
C          168.21788043937156       -3.19727668617476       -1.33974050526349
C          168.20722361465684       -4.57452027475567       -1.89340958911548
C          168.79345804168807       -4.84552549182048       -3.13042848479505
C          168.78001216345083       -6.13314017709989       -3.64540610144089
C          168.18764767464182       -7.16503229711976       -2.93024329566918
C          167.60503180519564       -6.90380717921244       -1.69749658755516
C          167.61151563049214       -5.61664753314776       -1.18166763966038
C          166.99237537597608       -2.56877062221133       -1.11624776981759
C          165.70809459633821       -3.15756392970408       -1.45000058798973
C          164.76929868610608       -2.26017193107568       -1.08417341150688
C          165.48201687306289       -1.12300691528237       -0.53639777718888
N          166.81299165399730       -1.33034691182133       -0.57777712983405
N          169.71318510856449       -1.37772814056821       -0.60266123134978
C          168.29339779345975        4.59601680606950        1.86606882463597
C          167.70624542109846        5.65711747493727        1.17565625249003
C          167.71975490405049        6.93573004093491        1.71257447731290
C          168.31305589895422        7.16894536028044        2.94576988719367
C          168.89655471094449        6.11781455425302        3.64001635543327
C          168.89006499683268        4.83892779757344        3.10398540432319
H          163.72624692960645        2.41508777334931        1.11705873495619
H          165.60291575315793        4.17111557995405        1.85491040689421
H          167.51104322262515        0.77048084436197        0.23738014466861
H          170.93386598562074        4.28821952898204        1.52899984378198
H          172.80329118751965        2.49525845255442        0.80238482974423
H          172.77441070591087       -2.49412991310331       -0.89897312825571
H          170.89785271440959       -4.26278148785417       -1.60626051427233
H          169.24477858589765       -4.03840435900838       -3.69682780345791
H          169.23331486873934       -6.33110304103842       -4.61040089386638
H          168.17985078797804       -8.17142823839476       -3.33320042518329
H          167.14359560736716       -7.70688546057707       -1.13358757075371
H          167.16660344394742       -5.41617775834145       -0.21340195478551
H          165.56641072980369       -4.12027916701882       -1.91376355623607
H          163.69711151517950       -2.33322112623468       -1.17259554738949
H          168.98942455246777       -0.70673200998615       -0.36765165327864
H          167.25417545143330        5.47957201396166        0.20609299977251
H          167.26577645293020        7.75392539093874        1.16453659503792
H          168.32087948106943        8.16862671380144        3.36510987135185
H          169.35869146605981        6.29416998920173        4.60499500605720
H          169.33573878891278        4.01667782224902        3.65257528876777
C          178.27750633556917        0.01909544480184       -0.03595139475096
C          178.90090895846407        1.17406357414567        0.47583560805592
C          178.24787802139485        2.31178135774860        1.01594761468600
C          179.20942057438498        3.21177852449364        1.38760050995644
C          180.47773628027358        2.65166482092678        1.07583810892745
N          180.24044423543532        1.41560465502881        0.53597201516341
C          181.73549375618359        3.22980395873947        1.28670034943976
C          182.96117233710609        2.62557569647655        1.00453206960307
C          184.24525447270784        3.27983986328606        1.17920624625809
C          185.18429340615708        2.38394805008921        0.81029162457196
N          183.14088267029024        1.36533254269858        0.51953846975032
C          184.47192416477191        1.18909285768057        0.40293626747935
C          185.12987071866493        0.02243145756729       -0.03742231376883