197
 energy: -389.490055406237 gnorm: 0.489718556520 xtb: 6.5.1 (b24c23e)
Fe          29.21288400000000       -0.04818100000000       -0.01908700000000
C           25.87974500000000        0.10283100000000        0.08732200000000
C           26.54655700000000        1.25977700000000        0.06592300000000
C           25.89818500000000        2.56539500000000        0.06471800000000
C           26.84182600000000        3.48746500000000        0.05675700000000
C           28.14697300000000        2.81241600000000        0.05468900000000
N           27.96699100000000        1.39619000000000        0.05972500000000
C           29.34092300000000        3.43730700000000        0.08460600000000
C           29.37844700000000        4.91601000000000        0.09212100000000
C           29.16910800000000        5.63128500000000       -1.09485300000000
C           29.19076200000000        7.02962400000000       -1.09191500000000
O           28.97648500000000        7.71080200000000       -2.29030300000000
C           29.42382600000000        7.72528300000000        0.10823600000000
O           29.43945400000000        9.12081600000000        0.10417100000000
C           29.63760100000000        7.00927000000000        1.30032800000000
O           29.87044700000000        7.69196800000000        2.49296900000000
C           29.61512500000000        5.60803900000000        1.28693500000000
C           30.63913000000000        2.71320200000000        0.12296200000000
C           31.93840400000000        3.38272800000000        0.25438600000000
C           32.87272900000000        2.45555800000000        0.23973100000000
N           30.77375400000000        1.42542800000000        0.02237700000000
C           32.17962500000000        1.18165700000000        0.08820300000000
C           32.77483400000000       -0.01905200000000       -0.02019300000000
C           32.02187400000000       -1.28458300000000       -0.20034400000000
C           32.58716400000000       -2.44652400000000       -0.50547200000000
C           31.53966800000000       -3.44558400000000       -0.53566900000000
C           30.39797800000000       -2.83141700000000       -0.24961300000000
N           30.61172900000000       -1.43469900000000       -0.02332400000000
C           29.08886800000000       -3.52513100000000       -0.13114400000000
C           29.07005200000000       -5.00391200000000       -0.14975000000000
C           29.21668200000000       -5.72191500000000        1.04365800000000
C           29.19539700000000       -7.12037700000000        1.03480100000000
O           29.33712600000000       -7.80566100000000        2.24153200000000
C           29.03207100000000       -7.81234300000000       -0.17918400000000
O           29.01524000000000       -9.20777700000000       -0.18020000000000
C           28.89016700000000       -7.09256200000000       -1.37972800000000
O           28.73272700000000       -7.77196600000000       -2.58693800000000
C           28.90833900000000       -5.69125000000000       -1.35971400000000
C           27.92619400000000       -2.85995600000000       -0.00905000000000
C           26.60226400000000       -3.46812700000000        0.10966600000000
C           25.74325300000000       -2.46948400000000        0.16140100000000
C           26.50936300000000       -1.22685300000000        0.08140700000000
N           27.78409700000000       -1.44160500000000       -0.01903700000000
H           24.79686100000000        0.13561600000000        0.11194200000000
H           24.83355900000000        2.76115500000000        0.07383200000000
H           26.65814600000000        4.55411500000000        0.06331500000000
H           28.98537600000000        5.10096300000000       -2.02154400000000
H           28.98145900000000        8.72224200000000       -2.34327800000000
H           29.58982800000000        9.66107100000000        0.94717700000000
H           30.02676000000000        7.19964300000000        3.36489000000000
H           29.77785099999999        5.05744000000000        2.20559500000000
H           32.12197000000000        4.44528800000000        0.34429900000000
H           33.93651700000000        2.63873500000000        0.31448700000000
H           33.63681600000000       -2.63143300000000       -0.68744500000000
H           31.67456100000000       -4.50035000000000       -0.73861300000000
H           29.34385700000000       -5.19416000000000        1.98110700000000
H           29.31881000000000       -8.81672700000000        2.29190000000000
H           28.90134700000000       -9.74589400000000       -1.03062700000000
H           28.63288800000000       -7.27766600000000       -3.46635500000000
H           28.79800000000000       -5.13776700000000       -2.28475900000000
H           26.35037200000000       -4.52028600000000        0.14415900000000
H           24.66825500000000       -2.56728700000000        0.24484600000000
Fe          64.23541700000000        0.00976400000000       -0.01579300000000
C           67.56855600000000       -0.15233600000000        0.07281400000000
C           66.90174399999999       -1.29940000000000       -0.07958200000000
C           67.55011500000001       -2.59646800000000       -0.22876500000000
C           66.60647500000000       -3.51169400000000       -0.34118700000000
C           65.30132800000000       -2.84076000000000       -0.26672800000000
N           65.48130999999999       -1.43423200000000       -0.10120200000000
C           64.10737800000000       -3.46501500000000       -0.30783200000000
C           64.06985400000001       -4.93504100000000       -0.46797000000000
C           64.27919300000001       -5.51116800000000       -1.72836800000000
C           64.25753899999999       -6.90082900000000       -1.88394500000000
O           64.47181600000000       -7.44178500000000       -3.15181800000000
C           64.02447500000000       -7.72803600000000       -0.77037700000000
O           64.00884600000001       -9.11411500000000       -0.93259400000000
C           63.81070000000000       -7.15175500000000        0.49518900000000
O           63.57785399999999       -7.96523400000000        1.60276400000000
C           63.83317599999999       -5.75803700000000        0.64070600000000
C           62.80917000000000       -2.74992400000000       -0.18765000000000
C           61.50989700000000       -3.43003100000000       -0.13296000000000
C           60.57557100000000       -2.50717600000000       -0.04243000000000
N           62.67454700000000       -1.45904800000000       -0.14162300000000
C           61.26867599999999       -1.22430900000000       -0.04859000000000
C           60.67346700000000       -0.01905200000000       -0.02019300000000
C           61.42642600000000        1.25874300000000       -0.05574100000000
C           60.86113700000000        2.44778100000000       -0.22720100000000
C           61.90863300000000        3.44382600000000       -0.14396500000000
C           63.05032300000000        2.80119300000000        0.07063500000000
N           62.83657199999999        1.38782800000000        0.13715400000000
C           64.35943300000000        3.47700900000000        0.26697000000000
C           64.37824900000000        4.94836900000000        0.41609700000000
C           64.23161899999999        5.52647700000000        1.68319700000000
C           64.25290300000000        6.91693100000000        1.83290600000000
O           64.11117500000000        7.46102100000000        3.10953400000000
C           64.41623000000000        7.74203700000000        0.70517600000000
O           64.43306100000000        9.12859400000000        0.86233200000000
C           64.55813400000000        7.16297100000000       -0.56921600000000
O           64.71557400000000        7.97482800000000       -1.69163800000000
C           64.53996200000000        5.76842100000000       -0.70816400000000
C           65.52210700000001        2.80228200000000        0.31288200000000
C           66.84603700000000        3.39307700000000        0.49976600000000
C           67.70504800000001        2.39500600000000        0.43797600000000
C           66.93893700000000        1.16945000000000        0.21765200000000
N           65.66420400000000        1.39420300000000        0.14219600000000
H           68.65143999999998       -0.18769900000000        0.09356000000000
H           68.61474199999999       -2.79199900000000       -0.24189800000000
H           66.79015500000000       -4.57221300000000       -0.45557100000000
H           64.46292500000000       -4.87922700000000       -2.58897800000000
H           64.46684200000000       -8.44070200000000       -3.31909400000000
H           63.85847299999999       -9.74643900000000       -0.15625600000000
H           63.42154100000000       -7.57491000000000        2.52486900000000
H           63.67045000000000       -5.31511200000000        1.61585300000000
H           61.32633100000000       -4.49593500000000       -0.16406300000000
H           59.51178300000000       -2.69764500000000        0.01108100000000
H           59.81148499999999        2.65212400000000       -0.38704300000000
H           61.77374000000000        4.51479700000000       -0.22604800000000
H           64.10444400000000        4.89586700000000        2.55478600000000
H           64.12949100000000        8.45986300000000        3.27417700000000
H           64.54695400000000        9.75963600000000        0.07837900000000
H           64.81541199999999        7.58339300000000       -2.62141500000000
H           64.65030100000000        5.32335500000000       -1.68998100000000
H           67.09792899999999        4.43454600000000        0.65329500000000
H           68.78004600000000        2.48272000000000        0.53196900000000
C           39.18157500000000       -0.01794900000000       -0.01170300000000
C           37.97263600000000       -0.03140400000000       -0.02015000000000
C           36.55110700000000       -0.02258500000000       -0.03213300000000
C           35.33943699999999       -0.01514600000000       -0.02127000000000
C           40.59817900000000       -0.02462400000000       -0.01117000000000
C           41.81887500000000       -0.01514600000000       -0.02127000000000
C           55.47441400000000       -0.01794900000000       -0.01170300000000
C           54.26547400000000       -0.03140400000000       -0.02015000000000
C           52.84394600000000       -0.02258500000000       -0.03213300000000
C           51.63227600000000       -0.01514600000000       -0.02127000000000
C           56.89101800000000       -0.02462400000000       -0.01117000000000
C           58.11171400000000       -0.01514600000000       -0.02127000000000
Fe          46.68335300000000       -0.04316500000000       -0.05149500000000
C           43.27372300000000        0.04170800000000        0.04523200000000
C           43.93018900000000        1.21034500000000        0.16480300000000
C           43.28860000000000        2.50940100000000        0.37723400000000
C           44.22665900000000        3.43581300000000        0.39948400000000
C           45.52547200000000        2.78432100000000        0.20218500000000
N           45.34754000000000        1.37271200000000        0.06076600000000
C           46.71042600000000        3.42854500000000        0.15014900000000
C           46.74014600000000        4.90420800000000        0.25342100000000
C           47.20264199999999        5.51716400000000        1.42685100000000
C           47.24527700000000        6.91431900000000        1.52564100000000
O           47.69821499999999        7.52489800000000        2.69556600000000
C           46.83027200000000        7.70515500000000        0.44479800000000
O           46.88279200000000        9.09454800000000        0.56055700000000
C           46.36788700000000        7.09416300000000       -0.73629700000000
O           45.95642500000000        7.87719800000000       -1.81372900000000
C           46.32377600000000        5.69606100000000       -0.82661000000000
C           48.01148599999999        2.73010600000000       -0.00309300000000
C           49.28486399999999        3.42181700000000       -0.23815700000000
C           50.23864000000000        2.51299800000000       -0.26763700000000
N           48.17760500000000        1.44824500000000        0.10279600000000
C           49.57999500000000        1.23070300000000       -0.05573700000000
C           50.19504200000000        0.04170800000000        0.04523200000000
C           49.44609400000000       -1.21713300000000        0.24362100000000
C           49.98427300000000       -2.34870400000000        0.67999300000000
C           48.95181300000000       -3.36565900000000        0.62087200000000
C           47.85356900000000       -2.78587500000000        0.15017400000000
N           48.07525200000000       -1.40063000000000       -0.10943800000000
C           46.59487100000000       -3.50429800000000       -0.16204400000000
C           46.65679799999999       -4.96917300000000       -0.38498100000000
C           47.39157400000000       -5.48323400000000       -1.46032800000000
C           47.46294699999999       -6.86190300000000       -1.67572500000000
O           48.19418699999999       -7.33205600000000       -2.76720500000000
C           46.80423900000000       -7.75062200000000       -0.80387700000000
O           46.89849800000000       -9.12167100000000       -1.05721000000000
C           46.07205700000000       -7.23415500000000        0.29378300000000
O           45.40031900000000       -8.05144800000000        1.20638800000000
C           46.00797100000000       -5.85022700000000        0.49123000000000
C           45.41855800000000       -2.85583000000000       -0.26564700000000
C           44.13713700000000       -3.45773300000000       -0.61934900000000
C           43.24787800000000       -2.48741500000000       -0.56135900000000
C           43.94994799999999       -1.25816600000000       -0.17639600000000
N           45.21906100000000       -1.46615500000000       -0.00395200000000
H           42.23219799999999        2.70806800000000        0.50214700000000
H           44.04179799999999        4.49175700000000        0.54741200000000
H           47.52788400000000        4.90952300000000        2.26320800000000
H           47.98897299999999        6.98044400000000        3.50376900000000
H           46.59018300000000        9.70953700000000       -0.19263400000000
H           45.59658500000000        7.46297700000000       -2.66605400000000
H           45.97005500000000        5.22609700000000       -1.73798900000000
H           49.43636100000000        4.48603800000000       -0.36377500000000
H           51.29203699999999        2.71100500000000       -0.41725500000000
H           51.00933100000000       -2.50009500000000        0.99261800000000
H           49.06910400000000       -4.41050800000000        0.87779500000000
H           47.90488100000000       -4.81066800000000       -2.13822700000000
H           48.27714399999999       -8.31969300000000       -2.97790500000000
H           46.44843900000000       -9.83517000000000       -0.50010800000000
H           45.39140100000000       -9.05992400000000        1.16370000000000
H           45.45169700000000       -5.45942400000000        1.33542300000000
H           43.92992599999999       -4.48553900000000       -0.88609800000000
H           42.19297600000000       -2.60162200000000       -0.77482200000000
197
 energy: -389.635757124297 gnorm: 0.278692301135 xtb: 6.5.1 (b24c23e)
Fe          29.23397183706126       -0.03457010905688       -0.01346503966268
C           25.88000996323386        0.08299049154793        0.08789398857807
C           26.55437828886700        1.25558465098202        0.06563777339986
C           25.90211747242416        2.55411887481100        0.06473694547292
C           26.85866193936286        3.48555410206495        0.05626668988673
C           28.15183468005857        2.80085262597855        0.05306796021609
N           27.95529743501686        1.40129383627313        0.05751619157575
C           29.36022912672881        3.43276535043453        0.08380615458519
C           29.38584891168017        4.92312214528007        0.09053997390870
C           29.16938455649035        5.64349683855486       -1.09038525016850
C           29.19158069148970        7.04455989162183       -1.08515912916577
O           28.97778120249501        7.70310012734239       -2.28047941421298
C           29.42625852112142        7.73550938608054        0.12134031638213
O           29.43785391622066        9.12028165110731        0.09653892531549
C           29.63921886598639        7.00841933753480        1.30787251359460
O           29.86840802805364        7.70014537159332        2.48497503410991
C           29.61769525775641        5.61157575832456        1.28510750693612
C           30.63299322240767        2.72593071555628        0.12295713502114
C           31.92305138602480        3.39339903339341        0.25266270742346
C           32.87091934446614        2.44671066239148        0.23945934116100
N           30.78407880532457        1.41749321773546        0.02515223945290
C           32.19334790545682        1.17163839222476        0.08728584339848
C           32.77387049358526       -0.03855466429492       -0.02465993656345
C           32.02110524976250       -1.26897051871871       -0.19205062931687
C           32.59225679382689       -2.46795492262654       -0.50773874581336
C           31.56192930435073       -3.44642512394935       -0.53569760527101
C           30.38885871543135       -2.81374835499932       -0.24042662960525
N           30.61076778003977       -1.42790993572400       -0.03364180112081
C           29.10770217430924       -3.51194136060739       -0.12926725260003
C           29.08302022200970       -5.00652353398370       -0.14987667255557
C           29.21796764043357       -5.73286246078299        1.03919369827788
C           29.19368580771977       -7.13451818018096        1.02791404029611
O           29.33540701069376       -7.79743723622219        2.23144762896879
C           29.03066498826998       -7.82187466381228       -0.19246273195084
O           29.01587030477346       -9.20679054394944       -0.17250550868594
C           28.88934738629251       -7.09020509732055       -1.38683945198313
O           28.73302429795254       -7.77910194135574       -2.57803312347803
C           28.91068021295748       -5.69239003812012       -1.35759900926508
C           27.93074430339608       -2.85171919532966       -0.00847272372911
C           26.61374857321874       -3.46199649602050        0.10851864765811
C           25.73377301813242       -2.45364750715558        0.16085369509042
C           26.49181115032830       -1.21494577428508        0.08164661488463
N           27.78818818725785       -1.44126503080157       -0.01492171554032
H           24.79723104030194        0.12476701507687        0.11236008909353
H           24.83679755766807        2.74594749969322        0.07369481077012
H           26.67871283493577        4.55260567893370        0.06246105387223
H           28.98677564662096        5.10983498605470       -2.01800236780551
H           28.98757281573494        8.69068811640751       -2.30896464345285
H           29.58782368504354        9.61855831667949        0.93572431695738
H           30.01874607042034        7.19674456498600        3.32175115662739
H           29.77787096562442        5.05907743602975        2.20403863925855
H           32.10608691303546        4.45243787747918        0.34382840898111
H           33.93481493714770        2.62143846969819        0.31330603919785
H           33.63998458121559       -2.64044850798934       -0.68914135031385
H           31.68323594916246       -4.49934017331336       -0.74069090962330
H           29.34384794428548       -5.20302558556475        1.97799358492991
H           29.31543368705514       -8.78488517174753        2.25721625234308
H           28.90344885677620       -9.70307747179288       -1.01891254092000
H           28.63837321308932       -7.27464296467838       -3.42244213985690
H           28.79862919630574       -5.13856969349432       -2.28283129054414
H           26.36903278605148       -4.51599041901898        0.14289473776061
H           24.66297805488702       -2.55394296618567        0.24514588776799
Fe          64.21423007166898       -0.00440241382763       -0.01172325039162
C           67.56828597246337       -0.13269061035750        0.07563071029890
C           66.89392403652909       -1.29520380954414       -0.07939425554623
C           67.54618612597804       -2.58527082640346       -0.22747093609414
C           66.58964191107113       -3.50973951216846       -0.34145944365102
C           65.29647184483063       -2.82906353491968       -0.26702242454677
N           65.49301694147675       -1.43907566938039       -0.10396465324988
C           64.08804086171735       -3.46039413627284       -0.30808350238063
C           64.06243355177554       -4.94191848581230       -0.47034867180207
C           64.27891180247913       -5.52380270738699       -1.72531137085151
C           64.25672113614652       -6.91642873528475       -1.87893013717937
O           64.47053344499295       -7.43524661495376       -3.14116877147659
C           64.02204058138980       -7.73967274490681       -0.75851894479793
O           64.01044275038224       -9.11273804061890       -0.94011477510101
C           63.80908409416906       -7.15176186069111        0.50277188546744
O           63.57987838783829       -7.97247264306562        1.59391224392972
C           63.83060527758179       -5.76134370141457        0.63848799774639
C           62.81530615608080       -2.76257136370980       -0.18910886957850
C           61.52523022047015       -3.44042158456421       -0.13589435446089
C           60.57735549121254       -2.49834645160288       -0.04164963867941
N           62.66427091920477       -1.45143839448018       -0.13811038157211
C           61.25495658260499       -1.21422777250572       -0.04835082645484
C           60.67499772174337        0.00102791121406       -0.02218633524220
C           61.42727441466553        1.24239707013307       -0.04929962428904
C           60.85605541188631        2.46941917458508       -0.22706318255276
C           61.88634640157529        3.44468526456862       -0.14390195265372
C           63.05944276576415        2.78260893224073        0.07774313559839
N           62.83762361966447        1.38227838692235        0.12627635118552
C           64.34059553443477        3.46370149505589        0.26733168847943
C           64.36527266129097        4.95098912754827        0.41626322849773
C           64.23033016787480        5.53786293861173        1.68000724673210
C           64.25460528826348        6.93177810432665        1.82767473699008
O           64.11294325632693        7.45397120397012        3.09856342904762
C           64.41762584935941        7.75303690134559        0.69305778215686
O           64.43249092587446        9.12668560641416        0.86985970794337
C           64.55894148880802        7.16144463448766       -0.57656034220267
O           64.71531919949626        7.98087722125845       -1.68196219801678
C           64.53761995159296        5.76931432005357       -0.70594472054275
C           65.51754847946310        2.79402128801079        0.31251799671425
C           66.83454538265065        3.38710778617707        0.49793133071319
C           67.71452123902752        2.37932999788037        0.43564154803465
C           66.95648089177161        1.15759039068661        0.21654023238179
N           65.66009845490034        1.39338408445964        0.14622573318649
H           68.65106601828271       -0.17696797865980        0.09520480143594
H           68.61150510618286       -2.77687773924910       -0.24031093385761
H           66.76958548815470       -4.57061835320549       -0.45624893633632
H           64.46152186616779       -4.88844322037510       -2.58646352019733
H           64.46072197372499       -8.41323303618553       -3.28143549437792
H           63.86048554870603       -9.70289519645897       -0.16280844333476
H           63.42956685719196       -7.56712170643793        2.48233544770342
H           63.67042878879285       -5.31656478482459        1.61412300859736
H           61.34219597504108       -4.50297094990497       -0.16534948314468
H           59.51347153287955       -2.68034120225547        0.01187666709739
H           59.80830518827351        2.66128033457948       -0.38769762097704
H           61.76505084313838        4.51403471505075       -0.22821937340644
H           64.10445080676153        4.90502825294427        2.55270063840002
H           64.13282281936222        8.43215454345408        3.23610615250364
H           64.54480323925090        9.71578154834327        0.08517996059047
H           64.80990027351044        7.57542877888380       -2.57813635410064
H           64.64967077958475        5.32392996859549       -1.68798280855615
H           67.07926104351147        4.43041307157622        0.65154989812801
H           68.78531693863606        2.46942569465868        0.53075266033755
C           39.18400841418108       -0.01813139159373       -0.01332532248844
C           37.95096979884227       -0.03126678309048       -0.02122558615140
C           36.53567989909376       -0.02296454159347       -0.03099284257016
C           35.30550216209554       -0.01839269155248       -0.02160183056437
C           40.58341740244950       -0.02051529552335       -0.00573691304165
C           41.81117785938802       -0.01382033357747       -0.01819990047536
C           55.49707182407783       -0.01889610915397       -0.01262161615531
C           54.26376484545495       -0.03152348361723       -0.02279616117425
C           52.86268542664340       -0.02242913114559       -0.02879486342729
C           51.63426911231932       -0.02617593369687       -0.01464962527356
C           56.90974352043283       -0.02339186358024       -0.01144130669071
C           58.14055857193336       -0.01378728421926       -0.02048831607284
Fe          46.68505299198400       -0.02945761266482       -0.03587993122541
C           43.25618213232239        0.02172655544461        0.02946023564847
C           43.93215347722010        1.20700050864281        0.16263765497571
C           43.28982457532222        2.49568681824948        0.37584554909578
C           44.24164401278504        3.43280060715949        0.39834681371312
C           45.52756154444906        2.77199289375201        0.20103790406721
N           45.33198792219078        1.37581837189334        0.06955454257308
C           46.72599592996256        3.42404645492738        0.14761809259273
C           46.74708445756544        4.90856782767157        0.25146361178276
C           47.20430279634881        5.52337481138368        1.42201433443752
C           47.24539807021991        6.91783908767627        1.52749240819213
O           47.69332487996297        7.52833901008034        2.68427945982789
C           46.82778244873230        7.71599458625789        0.43938424482322
O           46.88391893615216        9.09071958716645        0.56392520654053
C           46.36565833323137        7.09312901726946       -0.73938445237322
O           45.96029882169516        7.88354599197306       -1.80226495397208
C           46.32377886991303        5.69866132382480       -0.82316854458968
C           48.00225552390810        2.74620181412020       -0.00169914993639
C           49.26690610502018        3.43571137894716       -0.23333960532499
C           50.23190559306492        2.50662809390121       -0.26582186832914
N           48.18365695508465        1.44220539493588        0.08609668885610
C           49.57700436737859        1.23122453888757       -0.05863410682730
C           50.19759593604204        0.02504792063036        0.04214653962318
C           49.43552187328324       -1.20942098729792        0.23030399965571
C           49.98599979347119       -2.37042861928972        0.67939617358025
C           48.97127541898951       -3.36942236480295        0.61969264462793
C           47.84472774172690       -2.77433740551522        0.13572196947292
N           48.06577089102554       -1.39337896802451       -0.08500343857113
C           46.60942246872541       -3.49678267515007       -0.16379415085800
C           46.66795194265724       -4.97410360174010       -0.38012857997106
C           47.39442431704635       -5.49488745702326       -1.45764410687787
C           47.46101780854933       -6.87662575458384       -1.67560048414356
O           48.18896112446483       -7.32598186213777       -2.75954888690868
C           46.79989988480140       -7.76182740385033       -0.79958008575959
O           46.90331970574646       -9.12156800130570       -1.06357620303302
C           46.07287897641978       -7.24324868255153        0.29125652207959
O           45.40277036436913       -8.04367499263689        1.20251252281529
C           46.00865642737261       -5.85733026685928        0.48710860685525
C           45.42100605663079       -2.85182321116435       -0.26645864163500
C           44.14579816023031       -3.45302888130490       -0.61610515901444
C           43.23537590904059       -2.47296132658927       -0.55692702977399
C           43.93097257327338       -1.25147013993893       -0.17717996040565
N           45.22351533756508       -1.46674752595234       -0.02191422098905
H           42.23294439636371        2.68982655804894        0.49956449499747
H           44.06118666056180        4.48968896007445        0.54525229393604
H           47.52694940164040        4.91379002778148        2.25987856024617
H           47.97238259655960        6.97859686287687        3.45854750395372
H           46.59259072609874        9.66413583748897       -0.18635474965607
H           45.61389473830302        7.45629342862833       -2.62378738250850