      -----------------------------------------------------------      
     |                   =====================                   |     
     |                           x T B                           |     
     |                   =====================                   |     
     |                         S. Grimme                         |     
     |          Mulliken Center for Theoretical Chemistry        |     
     |                    University of Bonn                     |     
      -----------------------------------------------------------      

   * xtb version 6.5.1 (b24c23e) compiled by 'conda@728c89f4b128' on 2022-07-12

   xtb is free software: you can redistribute it and/or modify it under
   the terms of the GNU Lesser General Public License as published by
   the Free Software Foundation, either version 3 of the License, or
   (at your option) any later version.
   
   xtb is distributed in the hope that it will be useful,
   but WITHOUT ANY WARRANTY; without even the implied warranty of
   MERCHANTABILITY or FITNESS FOR A PARTICULAR PURPOSE.  See the
   GNU Lesser General Public License for more details.
   
   Cite this work as:
   * C. Bannwarth, E. Caldeweyher, S. Ehlert, A. Hansen, P. Pracht,
     J. Seibert, S. Spicher, S. Grimme, WIREs Comput. Mol. Sci., 2020, 11,
     e01493. DOI: 10.1002/wcms.1493
   
   for GFN2-xTB:
   * C. Bannwarth, S. Ehlert and S. Grimme., J. Chem. Theory Comput., 2019,
     15, 1652-1671. DOI: 10.1021/acs.jctc.8b01176
   for GFN1-xTB:
   * S. Grimme, C. Bannwarth, P. Shushkov, J. Chem. Theory Comput., 2017,
     13, 1989-2009. DOI: 10.1021/acs.jctc.7b00118
   for GFN0-xTB:
   * P. Pracht, E. Caldeweyher, S. Ehlert, S. Grimme, ChemRxiv, 2019, preprint.
     DOI: 10.26434/chemrxiv.8326202.v1
   for GFN-FF:
   * S. Spicher and S. Grimme, Angew. Chem. Int. Ed., 2020, 59, 15665-15673.
     DOI: 10.1002/anie.202004239
   
   for ALPB and GBSA implicit solvation:
   * S. Ehlert, M. Stahn, S. Spicher, S. Grimme, J. Chem. Theory Comput.,
     2021, 17, 4250-4261. DOI: 10.1021/acs.jctc.1c00471
   
   for DFT-D4:
   * E. Caldeweyher, C. Bannwarth and S. Grimme, J. Chem. Phys., 2017,
     147, 034112. DOI: 10.1063/1.4993215
   * E. Caldeweyher, S. Ehlert, A. Hansen, H. Neugebauer, S. Spicher,
     C. Bannwarth and S. Grimme, J. Chem. Phys., 2019, 150, 154122.
     DOI: 10.1063/1.5090222
   * E. Caldeweyher, J.-M. Mewes, S. Ehlert and S. Grimme, Phys. Chem. Chem. Phys.
     2020, 22, 8499-8512. DOI: 10.1039/D0CP00502A
   
   for sTDA-xTB:
   * S. Grimme and C. Bannwarth, J. Chem. Phys., 2016, 145, 054103.
     DOI: 10.1063/1.4959605
   
   in the mass-spec context:
   * V. Asgeirsson, C. Bauer and S. Grimme, Chem. Sci., 2017, 8, 4879.
     DOI: 10.1039/c7sc00601b
   * J. Koopman and S. Grimme, ACS Omega 2019, 4, 12, 15120-15133.
     DOI: 10.1021/acsomega.9b02011
   
   for metadynamics refer to:
   * S. Grimme, J. Chem. Theory Comput., 2019, 155, 2847-2862
     DOI: 10.1021/acs.jctc.9b00143
   
   for SPH calculations refer to:
   * S. Spicher and S. Grimme, J. Chem. Theory Comput., 2021, 17, 1701-1714
     DOI: 10.1021/acs.jctc.0c01306
   
   with help from (in alphabetical order)
   P. Atkinson, C. Bannwarth, F. Bohle, G. Brandenburg, E. Caldeweyher
   M. Checinski, S. Dohm, S. Ehlert, S. Ehrlich, I. Gerasimov, C. Hölzer
   A. Katbashev, J. Koopman, C. Lavigne, S. Lehtola, F. März, M. Müller,
   F. Musil, H. Neugebauer, J. Pisarek, C. Plett, P. Pracht, F. Pultar,
   J. Seibert, P. Shushkov, S. Spicher, M. Stahn, M. Steiner, T. Strunk,
   J. Stückrath, T. Rose, and J. Unsleber
   
 * started run on 2022/07/30 at 06:00:32.042     

           -------------------------------------------------
          |                Calculation Setup                |
           -------------------------------------------------

          program call               : xtb Cu_DHP_C6_3.xyz --gfn 1 --opt -T 48
          hostname                   : cx3-14-19.cx3.hpc.ic.ac.uk
          coordinate file            : Cu_DHP_C6_3.xyz
          omp threads                :                     1

   ID    Z sym.   atoms
    1   29 Cu     1, 59, 129
    2    6 C      2-6, 8-11, 13-17, 19-24, 26-29, 31-36, 60-64, 66-69, 71-75,
                  77-82, 84-87, 89-94, 117-128, 130-134, 136-139, 141-145,
                  147-152, 154-157, 159-164
    3    7 N      7, 12, 18, 25, 30, 37, 65, 70, 76, 83, 88, 95, 135, 140,
                  146, 153, 158, 165
    4    1 H      38-58, 96-116, 166-185
########################################################################
[WARNING] Please study the warnings concerning your input carefully
-1- prog_main_parseArguments: Unknown option '-T' provided
########################################################################

           -------------------------------------------------
          |                 G F N 1 - x T B                 |
           -------------------------------------------------

        Reference                      10.1021/acs.jctc.7b00118
      * Hamiltonian:
        H0-scaling (s, p, d)           1.850000    2.250000    2.000000
        zeta-weighting                 0.000000
      * Dispersion:
        s8                             2.400000
        a1                             0.630000
        a2                             5.000000
        s9                             0.000000
      * Repulsion:
        kExp                           1.500000
        rExp                           1.000000
      * Coulomb:
        alpha                          2.000000
        third order                    atomic
        anisotropic                    false
      * Halogen bond correction:
        rad-scale                      1.300000
        damping                        0.440000


          ...................................................
          :                      SETUP                      :
          :.................................................:
          :  # basis functions                 634          :
          :  # atomic orbitals                 631          :
          :  # shells                          373          :
          :  # electrons                       593          :
          :  # halogen bonds                     0          :
          :  max. iterations                   250          :
          :  Hamiltonian                  GFN1-xTB          :
          :  restarted?                      false          :
          :  GBSA solvation                  false          :
          :  PC potential                    false          :
          :  electronic temp.          300.0000000     K    :
          :  accuracy                    1.0000000          :
          :  -> integral cutoff          0.2500000E+02      :
          :  -> integral neglect         0.1000000E-07      :
          :  -> SCF convergence          0.1000000E-05 Eh   :
          :  -> wf. convergence          0.2000000E-04 e    :
          :  Broyden damping             0.4000000          :
          ...................................................

 iter      E             dE          RMSdq      gap      omega  full diag
   1   -323.2382199 -0.323238E+03  0.105E+01    0.05       0.0  T
   2   -312.6912695  0.105470E+02  0.695E+00    0.03       1.0  T
   3    942.9448430  0.125564E+04  0.196E+01    0.01       1.0  T
   4    114.8222461 -0.828123E+03  0.121E+01    0.03       1.0  T
   5   -309.0382194 -0.423860E+03  0.443E+00    0.16       1.0  T
   6   -311.1097161 -0.207150E+01  0.324E+00    0.19       1.0  T
   7   -314.2760597 -0.316634E+01  0.271E+00    0.16       1.0  T
   8   -319.4882557 -0.521220E+01  0.214E+00    0.09       1.0  T
   9   -319.3251270  0.163129E+00  0.190E+00    0.03       1.0  T
  10   -317.9688360  0.135629E+01  0.173E+00    0.05       1.0  T
  11   -320.5292879 -0.256045E+01  0.162E+00    0.10       1.0  T
  12   -320.6900792 -0.160791E+00  0.138E+00    0.09       1.0  T
  13   -321.6765002 -0.986421E+00  0.134E+00    0.09       1.0  T
  14   -322.2128452 -0.536345E+00  0.123E+00    0.21       1.0  T
  15   -322.0780173  0.134828E+00  0.122E+00    0.16       1.0  T
  16   -323.1144307 -0.103641E+01  0.958E-01    0.06       1.0  T
  17   -323.3389539 -0.224523E+00  0.825E-01    0.24       1.0  T
  18   -323.5105430 -0.171589E+00  0.824E-01    0.05       1.0  T
  19   -323.6245076 -0.113965E+00  0.852E-01    0.10       1.0  T
  20   -323.6705164 -0.460088E-01  0.759E-01    0.04       1.0  T
  21   -323.6205714  0.499450E-01  0.841E-01    0.08       1.0  T
  22   -323.6322266 -0.116552E-01  0.818E-01    0.07       1.0  T
  23   -323.6174597  0.147669E-01  0.653E-01    0.06       1.0  T
  24   -323.6847519 -0.672922E-01  0.540E-01    0.10       1.0  T
  25   -323.7265789 -0.418270E-01  0.398E-01    0.05       1.0  T
  26   -323.6529909  0.735881E-01  0.513E-01    0.05       1.0  T
  27   -323.7726302 -0.119639E+00  0.215E-01    0.03       1.0  T
  28   -323.7864003 -0.137701E-01  0.122E-01    0.01       1.0  T
  29   -323.7740539  0.123464E-01  0.205E-01    0.02       1.0  T
  30   -323.7937169 -0.196630E-01  0.584E-02    0.00       1.0  T
  31   -323.7910920  0.262490E-02  0.887E-02    0.02       1.0  T
  32   -323.7922431 -0.115110E-02  0.848E-02    0.01       1.0  T
  33   -323.7951733 -0.293021E-02  0.276E-02    0.00       1.0  T
  34   -323.7949100  0.263272E-03  0.401E-02    0.00       1.0  T
  35   -323.7953394 -0.429380E-03  0.233E-02    0.00       1.0  T
  36   -323.7953474 -0.795594E-05  0.246E-02    0.00       1.0  T
  37   -323.7952390  0.108406E-03  0.299E-02    0.00       1.0  T
  38   -323.7954679 -0.228882E-03  0.156E-02    0.00       1.0  T
  39   -323.7954806 -0.127566E-04  0.134E-02    0.00       1.0  T
  40   -323.7955038 -0.231425E-04  0.976E-03    0.00       1.0  T
  41   -323.7955163 -0.124971E-04  0.266E-03    0.00       2.8  T
  42   -323.7955232 -0.698842E-05  0.261E-03    0.00       2.8  T
  43   -323.7955220  0.125721E-05  0.326E-03    0.00       2.3  T
  44   -323.7955246 -0.258704E-05  0.102E-03    0.00       7.2  T
  45   -323.7955245  0.114043E-06  0.900E-04    0.00       8.2  T
  46   -323.7955246 -0.125044E-06  0.412E-04    0.00      17.9  T
  47   -323.7955247 -0.132988E-06  0.190E-04    0.00      38.7  T
  48   -323.7955247 -0.111805E-08  0.180E-04    0.00      40.8  T

   *** convergence criteria satisfied after 48 iterations ***

         #    Occupation            Energy/Eh            Energy/eV
      -------------------------------------------------------------
         1        2.0000           -0.7711006             -20.9827
       ...           ...                  ...                  ...
       291        2.0000           -0.3684591             -10.0263
       292        2.0000           -0.3655464              -9.9470
       293        2.0000           -0.3634753              -9.8907
       294        2.0000           -0.3573220              -9.7232
       295        1.9999           -0.3559732              -9.6865
       296        1.2215           -0.3465106              -9.4290
       297        0.9090           -0.3458307              -9.4105 (HOMO)
       298        0.8690           -0.3457435              -9.4082 (LUMO)
       299        0.0006           -0.3381223              -9.2008
       300                         -0.3266363              -8.8882
       301                         -0.3247780              -8.8377
       302                         -0.3195800              -8.6962
       ...                                ...                  ...
       631                          1.5084911              41.0481
      -------------------------------------------------------------
                  HL-Gap            0.0000872 Eh            0.0024 eV
             Fermi-level           -0.3460270 Eh           -9.4159 eV

 SCC (total)                   0 d,  0 h,  0 min,  9.053 sec
 SCC setup                      ...        0 min,  0.014 sec (  0.156%)
 Dispersion                     ...        0 min,  0.012 sec (  0.128%)
 classical contributions        ...        0 min,  0.003 sec (  0.038%)
 integral evaluation            ...        0 min,  0.350 sec (  3.864%)
 iterations                     ...        0 min,  7.825 sec ( 86.435%)
 molecular gradient             ...        0 min,  0.808 sec (  8.929%)
 printout                       ...        0 min,  0.041 sec (  0.449%)

         :::::::::::::::::::::::::::::::::::::::::::::::::::::
         ::                     SUMMARY                     ::
         :::::::::::::::::::::::::::::::::::::::::::::::::::::
         :: total energy            -318.865411566940 Eh    ::
         :: gradient norm              0.615107585694 Eh/a0 ::
         :: HOMO-LUMO gap              0.002372424894 eV    ::
         ::.................................................::
         :: SCC energy              -323.795524718272 Eh    ::
         :: -> electrostatic           0.274925899548 Eh    ::
         :: repulsion energy           5.092865874384 Eh    ::
         :: dispersion energy         -0.162752723051 Eh    ::
         :: halogen bond corr.         0.000000000000 Eh    ::
         :: add. restraining           0.000000000000 Eh    ::
         :: total charge              -0.000000000525 e     ::
         :::::::::::::::::::::::::::::::::::::::::::::::::::::

      ----------------------------------------------------------- 
     |                   =====================                   |
     |                        A N C O P T                        |
     |                   =====================                   |
     |               Approximate Normal Coordinate               |
     |                Rational Function Optimizer                |
      ----------------------------------------------------------- 

          ...................................................
          :                      SETUP                      :
          :.................................................:
          :   optimization level            normal          :
          :   max. optcycles                   555          :
          :   ANC micro-cycles                  20          :
          :   degrees of freedom               549          :
          :.................................................:
          :   RF solver                   davidson          :
          :   write xtbopt.log                true          :
          :   linear?                        false          :
          :   energy convergence         0.5000000E-05 Eh   :
          :   grad. convergence          0.1000000E-02 Eh/α :
          :   maximium RF displ.         1.0000000          :
          :   Hlow (freq-cutoff)         0.1000000E-01      :
          :   Hmax (freq-cutoff)         5.0000000          :
          :   S6 in model hess.         20.0000000          :
          ...................................................

generating ANC from model Hessian ...
Using Lindh-Hessian (1995)
 Shifting diagonal of input Hessian by    1.0017336856073833E-002
 Lowest  eigenvalues of input Hessian
    0.010000    0.010003    0.010006    0.010009    0.010011    0.010012
    0.000000    0.000000    0.000000    0.000000    0.000000    0.000000
    0.010032    0.010035    0.010057    0.010083    0.010176    0.010180
 Highest eigenvalues
    2.122323    2.164596    2.415742    2.461370    2.791872    2.804180


........................................................................
.............................. CYCLE    1 ..............................
........................................................................
   1   -323.7955247 -0.323796E+03  0.100E-04    0.00       0.0  T
   2   -323.7955206  0.409725E-05  0.275E-03    0.00       2.7  T
   3   -323.7955247 -0.408305E-05  0.173E-04    0.00      42.4  T
   4   -323.7955245  0.231864E-06  0.593E-04    0.00      12.4  T
   5   -323.7955247 -0.223133E-06  0.198E-04    0.00      37.2  T
   6   -323.7955247 -0.236463E-07  0.821E-05    0.00      89.5  T
     SCC iter.                  ...        0 min,  0.995 sec
     gradient                   ...        0 min,  0.808 sec
 * total energy  :  -318.8654116 Eh     change       -0.1299935E-07 Eh
   gradient norm :     0.6151067 Eh/α   predicted     0.0000000E+00 (-100.00%)
   displ. norm   :     0.5600158 α      lambda       -0.2614328E+00
   maximum displ.:     0.1020555 α      in ANC's #188, #102, #202, ...

........................................................................
.............................. CYCLE    2 ..............................
........................................................................
   1   -323.8904776 -0.323890E+03  0.191E-01    0.01       0.0  T
   2   -323.6622805  0.228197E+00  0.616E-01    0.04       1.0  T
   3   -323.7654945 -0.103214E+00  0.504E-01    0.25       1.0  T
   4   -323.8034468 -0.379523E-01  0.397E-01    0.11       1.0  T
   5   -323.7724614  0.309854E-01  0.463E-01    0.09       1.0  T
   6   -323.8974442 -0.124983E+00  0.922E-02    0.01       1.0  T
   7   -323.8983687 -0.924463E-03  0.890E-02    0.02       1.0  T
   8   -323.9023428 -0.397408E-02  0.263E-02    0.00       1.0  T
   9   -323.9025178 -0.175081E-03  0.183E-02    0.00       1.0  T
  10   -323.9025602 -0.423179E-04  0.148E-02    0.00       1.0  T
  11   -323.9026349 -0.747046E-04  0.838E-03    0.00       1.0  T
  12   -323.9026757 -0.408698E-04  0.216E-03    0.00       3.4  T
  13   -323.9026786 -0.282242E-05  0.908E-04    0.00       8.1  T
  14   -323.9026787 -0.139882E-06  0.718E-04    0.00      10.2  T
  15   -323.9026787  0.368920E-07  0.677E-04    0.00      10.9  T
  16   -323.9026789 -0.250596E-06  0.231E-04    0.00      31.9  T
  17   -323.9026789 -0.130080E-07  0.148E-04    0.00      49.6  T
  18   -323.9026789 -0.930845E-08  0.629E-05    0.00     116.9  T
     SCC iter.                  ...        0 min,  2.952 sec
     gradient                   ...        0 min,  0.809 sec
 * total energy  :  -319.0814943 Eh     change       -0.2160827E+00 Eh
   gradient norm :     0.3748076 Eh/α   predicted    -0.1718222E+00 ( -20.48%)
   displ. norm   :     0.6785501 α      lambda       -0.2124998E+00
   maximum displ.:     0.1318819 α      in ANC's #188, #102, #393, ...

........................................................................
.............................. CYCLE    3 ..............................
........................................................................
   1   -324.0541926 -0.324054E+03  0.229E-01    0.01       0.0  T
   2   -323.8885986  0.165594E+00  0.487E-01    0.02       1.0  T
   3   -323.5130594  0.375539E+00  0.865E-01    0.22       1.0  T
   4   -323.9053431 -0.392284E+00  0.516E-01    0.11       1.0  T
   5   -323.9672656 -0.619225E-01  0.420E-01    0.06       1.0  T
   6   -324.0588546 -0.915889E-01  0.148E-01    0.04       1.0  T
   7   -324.0647691 -0.591451E-02  0.110E-01    0.03       1.0  T
   8   -324.0621704  0.259865E-02  0.122E-01    0.03       1.0  T
   9   -324.0566592  0.551122E-02  0.135E-01    0.03       1.0  T
  10   -324.0669227 -0.102635E-01  0.625E-02    0.02       1.0  T
  11   -324.0689752 -0.205252E-02  0.339E-02    0.01       1.0  T
  12   -324.0693051 -0.329918E-03  0.225E-02    0.01       1.0  T
  13   -324.0696399 -0.334755E-03  0.436E-03    0.01       1.7  T
  14   -324.0696503 -0.104514E-04  0.211E-03    0.01       3.5  T
  15   -324.0696521 -0.177394E-05  0.128E-03    0.01       5.7  T
  16   -324.0696531 -0.987548E-06  0.502E-04    0.01      14.6  T
  17   -324.0696532 -0.947171E-07  0.243E-04    0.01      30.3  T
  18   -324.0696532 -0.599272E-08  0.152E-04    0.01      48.3  T
  19   -324.0696532 -0.129737E-07  0.459E-05    0.01     160.2  T
     SCC iter.                  ...        0 min,  3.123 sec
     gradient                   ...        0 min,  0.810 sec
 * total energy  :  -319.2375445 Eh     change       -0.1560502E+00 Eh
   gradient norm :     0.1813046 Eh/α   predicted    -0.1551706E+00 (  -0.56%)
   displ. norm   :     0.7023572 α      lambda       -0.1013064E+00
   maximum displ.:     0.2215598 α      in ANC's #102, #188, #100, ...

........................................................................
.............................. CYCLE    4 ..............................
........................................................................
   1   -324.1935394 -0.324194E+03  0.202E-01    0.03       0.0  T
   2   -323.9143960  0.279143E+00  0.618E-01    0.08       1.0  T
   3   -324.0224801 -0.108084E+00  0.498E-01    0.12       1.0  T
   4   -324.0802793 -0.577992E-01  0.469E-01    0.12       1.0  T
   5   -324.1026671 -0.223878E-01  0.415E-01    0.12       1.0  T
   6   -324.1843744 -0.817074E-01  0.200E-01    0.01       1.0  T
   7   -324.1931137 -0.873925E-02  0.154E-01    0.00       1.0  T
   8   -324.2019995 -0.888582E-02  0.931E-02    0.04       1.0  T
   9   -324.2065374 -0.453788E-02  0.398E-02    0.01       1.0  T
  10   -324.2073930 -0.855575E-03  0.102E-02    0.02       1.0  T
  11   -324.2073260  0.669545E-04  0.155E-02    0.02       1.0  T
  12   -324.2074020 -0.759516E-04  0.974E-03    0.02       1.0  T
  13   -324.2074506 -0.486678E-04  0.452E-03    0.02       1.6  T
  14   -324.2074608 -0.101676E-04  0.159E-03    0.02       4.6  T
  15   -324.2074619 -0.111361E-05  0.576E-04    0.02      12.8  T
  16   -324.2074621 -0.199193E-06  0.138E-04    0.02      53.4  T
  17   -324.2074620  0.727435E-07  0.387E-04    0.02      19.0  T
  18   -324.2074621 -0.756568E-07  0.128E-04    0.02      57.6  T
     SCC iter.                  ...        0 min,  2.940 sec
     gradient                   ...        0 min,  0.811 sec
 * total energy  :  -319.3173196 Eh     change       -0.7977505E-01 Eh
   gradient norm :     0.1456126 Eh/α   predicted    -0.7564080E-01 (  -5.18%)
   displ. norm   :     0.7072518 α      lambda       -0.6706638E-01
   maximum displ.:     0.2764970 α      in ANC's #102, #188, #100, ...

........................................................................
.............................. CYCLE    5 ..............................
........................................................................
   1   -324.2900144 -0.324290E+03  0.258E-01    0.04       0.0  T
   2   -323.8355214  0.454493E+00  0.783E-01    0.28       1.0  T
   3   -324.1312152 -0.295694E+00  0.556E-01    0.07       1.0  T
   4   -324.2369873 -0.105772E+00  0.379E-01    0.10       1.0  T
   5   -324.2596410 -0.226537E-01  0.316E-01    0.04       1.0  T
   6   -324.3104182 -0.507772E-01  0.127E-01    0.00       1.0  T
   7   -324.3176470 -0.722872E-02  0.448E-02    0.01       1.0  T
   8   -324.3187246 -0.107763E-02  0.164E-02    0.02       1.0  T
   9   -324.3180199  0.704683E-03  0.379E-02    0.02       1.0  T
  10   -324.3186260 -0.606101E-03  0.211E-02    0.03       1.0  T
  11   -324.3188710 -0.244993E-03  0.269E-03    0.02       2.7  T
  12   -324.3188628  0.820216E-05  0.491E-03    0.02       1.5  T
  13   -324.3188646 -0.178380E-05  0.433E-03    0.02       1.7  T
  14   -324.3188745 -0.991550E-05  0.138E-03    0.02       5.3  T
  15   -324.3188751 -0.545791E-06  0.856E-04    0.02       8.6  T
  16   -324.3188754 -0.348735E-06  0.212E-04    0.02      34.7  T
  17   -324.3188754 -0.497266E-08  0.179E-04    0.02      41.1  T
  18   -324.3188754 -0.157968E-07  0.536E-05    0.02     137.2  T
     SCC iter.                  ...        0 min,  2.930 sec
     gradient                   ...        0 min,  0.812 sec
 * total energy  :  -319.3726680 Eh     change       -0.5534846E-01 Eh
   gradient norm :     0.1308879 Eh/α   predicted    -0.5030672E-01 (  -9.11%)
   displ. norm   :     0.7175606 α      lambda       -0.5444123E-01
   maximum displ.:     0.2976525 α      in ANC's #102, #100, #188, ...

........................................................................
.............................. CYCLE    6 ..............................
........................................................................
   1   -324.3710458 -0.324371E+03  0.333E-01    0.06       0.0  T
   2   -323.6579118  0.713134E+00  0.921E-01    0.48       1.0  T
   3   -324.3123339 -0.654422E+00  0.411E-01    0.01       1.0  T
   4   -324.2415787  0.707552E-01  0.574E-01    0.25       1.0  T
   5   -324.3558678 -0.114289E+00  0.352E-01    0.02       1.0  T
   6   -324.3833791 -0.275113E-01  0.271E-01    0.02       1.0  T
   7   -324.4038082 -0.204291E-01  0.179E-01    0.01       1.0  T
   8   -324.4145911 -0.107830E-01  0.118E-01    0.03       1.0  T
   9   -324.4215253 -0.693418E-02  0.191E-02    0.02       1.0  T
  10   -324.4216957 -0.170385E-03  0.771E-03    0.02       1.0  T
  11   -324.4216914  0.429489E-05  0.691E-03    0.02       1.1  T
  12   -324.4217069 -0.154704E-04  0.484E-03    0.02       1.5  T
  13   -324.4217189 -0.120380E-04  0.169E-03    0.02       4.4  T
  14   -324.4217201 -0.117942E-05  0.719E-04    0.02      10.2  T
  15   -324.4217204 -0.289749E-06  0.275E-04    0.02      26.7  T
  16   -324.4217204  0.189505E-07  0.311E-04    0.02      23.6  T
  17   -324.4217204 -0.404524E-07  0.797E-05    0.02      92.3  T
  18   -324.4217204 -0.226441E-08  0.186E-05    0.02     395.3  T
     SCC iter.                  ...        0 min,  2.922 sec
     gradient                   ...        0 min,  0.804 sec
 * total energy  :  -319.4189387 Eh     change       -0.4627068E-01 Eh
   gradient norm :     0.1131946 Eh/α   predicted    -0.4123631E-01 ( -10.88%)
   displ. norm   :     0.7397253 α      lambda       -0.4916009E-01
   maximum displ.:     0.2950135 α      in ANC's #102, #100, #120, ...

........................................................................
.............................. CYCLE    7 ..............................
........................................................................
   1   -324.4484564 -0.324448E+03  0.381E-01    0.08       0.0  T
   2   -323.5272809  0.921175E+00  0.102E+00    0.35       1.0  T
   3   -324.4285746 -0.901294E+00  0.307E-01    0.08       1.0  T
   4   -324.3613216  0.672530E-01  0.570E-01    0.24       1.0  T
   5   -324.4248728 -0.635512E-01  0.428E-01    0.05       1.0  T
   6   -324.4356097 -0.107369E-01  0.395E-01    0.03       1.0  T
   7   -324.4675923 -0.319827E-01  0.297E-01    0.01       1.0  T
   8   -324.5033580 -0.357656E-01  0.142E-01    0.03       1.0  T
   9   -324.5129626 -0.960465E-02  0.462E-02    0.01       1.0  T
  10   -324.5123557  0.606983E-03  0.616E-02    0.02       1.0  T
  11   -324.5140313 -0.167564E-02  0.132E-02    0.01       1.0  T
  12   -324.5140568 -0.254739E-04  0.127E-02    0.01       1.0  T
  13   -324.5141332 -0.764434E-04  0.733E-03    0.02       1.0  T
  14   -324.5141573 -0.241059E-04  0.156E-03    0.02       4.7  T
  15   -324.5141578 -0.484965E-06  0.114E-03    0.02       6.4  T
  16   -324.5141583 -0.528461E-06  0.437E-04    0.02      16.8  T
  17   -324.5141584 -0.113894E-06  0.448E-05    0.02     164.1  T
  18   -324.5141584  0.277532E-08  0.826E-05    0.02      89.0  T
     SCC iter.                  ...        0 min,  2.906 sec
     gradient                   ...        0 min,  0.802 sec
 * total energy  :  -319.4597122 Eh     change       -0.4077351E-01 Eh
   gradient norm :     0.0860219 Eh/α   predicted    -0.3803009E-01 (  -6.73%)
   displ. norm   :     0.7143986 α      lambda       -0.3697974E-01
   maximum displ.:     0.2536364 α      in ANC's #102, #100, #51, ...

........................................................................
.............................. CYCLE    8 ..............................
........................................................................
   1   -324.5144438 -0.324514E+03  0.345E-01    0.07       0.0  T
   2   -323.8488868  0.665557E+00  0.961E-01    0.34       1.0  T
   3   -324.5449373 -0.696051E+00  0.244E-01    0.02       1.0  T
   4   -324.3794102  0.165527E+00  0.606E-01    0.27       1.0  T
   5   -324.5073261 -0.127916E+00  0.340E-01    0.00       1.0  T
   6   -324.5602852 -0.529591E-01  0.124E-01    0.00       1.0  T
   7   -324.5644212 -0.413604E-02  0.862E-02    0.02       1.0  T
   8   -324.5664281 -0.200687E-02  0.672E-02    0.01       1.0  T
   9   -324.5683820 -0.195397E-02  0.186E-02    0.01       1.0  T
  10   -324.5681508  0.231188E-03  0.299E-02    0.01       1.0  T
  11   -324.5685755 -0.424669E-03  0.606E-03    0.01       1.2  T
  12   -324.5685888 -0.132632E-04  0.316E-03    0.01       2.3  T
  13   -324.5685935 -0.470857E-05  0.101E-03    0.01       7.3  T
  14   -324.5685938 -0.321258E-06  0.560E-04    0.01      13.1  T
  15   -324.5685939 -0.141855E-06  0.127E-04    0.01      57.8  T
  16   -324.5685939 -0.207325E-08  0.998E-05    0.01      73.7  T
     SCC iter.                  ...        0 min,  2.576 sec
     gradient                   ...        0 min,  0.797 sec
 * total energy  :  -319.4888340 Eh     change       -0.2912176E-01 Eh
   gradient norm :     0.0699536 Eh/α   predicted    -0.2792645E-01 (  -4.10%)
   displ. norm   :     0.6865597 α      lambda       -0.2430264E-01
   maximum displ.:     0.1880311 α      in ANC's #102, #51, #47, ...

........................................................................
.............................. CYCLE    9 ..............................
........................................................................
   1   -324.5628308 -0.324563E+03  0.252E-01    0.05       0.0  T
   2   -324.0411249  0.521706E+00  0.883E-01    0.31       1.0  T
   3   -324.5804948 -0.539370E+00  0.156E-01    0.02       1.0  T
   4   -324.4003507  0.180144E+00  0.609E-01    0.19       1.0  T
   5   -324.5579976 -0.157647E+00  0.250E-01    0.02       1.0  T
   6   -324.5877829 -0.297853E-01  0.800E-02    0.02       1.0  T
   7   -324.5907801 -0.299716E-02  0.120E-02    0.01       1.0  T
   8   -324.5907759  0.417708E-05  0.130E-02    0.01       1.0  T
   9   -324.5905013  0.274629E-03  0.266E-02    0.01       1.0  T
  10   -324.5907936 -0.292289E-03  0.106E-02    0.01       1.0  T
  11   -324.5908450 -0.514100E-04  0.270E-03    0.01       2.7  T
  12   -324.5908464 -0.138523E-05  0.218E-03    0.01       3.4  T
  13   -324.5908476 -0.126093E-05  0.151E-03    0.01       4.9  T
  14   -324.5908486 -0.973415E-06  0.620E-04    0.01      11.9  T
  15   -324.5908488 -0.175234E-06  0.187E-04    0.01      39.3  T
  16   -324.5908488 -0.167193E-07  0.547E-05    0.01     134.3  T
     SCC iter.                  ...        0 min,  2.550 sec
     gradient                   ...        0 min,  0.794 sec
 * total energy  :  -319.5085488 Eh     change       -0.1971486E-01 Eh
   gradient norm :     0.0536183 Eh/α   predicted    -0.1787903E-01 (  -9.31%)
   displ. norm   :     0.7140235 α      lambda       -0.1865222E-01
   maximum displ.:     0.2210914 α      in ANC's #51, #47, #26, ...

........................................................................
.............................. CYCLE   10 ..............................
........................................................................
   1   -324.5956421 -0.324596E+03  0.201E-01    0.03       0.0  T
   2   -324.1279149  0.467727E+00  0.835E-01    0.15       1.0  T
   3   -324.5069589 -0.379044E+00  0.447E-01    0.03       1.0  T
   4   -324.5119801 -0.502119E-02  0.440E-01    0.04       1.0  T
   5   -324.5796620 -0.676819E-01  0.254E-01    0.01       1.0  T
   6   -324.6119858 -0.323238E-01  0.249E-02    0.01       1.0  T
   7   -324.6121139 -0.128129E-03  0.201E-02    0.01       1.0  T
   8   -324.6119920  0.121935E-03  0.254E-02    0.01       1.0  T
   9   -324.6121798 -0.187782E-03  0.148E-02    0.01       1.0  T
  10   -324.6122828 -0.102975E-03  0.410E-03    0.01       1.8  T
  11   -324.6122805  0.228666E-05  0.454E-03    0.01       1.6  T
  12   -324.6122875 -0.706162E-05  0.239E-03    0.01       3.1  T
  13   -324.6122902 -0.269901E-05  0.584E-04    0.01      12.6  T
  14   -324.6122904 -0.116780E-06  0.267E-04    0.01      27.5  T
  15   -324.6122904 -0.326626E-07  0.358E-05    0.01     205.5  T
  16   -324.6122904 -0.380851E-11  0.368E-05    0.01     199.8  T
     SCC iter.                  ...        0 min,  2.550 sec
     gradient                   ...        0 min,  0.777 sec
 * total energy  :  -319.5237893 Eh     change       -0.1524043E-01 Eh
   gradient norm :     0.0478873 Eh/α   predicted    -0.1408084E-01 (  -7.61%)
   displ. norm   :     0.7428237 α      lambda       -0.1503430E-01
   maximum displ.:     0.2553318 α      in ANC's #47, #51, #26, ...

........................................................................
.............................. CYCLE   11 ..............................
........................................................................
   1   -324.6067518 -0.324607E+03  0.150E-01    0.02       0.0  T
   2   -324.3760155  0.230736E+00  0.652E-01    0.10       1.0  T
   3   -324.5191943 -0.143179E+00  0.435E-01    0.07       1.0  T
   4   -324.5641241 -0.449298E-01  0.315E-01    0.01       1.0  T
   5   -324.5918832 -0.277591E-01  0.215E-01    0.02       1.0  T
   6   -324.6153825 -0.234994E-01  0.157E-02    0.01       1.0  T
   7   -324.6092141  0.616843E-02  0.113E-01    0.02       1.0  T
   8   -324.6149687 -0.575458E-02  0.320E-02    0.01       1.0  T
   9   -324.6153457 -0.376996E-03  0.168E-02    0.01       1.0  T
  10   -324.6154445 -0.988419E-04  0.896E-03    0.01       1.0  T
  11   -324.6154788 -0.342850E-04  0.310E-03    0.01       2.4  T
  12   -324.6154833 -0.453401E-05  0.589E-04    0.01      12.5  T
  13   -324.6154834 -0.137404E-06  0.238E-04    0.01      30.9  T
  14   -324.6154835 -0.121582E-07  0.187E-04    0.01      39.2  T
  15   -324.6154835 -0.160662E-07  0.614E-05    0.01     119.7  T
     SCC iter.                  ...        0 min,  2.465 sec
     gradient                   ...        0 min,  0.798 sec
 * total energy  :  -319.5352404 Eh     change       -0.1145112E-01 Eh
   gradient norm :     0.0467404 Eh/α   predicted    -0.1166503E-01 (   1.87%)
   displ. norm   :     0.7546400 α      lambda       -0.1247579E-01
   maximum displ.:     0.2522406 α      in ANC's #51, #47, #26, ...

........................................................................
.............................. CYCLE   12 ..............................
........................................................................
   1   -324.5999761 -0.324600E+03  0.248E-01    0.04       0.0  T
   2   -324.0675827  0.532393E+00  0.906E-01    0.20       1.0  T
   3   -324.4909064 -0.423324E+00  0.517E-01    0.06       1.0  T
   4   -324.5140655 -0.231591E-01  0.471E-01    0.07       1.0  T
   5   -324.5825488 -0.684833E-01  0.301E-01    0.02       1.0  T
   6   -324.6250583 -0.425095E-01  0.401E-02    0.01       1.0  T
   7   -324.6256691 -0.610825E-03  0.151E-02    0.01       1.0  T
   8   -324.6256341  0.350489E-04  0.171E-02    0.01       1.0  T
   9   -324.6257066 -0.725158E-04  0.117E-02    0.01       1.0  T
  10   -324.6257687 -0.620825E-04  0.230E-03    0.00       3.2  T
  11   -324.6257689 -0.211484E-06  0.215E-03    0.00       3.4  T
  12   -324.6257705 -0.158103E-05  0.108E-03    0.00       6.8  T
  13   -324.6257710 -0.477320E-06  0.383E-04    0.01      19.2  T
  14   -324.6257710 -0.527839E-07  0.210E-04    0.01      34.9  T
  15   -324.6257710 -0.197379E-07  0.379E-05    0.01     194.0  T
  16   -324.6257710 -0.530008E-09  0.171E-05    0.01     430.1  T
     SCC iter.                  ...        0 min,  2.632 sec
     gradient                   ...        0 min,  0.798 sec
 * total energy  :  -319.5436292 Eh     change       -0.8388765E-02 Eh
   gradient norm :     0.0610178 Eh/α   predicted    -0.9790262E-02 (  16.71%)
   displ. norm   :     0.6578015 α      lambda       -0.8695850E-02
   maximum displ.:     0.2376659 α      in ANC's #47, #51, #26, ...

........................................................................
.............................. CYCLE   13 ..............................
........................................................................
   1   -324.6162618 -0.324616E+03  0.127E-01    0.02       0.0  T
   2   -324.3865243  0.229738E+00  0.663E-01    0.10       1.0  T
   3   -324.5036867 -0.117162E+00  0.489E-01    0.11       1.0  T
   4   -324.6070756 -0.103389E+00  0.178E-01    0.01       1.0  T
   5   -324.6194532 -0.123776E-01  0.847E-02    0.00       1.0  T
   6   -324.6144121  0.504116E-02  0.136E-01    0.02       1.0  T
   7   -324.6206706 -0.625851E-02  0.708E-02    0.01       1.0  T
   8   -324.6229006 -0.223003E-02  0.167E-02    0.00       1.0  T
   9   -324.6230337 -0.133026E-03  0.290E-03    0.00       2.5  T
  10   -324.6230378 -0.413088E-05  0.398E-04    0.00      18.5  T
  11   -324.6230375  0.240832E-06  0.822E-04    0.00       8.9  T
  12   -324.6230377 -0.161882E-06  0.588E-04    0.00      12.5  T
  13   -324.6230378 -0.691788E-07  0.435E-04    0.00      16.9  T
  14   -324.6230379 -0.879975E-07  0.399E-05    0.00     184.1  T
  15   -324.6230379  0.851855E-09  0.592E-05    0.00     124.3  T
     SCC iter.                  ...        0 min,  2.454 sec
     gradient                   ...        0 min,  0.794 sec
 * total energy  :  -319.5505987 Eh     change       -0.6969578E-02 Eh
   gradient norm :     0.0330015 Eh/α   predicted    -0.6229298E-02 ( -10.62%)
   displ. norm   :     0.7311791 α      lambda       -0.7898928E-02
   maximum displ.:     0.2442648 α      in ANC's #26, #47, #14, ...

........................................................................
.............................. CYCLE   14 ..............................
........................................................................
   1   -324.5828228 -0.324583E+03  0.315E-01    0.06       0.0  T
   2   -323.9775195  0.605303E+00  0.985E-01    0.15       1.0  T
   3   -324.5671431 -0.589624E+00  0.380E-01    0.06       1.0  T
   4   -324.4428996  0.124243E+00  0.612E-01    0.19       1.0  T
   5   -324.5809756 -0.138076E+00  0.318E-01    0.00       1.0  T
   6   -324.6259371 -0.449615E-01  0.428E-02    0.01       1.0  T
   7   -324.6261572 -0.220106E-03  0.372E-02    0.00       1.0  T
   8   -324.6267638 -0.606561E-03  0.813E-03    0.01       1.0  T
   9   -324.6267230  0.407429E-04  0.127E-02    0.01       1.0  T
  10   -324.6267917 -0.686854E-04  0.237E-03    0.00       3.1  T
  11   -324.6267941 -0.241137E-05  0.643E-04    0.00      11.4  T
  12   -324.6267937  0.413479E-06  0.119E-03    0.00       6.2  T
  13   -324.6267938 -0.140227E-06  0.104E-03    0.00       7.0  T
  14   -324.6267943 -0.457027E-06  0.255E-04    0.00      28.8  T
  15   -324.6267943 -0.288176E-07  0.673E-05    0.00     109.3  T
  16   -324.6267943 -0.162476E-08  0.333E-05    0.00     221.1  T
     SCC iter.                  ...        0 min,  2.614 sec
     gradient                   ...        0 min,  0.788 sec
 * total energy  :  -319.5567911 Eh     change       -0.6192382E-02 Eh
   gradient norm :     0.0411503 Eh/α   predicted    -0.6060939E-02 (  -2.12%)
   displ. norm   :     0.7515179 α      lambda       -0.7596505E-02
   maximum displ.:     0.2546111 α      in ANC's #26, #51, #14, ...

........................................................................
.............................. CYCLE   15 ..............................
........................................................................
   1   -324.6040773 -0.324604E+03  0.232E-01    0.04       0.0  T
   2   -324.0505040  0.553573E+00  0.939E-01    0.17       1.0  T
   3   -324.6181758 -0.567672E+00  0.185E-01    0.01       1.0  T
   4   -324.5484097  0.697660E-01  0.409E-01    0.08       1.0  T
   5   -324.6058983 -0.574886E-01  0.229E-01    0.01       1.0  T
   6   -324.6275924 -0.216941E-01  0.577E-02    0.00       1.0  T
   7   -324.6289632 -0.137076E-02  0.166E-02    0.01       1.0  T
   8   -324.6290442 -0.809925E-04  0.882E-03    0.00       1.0  T
   9   -324.6290777 -0.334891E-04  0.127E-03    0.01       5.8  T
  10   -324.6290731  0.457119E-05  0.357E-03    0.01       2.1  T
  11   -324.6290784 -0.535286E-05  0.644E-04    0.01      11.4  T
  12   -324.6290786 -0.188802E-06  0.589E-05    0.01     124.9  T
  13   -324.6290786  0.157711E-07  0.196E-04    0.01      37.6  T
     SCC iter.                  ...        0 min,  2.125 sec
     gradient                   ...        0 min,  0.788 sec
 * total energy  :  -319.5623917 Eh     change       -0.5600606E-02 Eh
   gradient norm :     0.0352520 Eh/α   predicted    -0.5943428E-02 (   6.12%)
   displ. norm   :     0.7430314 α      lambda       -0.6156533E-02
   maximum displ.:     0.2685048 α      in ANC's #26, #14, #42, ...

........................................................................
.............................. CYCLE   16 ..............................
........................................................................
   1   -324.5851485 -0.324585E+03  0.289E-01    0.06       0.0  T
   2   -323.9811247  0.604024E+00  0.988E-01    0.14       1.0  T
   3   -324.6059994 -0.624875E+00  0.233E-01    0.00       1.0  T
   4   -324.5810280  0.249714E-01  0.306E-01    0.03       1.0  T
   5   -324.5858569 -0.482893E-02  0.287E-01    0.03       1.0  T
   6   -324.6201567 -0.342998E-01  0.769E-02    0.00       1.0  T
   7   -324.6224880 -0.233125E-02  0.188E-02    0.00       1.0  T
   8   -324.6226141 -0.126118E-03  0.649E-03    0.01       1.1  T
   9   -324.6226067  0.746147E-05  0.725E-03    0.01       1.0  T
  10   -324.6226259 -0.192791E-04  0.304E-03    0.01       2.4  T
  11   -324.6226299 -0.397472E-05  0.778E-04    0.01       9.4  T
  12   -324.6226299 -0.342388E-07  0.708E-04    0.01      10.4  T
  13   -324.6226301 -0.192269E-06  0.235E-04    0.01      31.3  T
  14   -324.6226302 -0.216659E-07  0.699E-05    0.01     105.2  T
  15   -324.6226302 -0.205335E-08  0.138E-05    0.01     531.8  T
     SCC iter.                  ...        0 min,  2.450 sec
     gradient                   ...        0 min,  0.788 sec
 * total energy  :  -319.5672434 Eh     change       -0.4851707E-02 Eh
   gradient norm :     0.0302239 Eh/α   predicted    -0.4777768E-02 (  -1.52%)
   displ. norm   :     0.7349569 α      lambda       -0.5696919E-02
   maximum displ.:     0.2781853 α      in ANC's #14, #26, #42, ...

........................................................................
.............................. CYCLE   17 ..............................
........................................................................
   1   -324.6101681 -0.324610E+03  0.192E-01    0.04       0.0  T
   2   -324.0717560  0.538412E+00  0.925E-01    0.17       1.0  T
   3   -324.6251909 -0.553435E+00  0.550E-02    0.01       1.0  T
   4   -324.5678235  0.573673E-01  0.355E-01    0.06       1.0  T
   5   -324.6035100 -0.356865E-01  0.233E-01    0.01       1.0  T
   6   -324.6231843 -0.196743E-01  0.934E-02    0.00       1.0  T
   7   -324.6263279 -0.314363E-02  0.334E-02    0.00       1.0  T
   8   -324.6267484 -0.420493E-03  0.937E-03    0.01       1.0  T
   9   -324.6267657 -0.172508E-04  0.641E-03    0.01       1.1  T
  10   -324.6267835 -0.178137E-04  0.123E-03    0.01       6.0  T
  11   -324.6267833  0.144069E-06  0.152E-03    0.01       4.8  T
  12   -324.6267840 -0.718140E-06  0.789E-04    0.01       9.3  T
  13   -324.6267843 -0.258471E-06  0.136E-04    0.01      53.9  T
  14   -324.6267843 -0.148162E-08  0.117E-04    0.01      63.1  T
     SCC iter.                  ...        0 min,  2.287 sec
     gradient                   ...        0 min,  0.787 sec
 * total energy  :  -319.5714013 Eh     change       -0.4157823E-02 Eh
   gradient norm :     0.0305066 Eh/α   predicted    -0.4387094E-02 (   5.51%)
   displ. norm   :     0.7254966 α      lambda       -0.5222985E-02
   maximum displ.:     0.3020700 α      in ANC's #14, #26, #42, ...

........................................................................
.............................. CYCLE   18 ..............................
........................................................................
   1   -324.6279419 -0.324628E+03  0.811E-02    0.02       0.0  T
   2   -324.4227937  0.205148E+00  0.647E-01    0.08       1.0  T
   3   -324.5602126 -0.137419E+00  0.381E-01    0.07       1.0  T
   4   -324.6272765 -0.670639E-01  0.919E-02    0.01       1.0  T
   5   -324.6304673 -0.319076E-02  0.341E-02    0.00       1.0  T
   6   -324.6290651  0.140215E-02  0.659E-02    0.02       1.0  T
   7   -324.6310231 -0.195800E-02  0.650E-03    0.01       1.1  T
   8   -324.6307842  0.238877E-03  0.239E-02    0.00       1.0  T
   9   -324.6310316 -0.247374E-03  0.499E-03    0.01       1.5  T
  10   -324.6310401 -0.848559E-05  0.248E-03    0.01       3.0  T
  11   -324.6310429 -0.280491E-05  0.106E-04    0.01      69.3  T
  12   -324.6310429  0.371153E-07  0.307E-04    0.01      24.0  T
  13   -324.6310429 -0.401695E-07  0.809E-05    0.01      90.9  T
  14   -324.6310429  0.137061E-08  0.988E-05    0.01      74.4  T
     SCC iter.                  ...        0 min,  2.284 sec
     gradient                   ...        0 min,  0.785 sec
 * total energy  :  -319.5749642 Eh     change       -0.3562948E-02 Eh
   gradient norm :     0.0333786 Eh/α   predicted    -0.3986047E-02 (  11.87%)
   displ. norm   :     0.6811688 α      lambda       -0.4374691E-02
   maximum displ.:     0.3041285 α      in ANC's #14, #26, #19, ...

........................................................................
.............................. CYCLE   19 ..............................
........................................................................
   1   -324.6332876 -0.324633E+03  0.613E-02    0.00       0.0  T
   2   -324.4993093  0.133978E+00  0.534E-01    0.29       1.0  T
   3   -324.6292094 -0.129900E+00  0.108E-01    0.00       1.0  T
   4   -324.6333974 -0.418803E-02  0.554E-02    0.01       1.0  T
   5   -324.6348417 -0.144422E-02  0.994E-03    0.01       1.0  T
   6   -324.6346389  0.202754E-03  0.232E-02    0.00       1.0  T
   7   -324.6348574 -0.218469E-03  0.824E-03    0.01       1.0  T
   8   -324.6348760 -0.186611E-04  0.488E-03    0.01       1.5  T
   9   -324.6348823 -0.628008E-05  0.324E-03    0.01       2.3  T
  10   -324.6348871 -0.480736E-05  0.240E-04    0.01      30.7  T
  11   -324.6348871 -0.403429E-08  0.226E-04    0.01      32.5  T
  12   -324.6348871 -0.230768E-07  0.168E-05    0.01     437.0  T
  13   -324.6348871  0.464979E-10  0.212E-05    0.01     347.3  T
     SCC iter.                  ...        0 min,  2.110 sec
     gradient                   ...        0 min,  0.782 sec
 * total energy  :  -319.5779421 Eh     change       -0.2977913E-02 Eh
   gradient norm :     0.0312909 Eh/α   predicted    -0.3202257E-02 (   7.53%)
   displ. norm   :     0.6835700 α      lambda       -0.3943759E-02
   maximum displ.:     0.3132049 α      in ANC's #14, #24, #26, ...

........................................................................
.............................. CYCLE   20 ..............................
........................................................................
   1   -324.6243107 -0.324624E+03  0.280E-02    0.00       0.0  T
   2   -324.5223328  0.101978E+00  0.467E-01    0.14       1.0  T
   3   -324.6233063 -0.100973E+00  0.552E-02    0.01       1.0  T
   4   -324.6118198  0.114865E-01  0.161E-01    0.01       1.0  T
   5   -324.6244731 -0.126533E-01  0.210E-02    0.01       1.0  T
   6   -324.6246636 -0.190510E-03  0.479E-03    0.01       1.5  T
   7   -324.6246725 -0.888897E-05  0.232E-03    0.01       3.2  T
   8   -324.6246571  0.154146E-04  0.626E-03    0.01       1.2  T
   9   -324.6246726 -0.155306E-04  0.226E-03    0.01       3.3  T
  10   -324.6246744 -0.177830E-05  0.119E-03    0.01       6.2  T
  11   -324.6246747 -0.284318E-06  0.876E-04    0.01       8.4  T
  12   -324.6246750 -0.346287E-06  0.558E-05    0.01     131.8  T
  13   -324.6246750  0.144502E-08  0.773E-05    0.01      95.1  T
     SCC iter.                  ...        0 min,  2.114 sec
     gradient                   ...        0 min,  0.781 sec
 * total energy  :  -319.5805595 Eh     change       -0.2617375E-02 Eh
   gradient norm :     0.0292379 Eh/α   predicted    -0.2893275E-02 (  10.54%)
   displ. norm   :     0.6506851 α      lambda       -0.3887450E-02
   maximum displ.:     0.3262026 α      in ANC's #14, #24, #19, ...
 * RMSD in coord.:     0.7454018 α      energy gain  -0.7151479E+00 Eh

generating ANC from model Hessian ...
Using Lindh-Hessian (1995)
 Shifting diagonal of input Hessian by    1.0020184135272786E-002
 Lowest  eigenvalues of input Hessian
    0.010000    0.010004    0.010007    0.010009    0.010010    0.010013
    0.000000    0.000000    0.000000    0.000000    0.000000    0.000000
    0.010037    0.010042    0.010055    0.010064    0.010162    0.010179
 Highest eigenvalues
    2.225690    2.239157    2.664538    2.680884    3.005902    3.021020


........................................................................
.............................. CYCLE   21 ..............................
........................................................................
   1   -324.6120500 -0.324612E+03  0.184E-01    0.00       0.0  T
   2   -324.4185085  0.193541E+00  0.652E-01    0.70       1.0  T
   3   -324.5359174 -0.117409E+00  0.450E-01    0.08       1.0  T
   4   -324.5500373 -0.141199E-01  0.409E-01    0.05       1.0  T
   5   -324.6206801 -0.706428E-01  0.119E-01    0.02       1.0  T
   6   -324.6166950  0.398514E-02  0.151E-01    0.00       1.0  T
   7   -324.6247126 -0.801763E-02  0.720E-02    0.02       1.0  T
   8   -324.6270890 -0.237642E-02  0.228E-03    0.01       3.2  T
   9   -324.6270910 -0.203488E-05  0.741E-04    0.01       9.9  T
  10   -324.6270886  0.246187E-05  0.247E-03    0.01       3.0  T
  11   -324.6270913 -0.274287E-05  0.276E-04    0.01      26.6  T
  12   -324.6270912  0.830198E-07  0.515E-04    0.01      14.3  T
  13   -324.6270913 -0.451018E-07  0.405E-04    0.01      18.1  T
  14   -324.6270914 -0.734847E-07  0.365E-05    0.01     201.2  T
  15   -324.6270914  0.122168E-08  0.634E-05    0.01     115.9  T
     SCC iter.                  ...        0 min,  2.441 sec
     gradient                   ...        0 min,  0.776 sec
 * total energy  :  -319.5826283 Eh     change       -0.2068781E-02 Eh
   gradient norm :     0.0342617 Eh/α   predicted     0.0000000E+00 (-100.00%)
   displ. norm   :     0.2711401 α      lambda       -0.2401292E-02
   maximum displ.:     0.1045377 α      in ANC's #11, #26, #31, ...

........................................................................
.............................. CYCLE   22 ..............................
........................................................................
   1   -324.6253921 -0.324625E+03  0.501E-02    0.01       0.0  T
   2   -324.4656453  0.159747E+00  0.582E-01    0.03       1.0  T
   3   -324.6181357 -0.152490E+00  0.131E-01    0.02       1.0  T
   4   -324.6258133 -0.767753E-02  0.395E-02    0.00       1.0  T
   5   -324.6263850 -0.571768E-03  0.181E-02    0.01       1.0  T
   6   -324.6263797  0.529488E-05  0.190E-02    0.01       1.0  T
   7   -324.6265135 -0.133784E-03  0.804E-03    0.01       1.0  T
   8   -324.6264123  0.101260E-03  0.171E-02    0.00       1.0  T
   9   -324.6265273 -0.115002E-03  0.610E-03    0.01       1.2  T
  10   -324.6265440 -0.167404E-04  0.681E-04    0.01      10.8  T
  11   -324.6265441 -0.140288E-06  0.395E-04    0.01      18.6  T
  12   -324.6265442 -0.670320E-07  0.922E-05    0.01      79.7  T
  13   -324.6265442 -0.283211E-08  0.457E-05    0.01     160.8  T
     SCC iter.                  ...        0 min,  2.117 sec
     gradient                   ...        0 min,  0.794 sec
 * total energy  :  -319.5844549 Eh     change       -0.1826632E-02 Eh
   gradient norm :     0.0133418 Eh/α   predicted    -0.1290131E-02 ( -29.37%)
   displ. norm   :     0.5398122 α      lambda       -0.2553806E-02
   maximum displ.:     0.2166825 α      in ANC's #11, #16, #31, ...

........................................................................
.............................. CYCLE   23 ..............................
........................................................................
   1   -324.6242396 -0.324624E+03  0.510E-02    0.01       0.0  T
   2   -324.4666841  0.157555E+00  0.579E-01    0.02       1.0  T
   3   -324.6206841 -0.154000E+00  0.993E-02    0.01       1.0  T
   4   -324.6242117 -0.352767E-02  0.506E-02    0.00       1.0  T
   5   -324.6252302 -0.101844E-02  0.202E-02    0.01       1.0  T
   6   -324.6252338 -0.363694E-05  0.207E-02    0.01       1.0  T
   7   -324.6253930 -0.159192E-03  0.859E-03    0.01       1.0  T
   8   -324.6252579  0.135097E-03  0.194E-02    0.00       1.0  T
   9   -324.6254075 -0.149573E-03  0.672E-03    0.01       1.1  T
  10   -324.6254275 -0.199743E-04  0.111E-03    0.01       6.6  T
  11   -324.6254279 -0.491260E-06  0.392E-04    0.01      18.7  T
  12   -324.6254280 -0.658491E-07  0.950E-05    0.01      77.4  T
  13   -324.6254280 -0.258609E-08  0.559E-05    0.01     131.4  T
     SCC iter.                  ...        0 min,  1.829 sec
     gradient                   ...        0 min,  0.506 sec
 * total energy  :  -319.5861671 Eh     change       -0.1712228E-02 Eh
   gradient norm :     0.0176189 Eh/α   predicted    -0.1648989E-02 (  -3.69%)
   displ. norm   :     0.5956227 α      lambda       -0.2092653E-02
   maximum displ.:     0.2490789 α      in ANC's #11, #16, #26, ...

........................................................................
.............................. CYCLE   24 ..............................
........................................................................
   1   -324.6216572 -0.324622E+03  0.101E-02    0.01       0.0  T
   2   -324.6000401  0.216171E-01  0.215E-01    0.04       1.0  T
   3   -324.6212697 -0.212296E-01  0.303E-02    0.00       1.0  T
   4   -324.6216021 -0.332404E-03  0.133E-02    0.00       1.0  T
   5   -324.6213746  0.227503E-03  0.254E-02    0.01       1.0  T
   6   -324.6216719 -0.297382E-03  0.611E-03    0.01       1.2  T
   7   -324.6216881 -0.161177E-04  0.178E-03    0.01       4.1  T
   8   -324.6216893 -0.128910E-05  0.528E-04    0.01      13.9  T
   9   -324.6216894 -0.109498E-06  0.235E-04    0.01      31.3  T
  10   -324.6216895 -0.266512E-07  0.228E-05    0.01     322.3  T
  11   -324.6216895  0.873115E-09  0.487E-05    0.01     150.8  T
     SCC iter.                  ...        0 min,  1.355 sec
     gradient                   ...        0 min,  0.509 sec
 * total energy  :  -319.5877350 Eh     change       -0.1567875E-02 Eh
   gradient norm :     0.0238699 Eh/α   predicted    -0.1417529E-02 (  -9.59%)
   displ. norm   :     0.6455844 α      lambda       -0.2103521E-02
   maximum displ.:     0.2777705 α      in ANC's #11, #16, #31, ...

........................................................................
.............................. CYCLE   25 ..............................
........................................................................
   1   -324.6172194 -0.324617E+03  0.718E-02    0.00       0.0  T
   2   -324.4757178  0.141502E+00  0.553E-01    0.35       1.0  T
   3   -324.6059831 -0.130265E+00  0.168E-01    0.01       1.0  T
   4   -324.6168181 -0.108350E-01  0.776E-02    0.02       1.0  T
   5   -324.6194496 -0.263154E-02  0.122E-02    0.01       1.0  T
   6   -324.6194756 -0.259898E-04  0.916E-03    0.01       1.0  T
   7   -324.6194792 -0.357905E-05  0.874E-03    0.01       1.0  T
   8   -324.6195139 -0.346921E-04  0.862E-04    0.01       8.5  T
   9   -324.6195140 -0.658585E-07  0.753E-04    0.01       9.8  T
  10   -324.6195142 -0.232518E-06  0.252E-04    0.01      29.2  T
  11   -324.6195142 -0.272913E-07  0.620E-05    0.01     118.6  T
  12   -324.6195142 -0.168791E-08  0.175E-05    0.01     420.3  T
     SCC iter.                  ...        0 min,  1.481 sec
     gradient                   ...        0 min,  0.505 sec
 * total energy  :  -319.5896153 Eh     change       -0.1880287E-02 Eh
   gradient norm :     0.0205474 Eh/α   predicted    -0.1490113E-02 ( -20.75%)
   displ. norm   :     0.7315422 α      lambda       -0.2685493E-02
   maximum displ.:     0.3306850 α      in ANC's #11, #16, #14, ...

........................................................................
.............................. CYCLE   26 ..............................
........................................................................
   1   -324.6120310 -0.324612E+03  0.135E-01    0.00       0.0  T
   2   -324.4453443  0.166687E+00  0.609E-01    0.66       1.0  T
   3   -324.5670941 -0.121750E+00  0.343E-01    0.05       1.0  T
   4   -324.5770402 -0.994607E-02  0.307E-01    0.03       1.0  T
   5   -324.6183513 -0.413111E-01  0.647E-02    0.01       1.0  T
   6   -324.6194469 -0.109551E-02  0.420E-02    0.00       1.0  T
   7   -324.6198335 -0.386682E-03  0.303E-02    0.01       1.0  T
   8   -324.6202506 -0.417046E-03  0.214E-03    0.01       3.4  T
   9   -324.6202496  0.940140E-06  0.256E-03    0.01       2.9  T
  10   -324.6202526 -0.293148E-05  0.362E-04    0.01      20.3  T
  11   -324.6202526 -0.243422E-07  0.284E-04    0.01      25.9  T
  12   -324.6202526 -0.363980E-07  0.238E-05    0.01     309.5  T
  13   -324.6202526  0.389383E-08  0.960E-05    0.01      76.5  T
     SCC iter.                  ...        0 min,  1.599 sec
     gradient                   ...        0 min,  0.513 sec
 * total energy  :  -319.5916692 Eh     change       -0.2053863E-02 Eh
   gradient norm :     0.0124310 Eh/α   predicted    -0.2061359E-02 (   0.36%)
   displ. norm   :     0.7596749 α      lambda       -0.2210152E-02
   maximum displ.:     0.3550250 α      in ANC's #11, #16, #14, ...

........................................................................
.............................. CYCLE   27 ..............................
........................................................................
   1   -324.6115597 -0.324612E+03  0.121E-01    0.00       0.0  T
   2   -324.4487416  0.162818E+00  0.600E-01    0.60       1.0  T
   3   -324.5804190 -0.131677E+00  0.290E-01    0.04       1.0  T
   4   -324.5843966 -0.397763E-02  0.270E-01    0.02       1.0  T
   5   -324.6175095 -0.331129E-01  0.369E-02    0.01       1.0  T
   6   -324.6178269 -0.317441E-03  0.258E-02    0.00       1.0  T
   7   -324.6180006 -0.173684E-03  0.169E-02    0.01       1.0  T
   8   -324.6181300 -0.129352E-03  0.719E-04    0.01      10.2  T
   9   -324.6181297  0.222731E-06  0.940E-04    0.01       7.8  T
  10   -324.6181301 -0.395265E-06  0.140E-04    0.01      52.4  T
  11   -324.6181301  0.494045E-07  0.363E-04    0.01      20.2  T
  12   -324.6181301 -0.587906E-07  0.357E-05    0.01     206.0  T
     SCC iter.                  ...        0 min,  1.475 sec
     gradient                   ...        0 min,  0.504 sec
 * total energy  :  -319.5930574 Eh     change       -0.1388199E-02 Eh
   gradient norm :     0.0175342 Eh/α   predicted    -0.1742828E-02 (  25.55%)
   displ. norm   :     0.7034329 α      lambda       -0.1812613E-02
   maximum displ.:     0.3299231 α      in ANC's #11, #16, #14, ...

........................................................................
.............................. CYCLE   28 ..............................
........................................................................
   1   -324.6077566 -0.324608E+03  0.603E-02    0.00       0.0  T
   2   -324.4673916  0.140365E+00  0.552E-01    0.30       1.0  T
   3   -324.6043790 -0.136987E+00  0.103E-01    0.01       1.0  T
   4   -324.6067599 -0.238091E-02  0.756E-02    0.01       1.0  T
   5   -324.6093396 -0.257972E-02  0.114E-02    0.00       1.0  T
   6   -324.6093118  0.278043E-04  0.133E-02    0.00       1.0  T
   7   -324.6093485 -0.366755E-04  0.982E-03    0.01       1.0  T
   8   -324.6093875 -0.390819E-04  0.316E-03    0.01       2.3  T
   9   -324.6093918 -0.422582E-05  0.863E-04    0.00       8.5  T
  10   -324.6093921 -0.325810E-06  0.161E-04    0.00      45.6  T
  11   -324.6093921 -0.113345E-07  0.231E-05    0.00     317.9  T
     SCC iter.                  ...        0 min,  1.359 sec
     gradient                   ...        0 min,  0.507 sec
 * total energy  :  -319.5944684 Eh     change       -0.1411053E-02 Eh
   gradient norm :     0.0126173 Eh/α   predicted    -0.1354769E-02 (  -3.99%)
   displ. norm   :     0.6738785 α      lambda       -0.1393786E-02
   maximum displ.:     0.3482294 α      in ANC's #11, #16, #14, ...

........................................................................
.............................. CYCLE   29 ..............................
........................................................................
   1   -324.6087983 -0.324609E+03  0.429E-02    0.00       0.0  T
   2   -324.4631048  0.145694E+00  0.561E-01    0.18       1.0  T
   3   -324.5980272 -0.134922E+00  0.155E-01    0.01       1.0  T
   4   -324.6090213 -0.109941E-01  0.375E-02    0.01       1.0  T
   5   -324.6096291 -0.607711E-03  0.643E-03    0.00       1.1  T
   6   -324.6096122  0.168183E-04  0.880E-03    0.00       1.0  T
   7   -324.6096434 -0.311280E-04  0.330E-03    0.00       2.2  T
   8   -324.6096290  0.143310E-04  0.649E-03    0.01       1.1  T
   9   -324.6096482 -0.191249E-04  0.175E-04    0.00      42.0  T
  10   -324.6096479  0.209379E-06  0.706E-04    0.00      10.4  T
  11   -324.6096482 -0.214962E-06  0.133E-04    0.00      55.1  T
  12   -324.6096482 -0.683082E-08  0.464E-05    0.00     158.3  T
     SCC iter.                  ...        0 min,  1.482 sec
     gradient                   ...        0 min,  0.503 sec
 * total energy  :  -319.5956092 Eh     change       -0.1140837E-02 Eh
   gradient norm :     0.0089462 Eh/α   predicted    -0.1013361E-02 ( -11.17%)
   displ. norm   :     0.7029644 α      lambda       -0.1247994E-02
   maximum displ.:     0.3833394 α      in ANC's #11, #16, #14, ...

........................................................................
.............................. CYCLE   30 ..............................
........................................................................
   1   -324.6120475 -0.324612E+03  0.281E-02    0.00       0.0  T
   2   -324.4907402  0.121307E+00  0.511E-01    0.10       1.0  T
   3   -324.6102681 -0.119528E+00  0.679E-02    0.01       1.0  T
   4   -324.6119930 -0.172490E-02  0.303E-02    0.01       1.0  T
   5   -324.6123400 -0.346914E-03  0.133E-02    0.00       1.0  T
   6   -324.6123936 -0.536164E-04  0.776E-03    0.00       1.0  T
   7   -324.6124113 -0.176997E-04  0.483E-03    0.00       1.5  T
   8   -324.6124172 -0.592385E-05  0.325E-03    0.00       2.3  T
   9   -324.6124218 -0.459686E-05  0.680E-04    0.00      10.8  T
  10   -324.6124219 -0.671954E-07  0.578E-04    0.00      12.7  T
  11   -324.6124220 -0.104202E-06  0.321E-04    0.00      22.9  T
  12   -324.6124220 -0.458008E-07  0.305E-05    0.00     241.3  T
  13   -324.6124220 -0.275122E-09  0.156E-05    0.00     470.7  T
     SCC iter.                  ...        0 min,  1.696 sec
     gradient                   ...        0 min,  0.557 sec
 * total energy  :  -319.5966861 Eh     change       -0.1076857E-02 Eh
   gradient norm :     0.0096569 Eh/α   predicted    -0.9323535E-03 ( -13.42%)
   displ. norm   :     0.7303260 α      lambda       -0.1208755E-02
   maximum displ.:     0.4158775 α      in ANC's #11, #16, #14, ...

........................................................................
.............................. CYCLE   31 ..............................
........................................................................
   1   -324.6125389 -0.324613E+03  0.152E-02    0.00       0.0  T
   2   -324.5450399  0.674989E-01  0.371E-01    0.07       1.0  T
   3   -324.6117393 -0.666994E-01  0.425E-02    0.00       1.0  T
   4   -324.6074682  0.427102E-02  0.107E-01    0.02       1.0  T
   5   -324.6124854 -0.501714E-02  0.178E-02    0.01       1.0  T
   6   -324.6125969 -0.111498E-03  0.806E-03    0.01       1.0  T
   7   -324.6126119 -0.149809E-04  0.543E-03    0.00       1.4  T
   8   -324.6126241 -0.122043E-04  0.122E-03    0.00       6.0  T
   9   -324.6126247 -0.685103E-06  0.160E-04    0.00      46.1  T
  10   -324.6126248 -0.115889E-07  0.486E-05    0.00     151.3  T
     SCC iter.                  ...        0 min,  1.326 sec
     gradient                   ...        0 min,  0.553 sec
 * total energy  :  -319.5977425 Eh     change       -0.1056407E-02 Eh
   gradient norm :     0.0094327 Eh/α   predicted    -0.9267486E-03 ( -12.27%)
   displ. norm   :     0.7223785 α      lambda       -0.1186826E-02
   maximum displ.:     0.4340990 α      in ANC's #11, #24, #14, ...

........................................................................
.............................. CYCLE   32 ..............................
........................................................................
   1   -324.6194303 -0.324619E+03  0.236E-02    0.01       0.0  T
   2   -324.5162723  0.103158E+00  0.470E-01    0.06       1.0  T
   3   -324.6175120 -0.101240E+00  0.665E-02    0.00       1.0  T
   4   -324.6135162  0.399579E-02  0.114E-01    0.01       1.0  T
   5   -324.6195903 -0.607416E-02  0.102E-02    0.01       1.0  T
   6   -324.6196321 -0.417240E-04  0.270E-03    0.00       2.7  T
   7   -324.6196290  0.304049E-05  0.371E-03    0.00       2.0  T
   8   -324.6196321 -0.311436E-05  0.252E-03    0.00       2.9  T
   9   -324.6196351 -0.298081E-05  0.249E-04    0.00      29.5  T
  10   -324.6196351  0.447548E-07  0.419E-04    0.00      17.6  T
  11   -324.6196351 -0.265869E-07  0.340E-04    0.00      21.6  T
  12   -324.6196352 -0.450640E-07  0.110E-04    0.00      66.8  T
  13   -324.6196352 -0.492491E-08  0.442E-05    0.00     166.4  T
     SCC iter.                  ...        0 min,  1.739 sec
     gradient                   ...        0 min,  0.552 sec
 * total energy  :  -319.5987599 Eh     change       -0.1017439E-02 Eh
   gradient norm :     0.0112368 Eh/α   predicted    -0.9030777E-03 ( -11.24%)
   displ. norm   :     0.7718327 α      lambda       -0.1123401E-02
   maximum displ.:     0.4716948 α      in ANC's #11, #16, #24, ...

........................................................................
.............................. CYCLE   33 ..............................
........................................................................
   1   -324.6120173 -0.324612E+03  0.266E-02    0.00       0.0  T
   2   -324.5048343  0.107183E+00  0.485E-01    0.12       1.0  T
   3   -324.6116265 -0.106792E+00  0.385E-02    0.00       1.0  T
   4   -324.6087284  0.289814E-02  0.855E-02    0.01       1.0  T
   5   -324.6122877 -0.355933E-02  0.945E-03    0.00       1.0  T
   6   -324.6123226 -0.348934E-04  0.290E-03    0.00       2.5  T
   7   -324.6123257 -0.311706E-05  0.108E-03    0.00       6.8  T
   8   -324.6123254  0.280045E-06  0.145E-03    0.00       5.1  T
   9   -324.6123261 -0.651784E-06  0.790E-04    0.00       9.3  T
  10   -324.6123263 -0.266978E-06  0.195E-04    0.00      37.7  T
  11   -324.6123263  0.299545E-07  0.322E-04    0.00      22.9  T
  12   -324.6123264 -0.432427E-07  0.803E-05    0.00      91.5  T
     SCC iter.                  ...        0 min,  1.592 sec
     gradient                   ...        0 min,  0.553 sec
 * total energy  :  -319.5997253 Eh     change       -0.9653571E-03 Eh
   gradient norm :     0.0095594 Eh/α   predicted    -0.8963323E-03 (  -7.15%)
   displ. norm   :     0.7052651 α      lambda       -0.1054919E-02
   maximum displ.:     0.4540557 α      in ANC's #11, #24, #21, ...

........................................................................
.............................. CYCLE   34 ..............................
........................................................................
   1   -324.6143260 -0.324614E+03  0.443E-02    0.00       0.0  T
   2   -324.4801543  0.134172E+00  0.543E-01    0.22       1.0  T
   3   -324.6145612 -0.134407E+00  0.379E-02    0.01       1.0  T
   4   -324.6016978  0.128634E-01  0.166E-01    0.01       1.0  T
   5   -324.6151883 -0.134906E-01  0.404E-03    0.00       1.8  T
   6   -324.6151613  0.270276E-04  0.842E-03    0.00       1.0  T
   7   -324.6151541  0.720748E-05  0.947E-03    0.00       1.0  T
   8   -324.6151798 -0.257014E-04  0.550E-03    0.00       1.3  T
   9   -324.6151894 -0.966083E-05  0.301E-03    0.00       2.4  T
  10   -324.6151930 -0.352957E-05  0.999E-04    0.00       7.4  T
  11   -324.6151934 -0.422442E-06  0.219E-04    0.00      33.5  T
  12   -324.6151934 -0.131371E-07  0.137E-04    0.00      53.8  T
  13   -324.6151934 -0.474506E-08  0.898E-05    0.00      81.8  T
     SCC iter.                  ...        0 min,  1.728 sec
     gradient                   ...        0 min,  0.556 sec
 * total energy  :  -319.6006084 Eh     change       -0.8830569E-03 Eh
   gradient norm :     0.0092810 Eh/α   predicted    -0.7898230E-03 ( -10.56%)
   displ. norm   :     0.7579078 α      lambda       -0.9471315E-03
   maximum displ.:     0.4958731 α      in ANC's #11, #24, #21, ...

........................................................................
.............................. CYCLE   35 ..............................
........................................................................
   1   -324.6074514 -0.324607E+03  0.892E-02    0.00       0.0  T
   2   -324.4468086  0.160643E+00  0.597E-01    0.43       1.0  T
   3   -324.5730065 -0.126198E+00  0.283E-01    0.01       1.0  T
   4   -324.6031263 -0.301198E-01  0.134E-01    0.02       1.0  T
   5   -324.6109239 -0.779761E-02  0.569E-03    0.00       1.3  T
   6   -324.6107027  0.221232E-03  0.230E-02    0.00       1.0  T
   7   -324.6108326 -0.129951E-03  0.153E-02    0.00       1.0  T
   8   -324.6109292 -0.965907E-04  0.390E-03    0.00       1.9  T
   9   -324.6109329 -0.368158E-05  0.261E-03    0.00       2.8  T
  10   -324.6109359 -0.297154E-05  0.374E-04    0.00      19.6  T
  11   -324.6109359 -0.480468E-07  0.178E-04    0.00      41.2  T
  12   -324.6109359 -0.110234E-07  0.808E-05    0.00      91.0  T
     SCC iter.                  ...        0 min,  1.591 sec
     gradient                   ...        0 min,  0.551 sec
 * total energy  :  -319.6014235 Eh     change       -0.8150942E-03 Eh
   gradient norm :     0.0089238 Eh/α   predicted    -0.7455957E-03 (  -8.53%)
   displ. norm   :     0.6965084 α      lambda       -0.8982487E-03
   maximum displ.:     0.4744195 α      in ANC's #11, #24, #21, ...

........................................................................
.............................. CYCLE   36 ..............................
........................................................................
   1   -324.6069219 -0.324607E+03  0.977E-02    0.00       0.0  T
   2   -324.4371784  0.169744E+00  0.613E-01    0.46       1.0  T
   3   -324.5404398 -0.103261E+00  0.385E-01    0.00       1.0  T
   4   -324.6012072 -0.607674E-01  0.151E-01    0.02       1.0  T
   5   -324.6110336 -0.982646E-02  0.974E-03    0.00       1.0  T
   6   -324.6107551  0.278566E-03  0.271E-02    0.00       1.0  T
   7   -324.6110519 -0.296798E-03  0.775E-03    0.00       1.0  T
   8   -324.6110689 -0.170792E-04  0.468E-03    0.00       1.6  T
   9   -324.6110758 -0.682175E-05  0.255E-03    0.00       2.9  T
  10   -324.6110786 -0.281826E-05  0.347E-04    0.00      21.2  T
  11   -324.6110786 -0.319465E-07  0.219E-04    0.00      33.6  T
  12   -324.6110786 -0.196517E-07  0.506E-05    0.00     145.2  T
  13   -324.6110786 -0.918135E-09  0.244E-05    0.00     301.6  T
     SCC iter.                  ...        0 min,  1.717 sec
     gradient                   ...        0 min,  0.549 sec
 * total energy  :  -319.6021947 Eh     change       -0.7712183E-03 Eh
   gradient norm :     0.0089311 Eh/α   predicted    -0.6670113E-03 ( -13.51%)
   displ. norm   :     0.7362368 α      lambda       -0.8674523E-03
   maximum displ.:     0.5089675 α      in ANC's #11, #24, #21, ...

........................................................................
.............................. CYCLE   37 ..............................
........................................................................
   1   -324.6077828 -0.324608E+03  0.797E-02    0.00       0.0  T
   2   -324.4492710  0.158512E+00  0.593E-01    0.38       1.0  T
   3   -324.5860485 -0.136778E+00  0.227E-01    0.00       1.0  T
   4   -324.6065938 -0.205453E-01  0.956E-02    0.01       1.0  T
   5   -324.6105081 -0.391429E-02  0.841E-03    0.00       1.0  T
   6   -324.6103958  0.112325E-03  0.181E-02    0.00       1.0  T
   7   -324.6105371 -0.141272E-03  0.225E-03    0.00       3.3  T
   8   -324.6105348  0.221317E-05  0.320E-03    0.00       2.3  T
   9   -324.6105389 -0.410225E-05  0.100E-03    0.00       7.3  T
  10   -324.6105394 -0.416372E-06  0.235E-04    0.00      31.2  T
  11   -324.6105394 -0.219734E-07  0.774E-05    0.00      95.0  T
  12   -324.6105394 -0.253323E-08  0.119E-05    0.00     618.2  T
     SCC iter.                  ...        0 min,  1.586 sec
     gradient                   ...        0 min,  0.551 sec
 * total energy  :  -319.6029524 Eh     change       -0.7577501E-03 Eh
   gradient norm :     0.0085037 Eh/α   predicted    -0.6688337E-03 ( -11.73%)
   displ. norm   :     0.7190388 α      lambda       -0.8576157E-03
   maximum displ.:     0.5078902 α      in ANC's #11, #24, #10, ...

........................................................................
.............................. CYCLE   38 ..............................
........................................................................
   1   -324.6108046 -0.324611E+03  0.459E-02    0.00       0.0  T
   2   -324.4718474  0.138957E+00  0.554E-01    0.23       1.0  T
   3   -324.6114725 -0.139625E+00  0.226E-02    0.00       1.0  T
   4   -324.6045295  0.694303E-02  0.121E-01    0.01       1.0  T
   5   -324.6116880 -0.715847E-02  0.630E-03    0.00       1.2  T
   6   -324.6116541  0.338961E-04  0.109E-02    0.00       1.0  T
   7   -324.6117063 -0.522819E-04  0.113E-03    0.00       6.5  T
   8   -324.6116889  0.174545E-04  0.637E-03    0.00       1.2  T
   9   -324.6117068 -0.179554E-04  0.245E-04    0.00      30.0  T
  10   -324.6117067  0.152209E-06  0.639E-04    0.00      11.5  T
  11   -324.6117069 -0.179490E-06  0.574E-05    0.00     128.1  T
  12   -324.6117069 -0.148589E-09  0.544E-05    0.00     135.1  T
     SCC iter.                  ...        0 min,  1.548 sec
     gradient                   ...        0 min,  0.551 sec
 * total energy  :  -319.6036731 Eh     change       -0.7206547E-03 Eh
   gradient norm :     0.0084181 Eh/α   predicted    -0.6505020E-03 (  -9.73%)
   displ. norm   :     0.7442729 α      lambda       -0.8022523E-03
   maximum displ.:     0.5274075 α      in ANC's #11, #24, #10, ...

........................................................................
.............................. CYCLE   39 ..............................
........................................................................
   1   -324.6108938 -0.324611E+03  0.150E-02    0.00       0.0  T
   2   -324.5520804  0.588134E-01  0.360E-01    0.05       1.0  T
   3   -324.6107789 -0.586984E-01  0.209E-02    0.00       1.0  T
   4   -324.6063726  0.440629E-02  0.973E-02    0.01       1.0  T
   5   -324.6109830 -0.461046E-02  0.319E-03    0.00       2.3  T
   6   -324.6109855 -0.244651E-05  0.177E-03    0.00       4.1  T
   7   -324.6109867 -0.127449E-05  0.674E-04    0.00      10.9  T
   8   -324.6109867  0.357279E-07  0.627E-04    0.00      11.7  T
   9   -324.6109869 -0.178204E-06  0.936E-05    0.00      78.6  T
  10   -324.6109869 -0.190499E-08  0.637E-05    0.00     115.3  T
     SCC iter.                  ...        0 min,  1.322 sec
     gradient                   ...        0 min,  0.547 sec
 * total energy  :  -319.6042993 Eh     change       -0.6262486E-03 Eh
   gradient norm :     0.0106216 Eh/α   predicted    -0.6233277E-03 (  -0.47%)
   displ. norm   :     0.6999062 α      lambda       -0.7549189E-03
   maximum displ.:     0.5025917 α      in ANC's #11, #10, #24, ...

........................................................................
.............................. CYCLE   40 ..............................
........................................................................
   1   -324.6104273 -0.324610E+03  0.132E-02    0.00       0.0  T
   2   -324.5616675  0.487599E-01  0.326E-01    0.03       1.0  T
   3   -324.6102954 -0.486279E-01  0.205E-02    0.00       1.0  T
   4   -324.6065685  0.372685E-02  0.904E-02    0.00       1.0  T
   5   -324.6104781 -0.390955E-02  0.651E-03    0.00       1.1  T
   6   -324.6104918 -0.137033E-04  0.314E-03    0.00       2.3  T
   7   -324.6104955 -0.373457E-05  0.105E-03    0.00       7.0  T
   8   -324.6104959 -0.383851E-06  0.484E-04    0.00      15.2  T
   9   -324.6104960 -0.104051E-06  0.129E-04    0.00      57.1  T
  10   -324.6104960 -0.572862E-08  0.636E-05    0.00     115.7  T
     SCC iter.                  ...        0 min,  1.318 sec
     gradient                   ...        0 min,  0.552 sec
 * total energy  :  -319.6048717 Eh     change       -0.5723394E-03 Eh
   gradient norm :     0.0097482 Eh/α   predicted    -0.5623681E-03 (  -1.74%)
   displ. norm   :     0.6672496 α      lambda       -0.6475283E-03
   maximum displ.:     0.4863919 α      in ANC's #11, #10, #24, ...

........................................................................
.............................. CYCLE   41 ..............................
........................................................................
   1   -324.6131984 -0.324613E+03  0.103E-02    0.00       0.0  T
   2   -324.5922916  0.209068E-01  0.214E-01    0.02       1.0  T
   3   -324.6128751 -0.205835E-01  0.276E-02    0.00       1.0  T
   4   -324.6067145  0.616064E-02  0.117E-01    0.00       1.0  T
   5   -324.6131917 -0.647720E-02  0.944E-03    0.00       1.0  T
   6   -324.6132196 -0.279649E-04  0.492E-03    0.00       1.5  T
   7   -324.6132272 -0.754961E-05  0.259E-03    0.00       2.8  T
   8   -324.6132300 -0.284418E-05  0.395E-04    0.00      18.6  T
   9   -324.6132301 -0.708751E-07  0.111E-04    0.00      66.5  T
  10   -324.6132301 -0.393766E-08  0.616E-05    0.00     119.3  T
     SCC iter.                  ...        0 min,  1.319 sec
     gradient                   ...        0 min,  0.544 sec
 * total energy  :  -319.6054032 Eh     change       -0.5315765E-03 Eh
   gradient norm :     0.0091757 Eh/α   predicted    -0.4679051E-03 ( -11.98%)
   displ. norm   :     0.7285533 α      lambda       -0.6779617E-03
   maximum displ.:     0.5313056 α      in ANC's #11, #10, #24, ...

........................................................................
.............................. CYCLE   42 ..............................
........................................................................
   1   -324.6124784 -0.324612E+03  0.230E-02    0.00       0.0  T
   2   -324.5130046  0.994739E-01  0.471E-01    0.11       1.0  T
   3   -324.6126772 -0.996726E-01  0.922E-03    0.00       1.0  T
   4   -324.6085320  0.414519E-02  0.921E-02    0.01       1.0  T
   5   -324.6126651 -0.413310E-02  0.102E-02    0.00       1.0  T
   6   -324.6127100 -0.449733E-04  0.137E-03    0.00       5.4  T
   7   -324.6127104 -0.388159E-06  0.921E-04    0.00       8.0  T
   8   -324.6127106 -0.177869E-06  0.708E-04    0.00      10.4  T
   9   -324.6127105  0.682190E-07  0.797E-04    0.00       9.2  T
  10   -324.6127108 -0.283451E-06  0.318E-05    0.00     230.9  T
  11   -324.6127108  0.864907E-08  0.145E-04    0.00      50.6  T
     SCC iter.                  ...        0 min,  1.442 sec
     gradient                   ...        0 min,  0.550 sec
 * total energy  :  -319.6059580 Eh     change       -0.5547700E-03 Eh
   gradient norm :     0.0082793 Eh/α   predicted    -0.5189110E-03 (  -6.46%)
   displ. norm   :     0.6627675 α      lambda       -0.6866719E-03
   maximum displ.:     0.4890476 α      in ANC's #11, #10, #9, ...
[...]
   123   6 C    3.923 --   124 C    2.376   127 C    1.328   126 C    0.190
   124   6 C    3.925 --   123 C    2.376   125 C    1.328   128 C    0.190
   125   6 C    3.932 --   126 C    2.455   124 C    1.328
   126   6 C    3.889 --   125 C    2.455   148 C    1.185   123 C    0.190
   127   6 C    3.935 --   128 C    2.458   123 C    1.328
   128   6 C    3.889 --   127 C    2.458    78 C    1.182   124 C    0.190
   129  29 Cu   2.167 --   165 N    0.500   146 N    0.500   135 N    0.499
                           153 N    0.498
   130   6 C    3.928 --   164 C    1.260   131 C    1.257   122 C    1.186
   131   6 C    3.901 --   135 N    1.259   130 C    1.257   132 C    1.188
   132   6 C    3.956 --   133 C    1.640   131 C    1.188   166 H    0.974
   133   6 C    3.956 --   132 C    1.640   134 C    1.181   167 H    0.973
   134   6 C    3.907 --   136 C    1.325   135 N    1.221   133 C    1.181
   135   7 N    3.241 --   131 C    1.259   134 C    1.221   129 Cu   0.499
   136   6 C    3.932 --   134 C    1.325   143 C    1.321   137 C    1.025
   137   6 C    3.988 --   138 C    1.766   142 C    1.099   136 C    1.025
   138   6 C    3.972 --   137 C    1.766   139 C    1.013   168 H    0.972
   139   6 C    3.961 --   138 C    1.013   170 H    0.975   169 H    0.967
                           140 N    0.949
   140   7 N    3.250 --   141 C    1.162   139 C    0.949   171 H    0.928
                           142 C    0.127
   141   6 C    3.958 --   142 C    1.691   140 N    1.162   172 H    0.971
   142   6 C    3.967 --   141 C    1.691   137 C    1.099   173 H    0.973
                           140 N    0.127
   143   6 C    3.905 --   136 C    1.321   146 N    1.224   144 C    1.182
   144   6 C    3.956 --   145 C    1.640   143 C    1.182   174 H    0.973
   145   6 C    3.955 --   144 C    1.640   147 C    1.188   175 H    0.974
   146   7 N    3.242 --   147 C    1.257   143 C    1.224   129 Cu   0.500
   147   6 C    3.899 --   148 C    1.259   146 N    1.257   145 C    1.188
   148   6 C    3.928 --   147 C    1.259   149 C    1.258   126 C    1.185
   149   6 C    3.901 --   153 N    1.258   148 C    1.258   150 C    1.189
   150   6 C    3.956 --   151 C    1.639   149 C    1.189   176 H    0.974
   151   6 C    3.956 --   150 C    1.639   152 C    1.182   177 H    0.974
   152   6 C    3.907 --   154 C    1.323   153 N    1.222   151 C    1.182
   153   7 N    3.241 --   149 C    1.258   152 C    1.222   129 Cu   0.498
   154   6 C    3.932 --   152 C    1.323   161 C    1.322   155 C    1.026
   155   6 C    3.988 --   156 C    1.767   160 C    1.097   154 C    1.026
   156   6 C    3.972 --   155 C    1.767   157 C    1.013   178 H    0.972
   157   6 C    3.961 --   156 C    1.013   180 H    0.976   179 H    0.966
                           158 N    0.949
   158   7 N    3.248 --   159 C    1.161   157 C    0.949   181 H    0.928
                           160 C    0.127
   159   6 C    3.958 --   160 C    1.692   158 N    1.161   182 H    0.971
   160   6 C    3.968 --   159 C    1.692   155 C    1.097   183 H    0.974
                           158 N    0.127
   161   6 C    3.905 --   154 C    1.322   165 N    1.223   162 C    1.181
   162   6 C    3.956 --   163 C    1.641   161 C    1.181   184 H    0.973
   163   6 C    3.955 --   162 C    1.641   164 C    1.187   185 H    0.974
   164   6 C    3.899 --   130 C    1.260   165 N    1.257   163 C    1.187
   165   7 N    3.242 --   164 C    1.257   161 C    1.223   129 Cu   0.500
   166   1 H    1.002 --   132 C    0.974
   167   1 H    1.007 --   133 C    0.973
   168   1 H    1.003 --   138 C    0.972
   169   1 H    1.009 --   139 C    0.967
   170   1 H    1.018 --   139 C    0.975
   171   1 H    0.964 --   140 N    0.928
   172   1 H    1.002 --   141 C    0.971
   173   1 H    1.003 --   142 C    0.973
   174   1 H    1.005 --   144 C    0.973
   175   1 H    1.002 --   145 C    0.974
   176   1 H    1.002 --   150 C    0.974
   177   1 H    1.007 --   151 C    0.974
   178   1 H    1.003 --   156 C    0.972
   179   1 H    1.008 --   157 C    0.966
   180   1 H    1.019 --   157 C    0.976
   181   1 H    0.964 --   158 N    0.928
   182   1 H    1.001 --   159 C    0.971
   183   1 H    1.003 --   160 C    0.974
   184   1 H    1.006 --   162 C    0.973
   185   1 H    1.002 --   163 C    0.974
 ---------------------------------------------------------------------------

Topologies differ in total number of bonds
Writing topology from bond orders to xtbtopo.mol

 dipole moment from electron density (au)
     X       Y       Z   
   0.3286  -0.0863  -0.1115  total (Debye):    0.909

           -------------------------------------------------
          |                Geometry Summary                 |
           -------------------------------------------------

      molecular mass/u    :     1730.3461659
   center of mass at/Å    :       41.2820041       0.4225609       0.3493347
  moments of inertia/u·Å² :        0.2636062E+05   0.2924535E+06   0.3073191E+06
rotational constants/cm⁻¹ :        0.6395007E-03   0.5764209E-04   0.5485383E-04

 * 176 selected distances

     #   Z          #   Z                                           value/Å
     2   6 C        3   6 C                                       1.3869501
     3   6 C        4   6 C                                       1.4346849
     4   6 C        5   6 C                                       1.3563120
     5   6 C        6   6 C                                       1.4376305
     3   6 C        7   7 N                                       1.3658058
     6   6 C        7   7 N                                       1.3657211
     6   6 C        8   6 C                                       1.3968661
     9   6 C       10   6 C                                       1.3411901
    11   6 C       12   7 N                                       1.4654613
    12   7 N       13   6 C                                       1.3707594
    13   6 C       14   6 C                                       1.3446758
     8   6 C       15   6 C                                       1.3964515
    15   6 C       16   6 C                                       1.4353016
    16   6 C       17   6 C                                       1.3571875
    15   6 C       18   7 N                                       1.3699788
    17   6 C       19   6 C                                       1.4320704
    18   7 N       19   6 C                                       1.3611339
    19   6 C       20   6 C                                       1.4056945
    20   6 C       21   6 C                                       1.4056514
    21   6 C       22   6 C                                       1.4320638
    22   6 C       23   6 C                                       1.3571766
    23   6 C       24   6 C                                       1.4353074
    21   6 C       25   7 N                                       1.3611030
    24   6 C       25   7 N                                       1.3699715
    24   6 C       26   6 C                                       1.3964899
    27   6 C       28   6 C                                       1.3412052
    29   6 C       30   7 N                                       1.4654818
    30   7 N       31   6 C                                       1.3709625
    31   6 C       32   6 C                                       1.3446168
    26   6 C       33   6 C                                       1.3969053
    33   6 C       34   6 C                                       1.4376513
    34   6 C       35   6 C                                       1.3563067
     2   6 C       36   6 C                                       1.3869620
    35   6 C       36   6 C                                       1.4346688
    33   6 C       37   7 N                                       1.3657301
    36   6 C       37   7 N                                       1.3657711
     2   6 C       38   1 H                                       1.0852699
     4   6 C       39   1 H                                       1.0788091
     5   6 C       40   1 H                                       1.0781495
    10   6 C       41   1 H                                       1.0838256
    11   6 C       42   1 H                                       1.0985021
    11   6 C       43   1 H                                       1.1062587
    12   7 N       44   1 H                                       1.0097334
    13   6 C       45   1 H                                       1.0853729
    14   6 C       46   1 H                                       1.0807441
    16   6 C       47   1 H                                       1.0780373
    17   6 C       48   1 H                                       1.0783450
    22   6 C       49   1 H                                       1.0783451
    23   6 C       50   1 H                                       1.0780310
    28   6 C       51   1 H                                       1.0838087
    29   6 C       52   1 H                                       1.0984088
    29   6 C       53   1 H                                       1.1063005
    30   7 N       54   1 H                                       1.0097818
    31   6 C       55   1 H                                       1.0853721
    32   6 C       56   1 H                                       1.0807635
    34   6 C       57   1 H                                       1.0781351
    35   6 C       58   1 H                                       1.0788086
    60   6 C       61   6 C                                       1.3870110
    61   6 C       62   6 C                                       1.4347098
    62   6 C       63   6 C                                       1.3563501
    63   6 C       64   6 C                                       1.4376161
    61   6 C       65   7 N                                       1.3657089
    64   6 C       65   7 N                                       1.3656508
    64   6 C       66   6 C                                       1.3968998
    67   6 C       68   6 C                                       1.3412048
    69   6 C       70   7 N                                       1.4654594
    70   7 N       71   6 C                                       1.3710111
    71   6 C       72   6 C                                       1.3445916
    66   6 C       73   6 C                                       1.3964454
    73   6 C       74   6 C                                       1.4352439
    74   6 C       75   6 C                                       1.3571159
    73   6 C       76   7 N                                       1.3699441
    75   6 C       77   6 C                                       1.4321899
    76   7 N       77   6 C                                       1.3610581
    77   6 C       78   6 C                                       1.4060342
    78   6 C       79   6 C                                       1.4052928
    79   6 C       80   6 C                                       1.4321174
    80   6 C       81   6 C                                       1.3572630
    81   6 C       82   6 C                                       1.4354599
    79   6 C       83   7 N                                       1.3612053
    82   6 C       83   7 N                                       1.3698457
    82   6 C       84   6 C                                       1.3965686
    85   6 C       86   6 C                                       1.3412469
    87   6 C       88   7 N                                       1.4654784
    88   7 N       89   6 C                                       1.3706477
    89   6 C       90   6 C                                       1.3447024
    84   6 C       91   6 C                                       1.3970568
    91   6 C       92   6 C                                       1.4377344
    92   6 C       93   6 C                                       1.3563047
    60   6 C       94   6 C                                       1.3869786
    93   6 C       94   6 C                                       1.4346759
    91   6 C       95   7 N                                       1.3656621
    94   6 C       95   7 N                                       1.3658323
    60   6 C       96   1 H                                       1.0852731
    62   6 C       97   1 H                                       1.0788070
    63   6 C       98   1 H                                       1.0781517
    68   6 C       99   1 H                                       1.0838063
    69   6 C      100   1 H                                       1.0984166
    69   6 C      101   1 H                                       1.1062961
    70   7 N      102   1 H                                       1.0097867
    71   6 C      103   1 H                                       1.0853648
    72   6 C      104   1 H                                       1.0807628
    74   6 C      105   1 H                                       1.0780188
    75   6 C      106   1 H                                       1.0782909
    80   6 C      107   1 H                                       1.0784042
    81   6 C      108   1 H                                       1.0780709
    86   6 C      109   1 H                                       1.0838318
    87   6 C      110   1 H                                       1.0985540
    87   6 C      111   1 H                                       1.1062530
    88   7 N      112   1 H                                       1.0097157 (min)
    89   6 C      113   1 H                                       1.0853776
    90   6 C      114   1 H                                       1.0807461
    92   6 C      115   1 H                                       1.0781358
    93   6 C      116   1 H                                       1.0788112
   117   6 C      118   6 C                                       1.2278863
   119   6 C      120   6 C                                       1.2233823
   121   6 C      122   6 C                                       1.2235720
   123   6 C      124   6 C                                       1.2278356
   125   6 C      126   6 C                                       1.2235525
   127   6 C      128   6 C                                       1.2233706
   130   6 C      131   6 C                                       1.4064525
   131   6 C      132   6 C                                       1.4317351
   132   6 C      133   6 C                                       1.3576134
   133   6 C      134   6 C                                       1.4351033
   131   6 C      135   7 N                                       1.3603281
   134   6 C      135   7 N                                       1.3699800
   134   6 C      136   6 C                                       1.3960438
   137   6 C      138   6 C                                       1.3414571
   139   6 C      140   7 N                                       1.4652375
   140   7 N      141   6 C                                       1.3705996
   141   6 C      142   6 C                                       1.3447201
   136   6 C      143   6 C                                       1.3966698
   143   6 C      144   6 C                                       1.4349300
   144   6 C      145   6 C                                       1.3575999
   143   6 C      146   7 N                                       1.3692222
   145   6 C      147   6 C                                       1.4320145
   146   7 N      147   6 C                                       1.3607869
   147   6 C      148   6 C                                       1.4061216
   148   6 C      149   6 C                                       1.4063324
   149   6 C      150   6 C                                       1.4315658
   150   6 C      151   6 C                                       1.3577314
   151   6 C      152   6 C                                       1.4350991
   149   6 C      153   7 N                                       1.3605741
   152   6 C      153   7 N                                       1.3699128
   152   6 C      154   6 C                                       1.3965774
   155   6 C      156   6 C                                       1.3412418
   157   6 C      158   7 N                                       1.4654932 (max)
   158   7 N      159   6 C                                       1.3707888
   159   6 C      160   6 C                                       1.3446410
   154   6 C      161   6 C                                       1.3967760
   161   6 C      162   6 C                                       1.4350920
   162   6 C      163   6 C                                       1.3573313
   130   6 C      164   6 C                                       1.4059600
   163   6 C      164   6 C                                       1.4320758
   161   6 C      165   7 N                                       1.3693837
   164   6 C      165   7 N                                       1.3608086
   132   6 C      166   1 H                                       1.0783545
   133   6 C      167   1 H                                       1.0779583
   138   6 C      168   1 H                                       1.0838199
   139   6 C      169   1 H                                       1.1063509
   139   6 C      170   1 H                                       1.0985163
   140   7 N      171   1 H                                       1.0097554
   141   6 C      172   1 H                                       1.0853765
   142   6 C      173   1 H                                       1.0807533
   144   6 C      174   1 H                                       1.0782084
   145   6 C      175   1 H                                       1.0783477
   150   6 C      176   1 H                                       1.0783803
   151   6 C      177   1 H                                       1.0779531
   156   6 C      178   1 H                                       1.0837891
   157   6 C      179   1 H                                       1.1061752
   157   6 C      180   1 H                                       1.0984710
   158   7 N      181   1 H                                       1.0097440
   159   6 C      182   1 H                                       1.0853675
   160   6 C      183   1 H                                       1.0807534
   162   6 C      184   1 H                                       1.0780195
   163   6 C      185   1 H                                       1.0783329

 * 4 distinct bonds (by element types)

   Z      Z             #   av. dist./Å        max./Å        min./Å
   1 H    6 C          56     1.0853141     1.1063509     1.0779531
   6 C    6 C          78     1.3811708     1.4377344     1.2233706
   1 H    7 N           6     1.0097528     1.0097867     1.0097157
   6 C    7 N          36     1.3830139     1.4654932     1.3603281


optimized geometry written to: xtbopt.xyz


           -------------------------------------------------
          | TOTAL ENERGY             -319.609899931873 Eh   |
          | GRADIENT NORM               0.000416486588 Eh/α |
          | HOMO-LUMO GAP               0.000780279984 eV   |
           -------------------------------------------------

------------------------------------------------------------------------
 * finished run on 2022/07/30 at 06:05:08.658     
------------------------------------------------------------------------
 total:
 * wall-time:     0 d,  0 h,  4 min, 36.617 sec
 *  cpu-time:     0 d,  0 h,  4 min,  3.033 sec
 * ratio c/w:     0.879 speedup
 SCF:
 * wall-time:     0 d,  0 h,  0 min,  9.056 sec
 *  cpu-time:     0 d,  0 h,  0 min,  8.993 sec
 * ratio c/w:     0.993 speedup
 ANC optimizer:
 * wall-time:     0 d,  0 h,  4 min, 27.217 sec
 *  cpu-time:     0 d,  0 h,  3 min, 53.705 sec
 * ratio c/w:     0.875 speedup

