      -----------------------------------------------------------      
     |                   =====================                   |     
     |                           x T B                           |     
     |                   =====================                   |     
     |                         S. Grimme                         |     
     |          Mulliken Center for Theoretical Chemistry        |     
     |                    University of Bonn                     |     
      -----------------------------------------------------------      

   * xtb version 6.5.1 (b24c23e) compiled by 'conda@728c89f4b128' on 2022-07-12

   xtb is free software: you can redistribute it and/or modify it under
   the terms of the GNU Lesser General Public License as published by
   the Free Software Foundation, either version 3 of the License, or
   (at your option) any later version.
   
   xtb is distributed in the hope that it will be useful,
   but WITHOUT ANY WARRANTY; without even the implied warranty of
   MERCHANTABILITY or FITNESS FOR A PARTICULAR PURPOSE.  See the
   GNU Lesser General Public License for more details.
   
   Cite this work as:
   * C. Bannwarth, E. Caldeweyher, S. Ehlert, A. Hansen, P. Pracht,
     J. Seibert, S. Spicher, S. Grimme, WIREs Comput. Mol. Sci., 2020, 11,
     e01493. DOI: 10.1002/wcms.1493
   
   for GFN2-xTB:
   * C. Bannwarth, S. Ehlert and S. Grimme., J. Chem. Theory Comput., 2019,
     15, 1652-1671. DOI: 10.1021/acs.jctc.8b01176
   for GFN1-xTB:
   * S. Grimme, C. Bannwarth, P. Shushkov, J. Chem. Theory Comput., 2017,
     13, 1989-2009. DOI: 10.1021/acs.jctc.7b00118
   for GFN0-xTB:
   * P. Pracht, E. Caldeweyher, S. Ehlert, S. Grimme, ChemRxiv, 2019, preprint.
     DOI: 10.26434/chemrxiv.8326202.v1
   for GFN-FF:
   * S. Spicher and S. Grimme, Angew. Chem. Int. Ed., 2020, 59, 15665-15673.
     DOI: 10.1002/anie.202004239
   
   for ALPB and GBSA implicit solvation:
   * S. Ehlert, M. Stahn, S. Spicher, S. Grimme, J. Chem. Theory Comput.,
     2021, 17, 4250-4261. DOI: 10.1021/acs.jctc.1c00471
   
   for DFT-D4:
   * E. Caldeweyher, C. Bannwarth and S. Grimme, J. Chem. Phys., 2017,
     147, 034112. DOI: 10.1063/1.4993215
   * E. Caldeweyher, S. Ehlert, A. Hansen, H. Neugebauer, S. Spicher,
     C. Bannwarth and S. Grimme, J. Chem. Phys., 2019, 150, 154122.
     DOI: 10.1063/1.5090222
   * E. Caldeweyher, J.-M. Mewes, S. Ehlert and S. Grimme, Phys. Chem. Chem. Phys.
     2020, 22, 8499-8512. DOI: 10.1039/D0CP00502A
   
   for sTDA-xTB:
   * S. Grimme and C. Bannwarth, J. Chem. Phys., 2016, 145, 054103.
     DOI: 10.1063/1.4959605
   
   in the mass-spec context:
   * V. Asgeirsson, C. Bauer and S. Grimme, Chem. Sci., 2017, 8, 4879.
     DOI: 10.1039/c7sc00601b
   * J. Koopman and S. Grimme, ACS Omega 2019, 4, 12, 15120-15133.
     DOI: 10.1021/acsomega.9b02011
   
   for metadynamics refer to:
   * S. Grimme, J. Chem. Theory Comput., 2019, 155, 2847-2862
     DOI: 10.1021/acs.jctc.9b00143
   
   for SPH calculations refer to:
   * S. Spicher and S. Grimme, J. Chem. Theory Comput., 2021, 17, 1701-1714
     DOI: 10.1021/acs.jctc.0c01306
   
   with help from (in alphabetical order)
   P. Atkinson, C. Bannwarth, F. Bohle, G. Brandenburg, E. Caldeweyher
   M. Checinski, S. Dohm, S. Ehlert, S. Ehrlich, I. Gerasimov, C. Hölzer
   A. Katbashev, J. Koopman, C. Lavigne, S. Lehtola, F. März, M. Müller,
   F. Musil, H. Neugebauer, J. Pisarek, C. Plett, P. Pracht, F. Pultar,
   J. Seibert, P. Shushkov, S. Spicher, M. Stahn, M. Steiner, T. Strunk,
   J. Stückrath, T. Rose, and J. Unsleber
   
 * started run on 2022/07/30 at 04:41:47.128     

           -------------------------------------------------
          |                Calculation Setup                |
           -------------------------------------------------

          program call               : xtb Cu_Py_C4_2.xyz --gfn 1 --opt -T 48
          hostname                   : cx3-14-19.cx3.hpc.ic.ac.uk
          coordinate file            : Cu_Py_C4_2.xyz
          omp threads                :                     1

   ID    Z sym.   atoms
    1   29 Cu     1, 55
    2    6 C      2-6, 8-11, 13-17, 19-24, 26-29, 31-36, 56-60, 62-65, 67-71,
                  73-78, 80-83, 85-90, 109-112
    3    7 N      7, 12, 18, 25, 30, 37, 61, 66, 72, 79, 84, 91
    4    1 H      38-54, 92-108
########################################################################
[WARNING] Please study the warnings concerning your input carefully
-1- prog_main_parseArguments: Unknown option '-T' provided
########################################################################

           -------------------------------------------------
          |                 G F N 1 - x T B                 |
           -------------------------------------------------

        Reference                      10.1021/acs.jctc.7b00118
      * Hamiltonian:
        H0-scaling (s, p, d)           1.850000    2.250000    2.000000
        zeta-weighting                 0.000000
      * Dispersion:
        s8                             2.400000
        a1                             0.630000
        a2                             5.000000
        s9                             0.000000
      * Repulsion:
        kExp                           1.500000
        rExp                           1.000000
      * Coulomb:
        alpha                          2.000000
        third order                    atomic
        anisotropic                    false
      * Halogen bond correction:
        rad-scale                      1.300000
        damping                        0.440000


          ...................................................
          :                      SETUP                      :
          :.................................................:
          :  # basis functions                 392          :
          :  # atomic orbitals                 390          :
          :  # shells                          226          :
          :  # electrons                       372          :
          :  # halogen bonds                     0          :
          :  max. iterations                   250          :
          :  Hamiltonian                  GFN1-xTB          :
          :  restarted?                      false          :
          :  GBSA solvation                  false          :
          :  PC potential                    false          :
          :  electronic temp.          300.0000000     K    :
          :  accuracy                    1.0000000          :
          :  -> integral cutoff          0.2500000E+02      :
          :  -> integral neglect         0.1000000E-07      :
          :  -> SCF convergence          0.1000000E-05 Eh   :
          :  -> wf. convergence          0.2000000E-04 e    :
          :  Broyden damping             0.4000000          :
          ...................................................

 iter      E             dE          RMSdq      gap      omega  full diag
   1   -203.3036972 -0.203304E+03  0.105E+01    0.00       0.0  T
   2   -203.4384053 -0.134708E+00  0.632E+00    0.03       1.0  T
   3   -199.4690703  0.396933E+01  0.323E+00    0.07       1.0  T
   4   -201.3390243 -0.186995E+01  0.164E+00    0.18       1.0  T
   5   -201.6233283 -0.284304E+00  0.154E+00    0.07       1.0  T
   6   -203.3846449 -0.176132E+01  0.670E-01    0.07       1.0  T
   7   -203.4462497 -0.616049E-01  0.397E-01    0.04       1.0  T
   8   -203.3138768  0.132373E+00  0.757E-01    0.17       1.0  T
   9   -203.3243966 -0.105198E-01  0.719E-01    0.15       1.0  T
  10   -203.3258698 -0.147327E-02  0.690E-01    0.14       1.0  T
  11   -203.3147067  0.111631E-01  0.905E-01    0.18       1.0  T
  12   -203.3174809 -0.277413E-02  0.809E-01    0.17       1.0  T
  13   -203.3421185 -0.246377E-01  0.723E-01    0.13       1.0  T
  14   -203.4724936 -0.130375E+00  0.981E-02    0.01       1.0  T
  15   -203.4718528  0.640809E-03  0.106E-01    0.01       1.0  T
  16   -203.4681761  0.367669E-02  0.153E-01    0.02       1.0  T
  17   -203.4745343 -0.635816E-02  0.180E-02    0.00       1.0  T
  18   -203.4743747  0.159579E-03  0.354E-02    0.00       1.0  T
  19   -203.4743907 -0.159562E-04  0.293E-02    0.00       1.0  T
  20   -203.4746407 -0.250006E-03  0.502E-03    0.00       1.9  T
  21   -203.4746258  0.148420E-04  0.896E-03    0.00       1.1  T
  22   -203.4746449 -0.190384E-04  0.217E-03    0.00       4.3  T
  23   -203.4746459 -0.109306E-05  0.195E-04    0.00      48.4  T
  24   -203.4746459  0.104585E-07  0.296E-04    0.00      31.9  T
  25   -203.4746460 -0.164640E-07  0.156E-04    0.00      60.6  T
  26   -203.4746460 -0.590026E-08  0.361E-05    0.00     261.9  T

   *** convergence criteria satisfied after 26 iterations ***

         #    Occupation            Energy/Eh            Energy/eV
      -------------------------------------------------------------
         1        2.0000           -0.7725284             -21.0216
       ...           ...                  ...                  ...
       180        2.0000           -0.4022219             -10.9450
       181        2.0000           -0.4016442             -10.9293
       182        2.0000           -0.4014188             -10.9232
       183        2.0000           -0.3986500             -10.8478
       184        2.0000           -0.3914424             -10.6517
       185        2.0000           -0.3851569             -10.4807
       186        0.9983           -0.3530150              -9.6060 (HOMO)
       187        0.9819           -0.3529838              -9.6052 (LUMO)
       188        0.0198           -0.3486447              -9.4871
       189                         -0.3325392              -9.0489
       190                         -0.3305882              -8.9958
       191                         -0.3230904              -8.7917
       ...                                ...                  ...
       390                          1.2453391              33.8874
      -------------------------------------------------------------
                  HL-Gap            0.0000312 Eh            0.0008 eV
             Fermi-level           -0.3530182 Eh           -9.6061 eV

 SCC (total)                   0 d,  0 h,  0 min,  1.968 sec
 SCC setup                      ...        0 min,  0.005 sec (  0.249%)
 Dispersion                     ...        0 min,  0.004 sec (  0.218%)
 classical contributions        ...        0 min,  0.002 sec (  0.082%)
 integral evaluation            ...        0 min,  0.169 sec (  8.582%)
 iterations                     ...        0 min,  1.358 sec ( 69.011%)
 molecular gradient             ...        0 min,  0.416 sec ( 21.154%)
 printout                       ...        0 min,  0.014 sec (  0.702%)

         :::::::::::::::::::::::::::::::::::::::::::::::::::::
         ::                     SUMMARY                     ::
         :::::::::::::::::::::::::::::::::::::::::::::::::::::
         :: total energy            -200.535146160357 Eh    ::
         :: gradient norm              0.495795831694 Eh/a0 ::
         :: HOMO-LUMO gap              0.000848437685 eV    ::
         ::.................................................::
         :: SCC energy              -203.474645961778 Eh    ::
         :: -> electrostatic           0.180644529814 Eh    ::
         :: repulsion energy           3.039765424968 Eh    ::
         :: dispersion energy         -0.100265623546 Eh    ::
         :: halogen bond corr.         0.000000000000 Eh    ::
         :: add. restraining           0.000000000000 Eh    ::
         :: total charge              -0.000000000000 e     ::
         :::::::::::::::::::::::::::::::::::::::::::::::::::::

      ----------------------------------------------------------- 
     |                   =====================                   |
     |                        A N C O P T                        |
     |                   =====================                   |
     |               Approximate Normal Coordinate               |
     |                Rational Function Optimizer                |
      ----------------------------------------------------------- 

          ...................................................
          :                      SETUP                      :
          :.................................................:
          :   optimization level            normal          :
          :   max. optcycles                   336          :
          :   ANC micro-cycles                  20          :
          :   degrees of freedom               330          :
          :.................................................:
          :   RF solver                   davidson          :
          :   write xtbopt.log                true          :
          :   linear?                        false          :
          :   energy convergence         0.5000000E-05 Eh   :
          :   grad. convergence          0.1000000E-02 Eh/α :
          :   maximium RF displ.         1.0000000          :
          :   Hlow (freq-cutoff)         0.1000000E-01      :
          :   Hmax (freq-cutoff)         5.0000000          :
          :   S6 in model hess.         20.0000000          :
          ...................................................

generating ANC from model Hessian ...
Using Lindh-Hessian (1995)
 Shifting diagonal of input Hessian by    1.0064273091864957E-002
 Lowest  eigenvalues of input Hessian
    0.010000    0.010044    0.010046    0.010059    0.000000    0.000000
    0.000000    0.000000    0.000000    0.000000    0.010194    0.010244
    0.010319    0.010324    0.010620    0.010701    0.010755    0.010762
 Highest eigenvalues
    2.095001    2.095214    2.101588    2.102615    2.104140    2.536578


........................................................................
.............................. CYCLE    1 ..............................
........................................................................
   1   -203.4746460 -0.203475E+03  0.151E-06    0.00       0.0  T
   2   -203.4746460  0.696133E-09  0.503E-05    0.00     188.0  T
   3   -203.4746460 -0.542173E-09  0.239E-05    0.00     395.3  T
     SCC iter.                  ...        0 min,  0.158 sec
     gradient                   ...        0 min,  0.411 sec
 * total energy  :  -200.5351462 Eh     change       -0.1741398E-09 Eh
   gradient norm :     0.4957959 Eh/α   predicted     0.0000000E+00 (-100.00%)
   displ. norm   :     0.4430383 α      lambda       -0.1673219E+00
   maximum displ.:     0.0970356 α      in ANC's #156, #155, #131, ...

........................................................................
.............................. CYCLE    2 ..............................
........................................................................
   1   -203.5689472 -0.203569E+03  0.145E-01    0.00       0.0  T
   2   -203.4769315  0.920157E-01  0.587E-01    0.10       1.0  T
   3   -203.4221068  0.548248E-01  0.736E-01    0.15       1.0  T
   4   -203.5713625 -0.149256E+00  0.658E-02    0.01       1.0  T
   5   -203.5718826 -0.520078E-03  0.456E-02    0.01       1.0  T
   6   -203.5723304 -0.447855E-03  0.153E-02    0.00       1.0  T
   7   -203.5721782  0.152220E-03  0.284E-02    0.00       1.0  T
   8   -203.5723936 -0.215356E-03  0.553E-03    0.00       1.7  T
   9   -203.5723930  0.607374E-06  0.560E-03    0.00       1.7  T
  10   -203.5724016 -0.861585E-05  0.199E-04    0.00      47.6  T
  11   -203.5724011  0.450136E-06  0.131E-03    0.00       7.2  T
  12   -203.5724016 -0.431078E-06  0.332E-04    0.00      28.5  T
  13   -203.5724016 -0.179872E-07  0.216E-04    0.00      43.7  T
  14   -203.5724016 -0.115989E-07  0.626E-05    0.00     150.9  T
  15   -203.5724016 -0.103779E-08  0.931E-06    0.00    1015.4  T
     SCC iter.                  ...        0 min,  0.741 sec
     gradient                   ...        0 min,  0.412 sec
 * total energy  :  -200.6691436 Eh     change       -0.1339975E+00 Eh
   gradient norm :     0.2871662 Eh/α   predicted    -0.1001057E+00 ( -25.29%)
   displ. norm   :     0.4995146 α      lambda       -0.1105672E+00
   maximum displ.:     0.1261082 α      in ANC's #32, #156, #324, ...

........................................................................
.............................. CYCLE    3 ..............................
........................................................................
   1   -203.6997419 -0.203700E+03  0.173E-01    0.00       0.0  T
   2   -203.6876968  0.120451E-01  0.242E-01    0.03       1.0  T
   3   -203.5122706  0.175426E+00  0.832E-01    0.35       1.0  T
   4   -203.6965526 -0.184282E+00  0.168E-01    0.02       1.0  T
   5   -203.7040095 -0.745691E-02  0.325E-02    0.01       1.0  T
   6   -203.7028254  0.118410E-02  0.713E-02    0.01       1.0  T
   7   -203.7031499 -0.324515E-03  0.635E-02    0.01       1.0  T
   8   -203.7042078 -0.105788E-02  0.907E-03    0.00       1.0  T
   9   -203.7042191 -0.113568E-04  0.646E-03    0.00       1.5  T
  10   -203.7042305 -0.114063E-04  0.583E-04    0.00      16.2  T
  11   -203.7042297  0.792754E-06  0.180E-03    0.00       5.2  T
  12   -203.7042306 -0.882133E-06  0.170E-04    0.00      55.5  T
  13   -203.7042306 -0.803831E-08  0.796E-06    0.00    1187.3  T
     SCC iter.                  ...        0 min,  0.621 sec
     gradient                   ...        0 min,  0.269 sec
 * total energy  :  -200.7152822 Eh     change       -0.4613856E-01 Eh
   gradient norm :     0.2605215 Eh/α   predicted    -0.6907792E-01 (  49.72%)
   displ. norm   :     0.3655575 α      lambda       -0.4684386E-01
   maximum displ.:     0.1582140 α      in ANC's #32, #23, #69, ...

........................................................................
.............................. CYCLE    4 ..............................
........................................................................
   1   -203.7013947 -0.203701E+03  0.600E-02    0.01       0.0  T
   2   -203.5765910  0.124804E+00  0.673E-01    0.13       1.0  T
   3   -203.6986870 -0.122096E+00  0.111E-01    0.02       1.0  T
   4   -203.7012851 -0.259813E-02  0.530E-02    0.01       1.0  T
   5   -203.7019820 -0.696859E-03  0.149E-02    0.01       1.0  T
   6   -203.7019531  0.288401E-04  0.175E-02    0.01       1.0  T
   7   -203.7020320 -0.788758E-04  0.452E-03    0.01       2.1  T
   8   -203.7020369 -0.486935E-05  0.189E-03    0.01       5.0  T
   9   -203.7020374 -0.566892E-06  0.125E-03    0.01       7.6  T
  10   -203.7020379 -0.421920E-06  0.212E-04    0.01      44.5  T
  11   -203.7020378  0.316220E-07  0.397E-04    0.01      23.8  T
  12   -203.7020379 -0.426370E-07  0.503E-05    0.01     187.7  T
  13   -203.7020379 -0.452872E-09  0.308E-05    0.01     306.9  T
     SCC iter.                  ...        0 min,  0.487 sec
     gradient                   ...        0 min,  0.268 sec
 * total energy  :  -200.7383892 Eh     change       -0.2310700E-01 Eh
   gradient norm :     0.0615706 Eh/α   predicted    -0.2655266E-01 (  14.91%)
   displ. norm   :     0.5809993 α      lambda       -0.1385078E-01
   maximum displ.:     0.3696803 α      in ANC's #32, #23, #69, ...

........................................................................
.............................. CYCLE    5 ..............................
........................................................................
   1   -203.7219502 -0.203722E+03  0.333E-02    0.01       0.0  T
   2   -203.7214286  0.521555E-03  0.489E-02    0.01       1.0  T
   3   -203.6695965  0.518322E-01  0.437E-01    0.06       1.0  T
   4   -203.7220217 -0.524253E-01  0.134E-02    0.01       1.0  T
   5   -203.7220761 -0.543550E-04  0.790E-03    0.01       1.2  T
   6   -203.7220894 -0.133532E-04  0.261E-03    0.01       3.6  T
   7   -203.7220899 -0.473621E-06  0.132E-03    0.01       7.2  T
   8   -203.7220903 -0.449107E-06  0.570E-04    0.01      16.6  T
   9   -203.7220904 -0.100097E-06  0.993E-05    0.01      95.2  T
  10   -203.7220904  0.194987E-08  0.124E-04    0.01      76.1  T
     SCC iter.                  ...        0 min,  0.375 sec
     gradient                   ...        0 min,  0.265 sec
 * total energy  :  -200.7500964 Eh     change       -0.1170721E-01 Eh
   gradient norm :     0.0358981 Eh/α   predicted    -0.9263297E-02 ( -20.88%)
   displ. norm   :     0.7575193 α      lambda       -0.1255702E-01
   maximum displ.:     0.4746871 α      in ANC's #32, #23, #13, ...

........................................................................
.............................. CYCLE    6 ..............................
........................................................................
   1   -203.7470854 -0.203747E+03  0.324E-02    0.01       0.0  T
   2   -203.7255353  0.215501E-01  0.283E-01    0.04       1.0  T
   3   -203.7434402 -0.179049E-01  0.118E-01    0.02       1.0  T
   4   -203.7471556 -0.371543E-02  0.119E-02    0.01       1.0  T
   5   -203.7472009 -0.452683E-04  0.718E-03    0.01       1.3  T
   6   -203.7472096 -0.866507E-05  0.287E-03    0.01       3.3  T
   7   -203.7472116 -0.198634E-05  0.650E-04    0.01      14.5  T
   8   -203.7472117 -0.153457E-06  0.281E-04    0.01      33.6  T
   9   -203.7472117 -0.260186E-07  0.744E-05    0.01     127.0  T
  10   -203.7472117 -0.112911E-08  0.244E-05    0.01     387.1  T
     SCC iter.                  ...        0 min,  0.374 sec
     gradient                   ...        0 min,  0.270 sec
 * total energy  :  -200.7600092 Eh     change       -0.9912833E-02 Eh
   gradient norm :     0.0164953 Eh/α   predicted    -0.9881550E-02 (  -0.32%)
   displ. norm   :     0.7993939 α      lambda       -0.9064024E-02
   maximum displ.:     0.4708380 α      in ANC's #23, #32, #13, ...

........................................................................
.............................. CYCLE    7 ..............................
........................................................................
   1   -203.7673883 -0.203767E+03  0.244E-02    0.01       0.0  T
   2   -203.7455789  0.218094E-01  0.285E-01    0.04       1.0  T
   3   -203.7650158 -0.194368E-01  0.957E-02    0.01       1.0  T
   4   -203.7674545 -0.243877E-02  0.614E-03    0.01       1.5  T
   5   -203.7674573 -0.282002E-05  0.517E-03    0.01       1.8  T
   6   -203.7674634 -0.607091E-05  0.194E-03    0.00       4.9  T
   7   -203.7674640 -0.596612E-06  0.738E-04    0.01      12.8  T
   8   -203.7674642 -0.142524E-06  0.191E-04    0.00      49.5  T
   9   -203.7674642 -0.160987E-07  0.487E-05    0.00     194.2  T
     SCC iter.                  ...        0 min,  0.337 sec
     gradient                   ...        0 min,  0.265 sec
 * total energy  :  -200.7641137 Eh     change       -0.4104474E-02 Eh
   gradient norm :     0.0313438 Eh/α   predicted    -0.7428151E-02 (  80.98%)
   displ. norm   :     0.6455626 α      lambda       -0.9543641E-02
   maximum displ.:     0.3684817 α      in ANC's #23, #32, #13, ...

........................................................................
.............................. CYCLE    8 ..............................
........................................................................
   1   -203.7982280 -0.203798E+03  0.214E-02    0.00       0.0  T
   2   -203.7699011  0.283270E-01  0.325E-01    0.04       1.0  T
   3   -203.7978761 -0.279751E-01  0.402E-02    0.01       1.0  T
   4   -203.7982629 -0.386754E-03  0.704E-03    0.00       1.3  T
   5   -203.7982602  0.268614E-05  0.414E-03    0.00       2.3  T
   6   -203.7982662 -0.604172E-05  0.125E-03    0.00       7.6  T
   7   -203.7982669 -0.619811E-06  0.288E-04    0.00      32.9  T
   8   -203.7982669 -0.224101E-07  0.766E-05    0.00     123.3  T
   9   -203.7982669 -0.244830E-08  0.413E-05    0.00     228.9  T
     SCC iter.                  ...        0 min,  0.338 sec
     gradient                   ...        0 min,  0.268 sec
 * total energy  :  -200.7697769 Eh     change       -0.5663199E-02 Eh
   gradient norm :     0.0250455 Eh/α   predicted    -0.6760502E-02 (  19.38%)
   displ. norm   :     0.6105761 α      lambda       -0.4432741E-02
   maximum displ.:     0.4030310 α      in ANC's #23, #13, #32, ...

........................................................................
.............................. CYCLE    9 ..............................
........................................................................
   1   -203.8132020 -0.203813E+03  0.103E-02    0.00       0.0  T
   2   -203.8098390  0.336307E-02  0.113E-01    0.01       1.0  T
   3   -203.8129880 -0.314906E-02  0.294E-02    0.01       1.0  T
   4   -203.8132096 -0.221547E-03  0.506E-03    0.00       1.9  T
   5   -203.8132120 -0.243696E-05  0.246E-03    0.00       3.8  T
   6   -203.8132137 -0.164038E-05  0.109E-03    0.00       8.7  T
   7   -203.8132141 -0.404556E-06  0.133E-04    0.00      71.1  T
   8   -203.8132141 -0.200413E-08  0.923E-05    0.00     102.4  T
     SCC iter.                  ...        0 min,  0.297 sec
     gradient                   ...        0 min,  0.270 sec
 * total energy  :  -200.7722183 Eh     change       -0.2441403E-02 Eh
   gradient norm :     0.0230416 Eh/α   predicted    -0.3042645E-02 (  24.63%)
   displ. norm   :     0.5860404 α      lambda       -0.4385516E-02
   maximum displ.:     0.4149225 α      in ANC's #23, #13, #32, ...

........................................................................
.............................. CYCLE   10 ..............................
........................................................................
   1   -203.8329765 -0.203833E+03  0.129E-02    0.00       0.0  T
   2   -203.8233888  0.958770E-02  0.190E-01    0.02       1.0  T
   3   -203.8327449 -0.935605E-02  0.310E-02    0.00       1.0  T
   4   -203.8329897 -0.244753E-03  0.478E-03    0.00       2.0  T
   5   -203.8329929 -0.327180E-05  0.238E-03    0.00       4.0  T
   6   -203.8329943 -0.140105E-05  0.862E-04    0.00      11.0  T
   7   -203.8329945 -0.215426E-06  0.150E-04    0.00      63.0  T
   8   -203.8329945 -0.620409E-08  0.843E-05    0.00     112.1  T
     SCC iter.                  ...        0 min,  0.301 sec
     gradient                   ...        0 min,  0.267 sec
 * total energy  :  -200.7754094 Eh     change       -0.3191035E-02 Eh
   gradient norm :     0.0097679 Eh/α   predicted    -0.2945853E-02 (  -7.68%)
   displ. norm   :     0.5833542 α      lambda       -0.2477601E-02
   maximum displ.:     0.4109429 α      in ANC's #23, #13, #29, ...

........................................................................
.............................. CYCLE   11 ..............................
........................................................................
   1   -203.8434024 -0.203843E+03  0.108E-02    0.00       0.0  T
   2   -203.8348673  0.853508E-02  0.180E-01    0.02       1.0  T
   3   -203.8433242 -0.845696E-02  0.191E-02    0.00       1.0  T
   4   -203.8434166 -0.923755E-04  0.326E-03    0.00       2.9  T
   5   -203.8434192 -0.259861E-05  0.163E-03    0.00       5.8  T
   6   -203.8434195 -0.334156E-06  0.745E-04    0.00      12.7  T
   7   -203.8434197 -0.144595E-06  0.166E-04    0.00      56.8  T
   8   -203.8434197 -0.817937E-08  0.630E-05    0.00     149.9  T
     SCC iter.                  ...        0 min,  0.297 sec
     gradient                   ...        0 min,  0.273 sec
 * total energy  :  -200.7773983 Eh     change       -0.1988949E-02 Eh
   gradient norm :     0.0099344 Eh/α   predicted    -0.1660374E-02 ( -16.52%)
   displ. norm   :     0.6098356 α      lambda       -0.1932074E-02
   maximum displ.:     0.4060797 α      in ANC's #23, #13, #29, ...

........................................................................
.............................. CYCLE   12 ..............................
........................................................................
   1   -203.8518687 -0.203852E+03  0.669E-03    0.00       0.0  T
   2   -203.8495365  0.233215E-02  0.940E-02    0.01       1.0  T
   3   -203.8517724 -0.223585E-02  0.198E-02    0.00       1.0  T
   4   -203.8518725 -0.100082E-03  0.294E-03    0.00       3.2  T
   5   -203.8518740 -0.152177E-05  0.106E-03    0.00       8.9  T
   6   -203.8518741 -0.135559E-06  0.416E-04    0.00      22.7  T
   7   -203.8518742 -0.910016E-07  0.133E-04    0.00      71.1  T
   8   -203.8518742 -0.478443E-08  0.462E-05    0.00     204.7  T
     SCC iter.                  ...        0 min,  0.301 sec
     gradient                   ...        0 min,  0.266 sec
 * total energy  :  -200.7789594 Eh     change       -0.1561130E-02 Eh
   gradient norm :     0.0107279 Eh/α   predicted    -0.1325309E-02 ( -15.11%)
   displ. norm   :     0.6376181 α      lambda       -0.1612237E-02
   maximum displ.:     0.4041662 α      in ANC's #23, #13, #21, ...

........................................................................
.............................. CYCLE   13 ..............................
........................................................................
   1   -203.8558166 -0.203856E+03  0.872E-03    0.00       0.0  T
   2   -203.8476869  0.812971E-02  0.176E-01    0.02       1.0  T
   3   -203.8557144 -0.802748E-02  0.209E-02    0.00       1.0  T
   4   -203.8558267 -0.112323E-03  0.311E-03    0.00       3.0  T
   5   -203.8558288 -0.206712E-05  0.195E-03    0.00       4.8  T
   6   -203.8558295 -0.751621E-06  0.563E-04    0.00      16.8  T
   7   -203.8558296 -0.794763E-07  0.150E-04    0.00      63.0  T
   8   -203.8558296 -0.598877E-08  0.514E-05    0.00     183.9  T
     SCC iter.                  ...        0 min,  0.301 sec
     gradient                   ...        0 min,  0.269 sec
 * total energy  :  -200.7801646 Eh     change       -0.1205211E-02 Eh
   gradient norm :     0.0089318 Eh/α   predicted    -0.1133855E-02 (  -5.92%)
   displ. norm   :     0.5485650 α      lambda       -0.9918096E-03
   maximum displ.:     0.3605748 α      in ANC's #13, #23, #19, ...

........................................................................
.............................. CYCLE   14 ..............................
........................................................................
   1   -203.8574744 -0.203857E+03  0.573E-03    0.00       0.0  T
   2   -203.8574393  0.350449E-04  0.123E-02    0.00       1.0  T
   3   -203.8559953  0.144400E-02  0.751E-02    0.01       1.0  T
   4   -203.8574756 -0.148029E-02  0.352E-03    0.00       2.7  T
   5   -203.8574785 -0.291550E-05  0.144E-03    0.00       6.6  T
   6   -203.8574789 -0.436360E-06  0.339E-04    0.00      27.8  T
   7   -203.8574790 -0.191052E-07  0.119E-04    0.00      79.1  T
   8   -203.8574790 -0.379987E-08  0.319E-05    0.00     296.1  T
     SCC iter.                  ...        0 min,  0.297 sec
     gradient                   ...        0 min,  0.272 sec
 * total energy  :  -200.7808762 Eh     change       -0.7115191E-03 Eh
   gradient norm :     0.0046277 Eh/α   predicted    -0.6451398E-03 (  -9.33%)
   displ. norm   :     0.3628483 α      lambda       -0.4142578E-03
   maximum displ.:     0.2709205 α      in ANC's #13, #23, #19, ...

........................................................................
.............................. CYCLE   15 ..............................
........................................................................
   1   -203.8593547 -0.203859E+03  0.517E-03    0.00       0.0  T
   2   -203.8549931  0.436166E-02  0.129E-01    0.02       1.0  T
   3   -203.8593451 -0.435202E-02  0.747E-03    0.00       1.3  T
   4   -203.8593588 -0.136623E-04  0.175E-03    0.00       5.4  T
   5   -203.8593595 -0.722704E-06  0.908E-04    0.00      10.4  T
   6   -203.8593596 -0.149278E-06  0.292E-04    0.00      32.3  T
   7   -203.8593597 -0.257749E-07  0.469E-05    0.00     201.4  T
   8   -203.8593597 -0.510710E-09  0.249E-05    0.00     379.7  T
     SCC iter.                  ...        0 min,  0.301 sec
     gradient                   ...        0 min,  0.268 sec
 * total energy  :  -200.7812032 Eh     change       -0.3269888E-03 Eh
   gradient norm :     0.0036650 Eh/α   predicted    -0.2344015E-03 ( -28.32%)
   displ. norm   :     0.2277256 α      lambda       -0.2468574E-03
   maximum displ.:     0.1865282 α      in ANC's #13, #19, #8, ...

........................................................................
.............................. CYCLE   16 ..............................
........................................................................
   1   -203.8600888 -0.203860E+03  0.159E-03    0.00       0.0  T
   2   -203.8600637  0.250317E-04  0.981E-03    0.00       1.0  T
   3   -203.8600685 -0.474692E-05  0.885E-03    0.00       1.1  T
   4   -203.8600890 -0.204899E-04  0.409E-04    0.00      23.1  T
   5   -203.8600890 -0.156037E-07  0.254E-04    0.00      37.3  T
   6   -203.8600890 -0.130803E-07  0.110E-04    0.00      85.9  T
   7   -203.8600890 -0.352426E-08  0.300E-05    0.00     315.2  T
     SCC iter.                  ...        0 min,  0.263 sec
     gradient                   ...        0 min,  0.273 sec
 * total energy  :  -200.7814239 Eh     change       -0.2207546E-03 Eh
   gradient norm :     0.0032762 Eh/α   predicted    -0.1298335E-03 ( -41.19%)
   displ. norm   :     0.2452798 α      lambda       -0.2824151E-03
   maximum displ.:     0.1878154 α      in ANC's #13, #19, #23, ...

........................................................................
.............................. CYCLE   17 ..............................
........................................................................
   1   -203.8602059 -0.203860E+03  0.179E-03    0.00       0.0  T
   2   -203.8598890  0.316854E-03  0.347E-02    0.00       1.0  T
   3   -203.8602049 -0.315827E-03  0.246E-03    0.00       3.8  T
   4   -203.8602064 -0.152564E-05  0.540E-04    0.00      17.5  T
   5   -203.8602065 -0.881511E-07  0.291E-04    0.00      32.4  T
   6   -203.8602065 -0.153608E-07  0.860E-05    0.00     109.9  T
   7   -203.8602065 -0.957471E-09  0.317E-05    0.00     298.0  T
     SCC iter.                  ...        0 min,  0.273 sec
     gradient                   ...        0 min,  0.267 sec
 * total energy  :  -200.7816787 Eh     change       -0.2548339E-03 Eh
   gradient norm :     0.0030792 Eh/α   predicted    -0.1497053E-03 ( -41.25%)
   displ. norm   :     0.3282260 α      lambda       -0.3351209E-03
   maximum displ.:     0.2375197 α      in ANC's #13, #23, #19, ...

........................................................................
.............................. CYCLE   18 ..............................
........................................................................
   1   -203.8595379 -0.203860E+03  0.296E-03    0.00       0.0  T
   2   -203.8577631  0.177479E-02  0.822E-02    0.01       1.0  T
   3   -203.8595369 -0.177377E-02  0.334E-03    0.00       2.8  T
   4   -203.8595396 -0.272399E-05  0.848E-04    0.00      11.1  T
   5   -203.8595398 -0.170970E-06  0.498E-04    0.00      19.0  T
   6   -203.8595398 -0.509058E-07  0.167E-04    0.00      56.6  T
   7   -203.8595398 -0.590086E-08  0.326E-05    0.00     290.3  T
     SCC iter.                  ...        0 min,  0.262 sec
     gradient                   ...        0 min,  0.266 sec
 * total energy  :  -200.7819724 Eh     change       -0.2936940E-03 Eh
   gradient norm :     0.0035597 Eh/α   predicted    -0.1856147E-03 ( -36.80%)
   displ. norm   :     0.3668047 α      lambda       -0.3106366E-03
   maximum displ.:     0.2626618 α      in ANC's #13, #23, #19, ...

........................................................................
.............................. CYCLE   19 ..............................
........................................................................
   1   -203.8591631 -0.203859E+03  0.246E-03    0.00       0.0  T
   2   -203.8579991  0.116402E-02  0.666E-02    0.01       1.0  T
   3   -203.8591625 -0.116344E-02  0.262E-03    0.00       3.6  T
   4   -203.8591643 -0.173518E-05  0.457E-04    0.00      20.7  T
   5   -203.8591643 -0.470332E-07  0.252E-04    0.00      37.4  T
   6   -203.8591643 -0.722184E-08  0.113E-04    0.00      83.6  T
   7   -203.8591643 -0.434275E-08  0.236E-05    0.00     399.7  T
     SCC iter.                  ...        0 min,  0.258 sec
     gradient                   ...        0 min,  0.268 sec
 * total energy  :  -200.7822389 Eh     change       -0.2664384E-03 Eh
   gradient norm :     0.0037653 Eh/α   predicted    -0.1762206E-03 ( -33.86%)
   displ. norm   :     0.3459154 α      lambda       -0.2402065E-03
   maximum displ.:     0.2512952 α      in ANC's #13, #23, #11, ...

........................................................................
.............................. CYCLE   20 ..............................
........................................................................
   1   -203.8590220 -0.203859E+03  0.144E-03    0.00       0.0  T
   2   -203.8588976  0.124465E-03  0.218E-02    0.00       1.0  T
   3   -203.8590185 -0.120952E-03  0.383E-03    0.00       2.5  T
   4   -203.8590223 -0.375558E-05  0.534E-04    0.00      17.7  T
   5   -203.8590223 -0.576404E-07  0.269E-04    0.00      35.1  T
   6   -203.8590224 -0.176304E-07  0.915E-05    0.00     103.2  T
   7   -203.8590224 -0.198986E-08  0.150E-05    0.00     629.1  T
     SCC iter.                  ...        0 min,  0.260 sec
     gradient                   ...        0 min,  0.266 sec
 * total energy  :  -200.7824428 Eh     change       -0.2039668E-03 Eh
   gradient norm :     0.0032131 Eh/α   predicted    -0.1344799E-03 ( -34.07%)
   displ. norm   :     0.2914015 α      lambda       -0.1697319E-03
   maximum displ.:     0.2176550 α      in ANC's #13, #11, #23, ...
 * RMSD in coord.:     0.6618342 α      energy gain  -0.2472967E+00 Eh

generating ANC from model Hessian ...
Using Lindh-Hessian (1995)
 Shifting diagonal of input Hessian by    1.0025605351764806E-002
 Lowest  eigenvalues of input Hessian
    0.010000    0.010006    0.010019    0.000000    0.000000    0.000000
    0.000000    0.000000    0.000000    0.010074    0.010110    0.010225
    0.010251    0.010661    0.010709    0.010767    0.010768    0.010784
 Highest eigenvalues
    2.107758    2.107892    2.134375    2.134382    2.359551    2.878656


........................................................................
.............................. CYCLE   21 ..............................
........................................................................
   1   -203.8597453 -0.203860E+03  0.142E-03    0.00       0.0  T
   2   -203.8596312  0.114060E-03  0.209E-02    0.00       1.0  T
   3   -203.8597408 -0.109617E-03  0.428E-03    0.00       2.2  T
   4   -203.8597456 -0.478740E-05  0.584E-04    0.00      16.2  T
   5   -203.8597457 -0.603254E-07  0.396E-04    0.00      23.9  T
   6   -203.8597457 -0.352753E-07  0.818E-05    0.00     115.5  T
   7   -203.8597457 -0.118874E-08  0.161E-05    0.00     587.5  T
     SCC iter.                  ...        0 min,  0.262 sec
     gradient                   ...        0 min,  0.266 sec
 * total energy  :  -200.7825887 Eh     change       -0.1458115E-03 Eh
   gradient norm :     0.0021049 Eh/α   predicted     0.0000000E+00 (-100.00%)
   displ. norm   :     0.0603850 α      lambda       -0.4693001E-04
   maximum displ.:     0.0414891 α      in ANC's #12, #10, #20, ...

........................................................................
.............................. CYCLE   22 ..............................
........................................................................
   1   -203.8609679 -0.203861E+03  0.112E-03    0.00       0.0  T
   2   -203.8607065  0.261372E-03  0.316E-02    0.00       1.0  T
   3   -203.8609679 -0.261359E-03  0.103E-03    0.00       9.1  T
   4   -203.8609682 -0.269590E-06  0.269E-04    0.00      35.1  T
   5   -203.8609682 -0.207479E-07  0.156E-04    0.00      60.6  T
   6   -203.8609682 -0.330169E-08  0.521E-05    0.00     181.2  T
     SCC iter.                  ...        0 min,  0.220 sec
     gradient                   ...        0 min,  0.269 sec
 * total energy  :  -200.7826339 Eh     change       -0.4520033E-04 Eh
   gradient norm :     0.0013304 Eh/α   predicted    -0.2402975E-04 ( -46.84%)
   displ. norm   :     0.3816018 α      lambda       -0.1778866E-03
   maximum displ.:     0.2295048 α      in ANC's #12, #10, #20, ...

........................................................................
.............................. CYCLE   23 ..............................
........................................................................
   1   -203.8641632 -0.203864E+03  0.621E-03    0.00       0.0  T
   2   -203.8552659  0.889738E-02  0.184E-01    0.02       1.0  T
   3   -203.8641644 -0.889855E-02  0.539E-03    0.00       1.8  T
   4   -203.8641721 -0.762821E-05  0.122E-03    0.00       7.7  T
   5   -203.8641726 -0.541281E-06  0.717E-04    0.00      13.2  T
   6   -203.8641727 -0.801797E-07  0.283E-04    0.00      33.4  T
   7   -203.8641727 -0.141308E-07  0.658E-05    0.00     143.6  T
   8   -203.8641727 -0.109981E-08  0.225E-05    0.00     419.3  T
     SCC iter.                  ...        0 min,  0.300 sec
     gradient                   ...        0 min,  0.266 sec
 * total energy  :  -200.7828403 Eh     change       -0.2064949E-03 Eh
   gradient norm :     0.0032297 Eh/α   predicted    -0.9471364E-04 ( -54.13%)
   displ. norm   :     0.2962639 α      lambda       -0.1442222E-03
   maximum displ.:     0.1760103 α      in ANC's #12, #10, #20, ...

........................................................................
.............................. CYCLE   24 ..............................
........................................................................
   1   -203.8641267 -0.203864E+03  0.192E-03    0.00       0.0  T
   2   -203.8638182  0.308514E-03  0.343E-02    0.00       1.0  T
   3   -203.8641237 -0.305511E-03  0.374E-03    0.00       2.5  T
   4   -203.8641273 -0.357498E-05  0.600E-04    0.00      15.7  T
   5   -203.8641274 -0.722490E-07  0.384E-04    0.00      24.6  T
   6   -203.8641274 -0.321721E-07  0.970E-05    0.00      97.4  T
   7   -203.8641274 -0.149168E-08  0.262E-05    0.00     360.9  T
     SCC iter.                  ...        0 min,  0.259 sec
     gradient                   ...        0 min,  0.269 sec
 * total energy  :  -200.7829644 Eh     change       -0.1240212E-03 Eh
   gradient norm :     0.0037455 Eh/α   predicted    -0.7844063E-04 ( -36.75%)
   displ. norm   :     0.3946414 α      lambda       -0.1702788E-03
   maximum displ.:     0.2326672 α      in ANC's #12, #10, #20, ...

........................................................................
.............................. CYCLE   25 ..............................
........................................................................
   1   -203.8635169 -0.203864E+03  0.180E-03    0.00       0.0  T
   2   -203.8634831  0.338138E-04  0.114E-02    0.00       1.0  T
   3   -203.8634991 -0.159697E-04  0.836E-03    0.00       1.1  T
   4   -203.8635171 -0.180882E-04  0.602E-04    0.00      15.7  T
   5   -203.8635172 -0.406373E-07  0.401E-04    0.00      23.6  T
   6   -203.8635172 -0.423660E-07  0.949E-05    0.00      99.5  T
   7   -203.8635172 -0.226703E-08  0.246E-05    0.00     384.5  T
     SCC iter.                  ...        0 min,  0.258 sec
     gradient                   ...        0 min,  0.268 sec
 * total energy  :  -200.7831053 Eh     change       -0.1409170E-03 Eh
   gradient norm :     0.0037174 Eh/α   predicted    -0.9840143E-04 ( -30.17%)
   displ. norm   :     0.4246253 α      lambda       -0.1651604E-03
   maximum displ.:     0.2503424 α      in ANC's #12, #10, #20, ...

........................................................................
.............................. CYCLE   26 ..............................
........................................................................
   1   -203.8628133 -0.203863E+03  0.191E-03    0.00       0.0  T
   2   -203.8624986  0.314736E-03  0.347E-02    0.00       1.0  T
   3   -203.8628126 -0.314027E-03  0.221E-03    0.00       4.3  T
   4   -203.8628137 -0.109289E-05  0.639E-04    0.00      14.8  T
   5   -203.8628138 -0.627301E-07  0.358E-04    0.00      26.4  T
   6   -203.8628138 -0.367461E-07  0.105E-04    0.00      90.3  T
   7   -203.8628138 -0.256995E-08  0.203E-05    0.00     465.4  T
     SCC iter.                  ...        0 min,  0.261 sec
     gradient                   ...        0 min,  0.267 sec
 * total energy  :  -200.7832389 Eh     change       -0.1336027E-03 Eh
   gradient norm :     0.0034473 Eh/α   predicted    -0.9747246E-04 ( -27.04%)
   displ. norm   :     0.4276109 α      lambda       -0.1626280E-03
   maximum displ.:     0.2521080 α      in ANC's #12, #10, #20, ...

........................................................................
.............................. CYCLE   27 ..............................
........................................................................
   1   -203.8629288 -0.203863E+03  0.196E-03    0.00       0.0  T
   2   -203.8625932  0.335567E-03  0.358E-02    0.00       1.0  T
   3   -203.8629269 -0.333655E-03  0.311E-03    0.00       3.0  T
   4   -203.8629294 -0.249309E-05  0.622E-04    0.00      15.2  T
   5   -203.8629295 -0.127392E-06  0.295E-04    0.00      32.0  T
   6   -203.8629295 -0.999177E-08  0.101E-04    0.00      93.5  T
   7   -203.8629295 -0.203622E-08  0.231E-05    0.00     409.5  T
     SCC iter.                  ...        0 min,  0.260 sec
     gradient                   ...        0 min,  0.269 sec
 * total energy  :  -200.7833684 Eh     change       -0.1294714E-03 Eh
   gradient norm :     0.0032055 Eh/α   predicted    -0.9618298E-04 ( -25.71%)
   displ. norm   :     0.3909306 α      lambda       -0.1536093E-03
   maximum displ.:     0.2307475 α      in ANC's #10, #12, #20, ...

........................................................................
.............................. CYCLE   28 ..............................
........................................................................
   1   -203.8643478 -0.203864E+03  0.202E-03    0.00       0.0  T
   2   -203.8641766  0.171172E-03  0.256E-02    0.00       1.0  T
   3   -203.8643405 -0.163924E-03  0.548E-03    0.00       1.7  T
   4   -203.8643484 -0.786428E-05  0.646E-04    0.00      14.6  T
   5   -203.8643485 -0.125354E-06  0.345E-04    0.00      27.4  T
   6   -203.8643486 -0.142666E-07  0.129E-04    0.00      73.4  T
   7   -203.8643486 -0.416554E-08  0.233E-05    0.00     405.1  T
     SCC iter.                  ...        0 min,  0.259 sec
     gradient                   ...        0 min,  0.268 sec
 * total energy  :  -200.7834885 Eh     change       -0.1201421E-03 Eh
   gradient norm :     0.0031351 Eh/α   predicted    -0.8854269E-04 ( -26.30%)
   displ. norm   :     0.3765775 α      lambda       -0.1238482E-03
   maximum displ.:     0.2334346 α      in ANC's #10, #12, #8, ...

........................................................................
.............................. CYCLE   29 ..............................
........................................................................
   1   -203.8647525 -0.203865E+03  0.150E-03    0.00       0.0  T
   2   -203.8647370  0.154522E-04  0.776E-03    0.00       1.2  T
   3   -203.8647264  0.106467E-04  0.100E-02    0.00       1.0  T
   4   -203.8647527 -0.263644E-04  0.515E-04    0.00      18.4  T
   5   -203.8647528 -0.618459E-07  0.313E-04    0.00      30.2  T
   6   -203.8647528 -0.190353E-07  0.906E-05    0.00     104.3  T
   7   -203.8647528 -0.196826E-08  0.251E-05    0.00     375.7  T
     SCC iter.                  ...        0 min,  0.263 sec
     gradient                   ...        0 min,  0.265 sec
 * total energy  :  -200.7835848 Eh     change       -0.9632205E-04 Eh
   gradient norm :     0.0033756 Eh/α   predicted    -0.7070787E-04 ( -26.59%)
   displ. norm   :     0.2948848 α      lambda       -0.8879181E-04
   maximum displ.:     0.1925383 α      in ANC's #10, #12, #8, ...

........................................................................
.............................. CYCLE   30 ..............................
........................................................................
   1   -203.8651948 -0.203865E+03  0.136E-03    0.00       0.0  T
   2   -203.8650072  0.187602E-03  0.268E-02    0.00       1.0  T
   3   -203.8651945 -0.187323E-03  0.150E-03    0.00       6.3  T
   4   -203.8651950 -0.500856E-06  0.460E-04    0.00      20.6  T
   5   -203.8651950 -0.313825E-07  0.254E-04    0.00      37.1  T
   6   -203.8651951 -0.166086E-07  0.638E-05    0.00     148.1  T
   7   -203.8651951 -0.110825E-08  0.161E-05    0.00     586.0  T
     SCC iter.                  ...        0 min,  0.260 sec
     gradient                   ...        0 min,  0.270 sec
 * total energy  :  -200.7836542 Eh     change       -0.6933394E-04 Eh
   gradient norm :     0.0028280 Eh/α   predicted    -0.4825808E-04 ( -30.40%)
   displ. norm   :     0.2436588 α      lambda       -0.6404513E-04
   maximum displ.:     0.1667448 α      in ANC's #10, #12, #8, ...

........................................................................
.............................. CYCLE   31 ..............................
........................................................................
   1   -203.8645652 -0.203865E+03  0.132E-03    0.00       0.0  T
   2   -203.8643248  0.240349E-03  0.303E-02    0.00       1.0  T
   3   -203.8645649 -0.240089E-03  0.149E-03    0.00       6.4  T
   4   -203.8645655 -0.629905E-06  0.428E-04    0.00      22.1  T
   5   -203.8645656 -0.510420E-07  0.201E-04    0.00      47.0  T
   6   -203.8645656 -0.637576E-08  0.524E-05    0.00     180.5  T
   7   -203.8645656 -0.161748E-09  0.177E-05    0.00     535.2  T
     SCC iter.                  ...        0 min,  0.259 sec
     gradient                   ...        0 min,  0.270 sec
 * total energy  :  -200.7837053 Eh     change       -0.5115585E-04 Eh
   gradient norm :     0.0018742 Eh/α   predicted    -0.3392805E-04 ( -33.68%)
   displ. norm   :     0.2478043 α      lambda       -0.4567072E-04
   maximum displ.:     0.1783820 α      in ANC's #10, #12, #17, ...

........................................................................
.............................. CYCLE   32 ..............................
........................................................................
   1   -203.8647203 -0.203865E+03  0.177E-03    0.00       0.0  T
   2   -203.8645026  0.217740E-03  0.289E-02    0.00       1.0  T
   3   -203.8647176 -0.215030E-03  0.348E-03    0.00       2.7  T
   4   -203.8647210 -0.336565E-05  0.671E-04    0.00      14.1  T
   5   -203.8647211 -0.138882E-06  0.251E-04    0.00      37.7  T
   6   -203.8647211 -0.661095E-08  0.684E-05    0.00     138.2  T
   7   -203.8647211 -0.526938E-09  0.214E-05    0.00     440.7  T
     SCC iter.                  ...        0 min,  0.263 sec
     gradient                   ...        0 min,  0.265 sec
 * total energy  :  -200.7837535 Eh     change       -0.4823072E-04 Eh
   gradient norm :     0.0014975 Eh/α   predicted    -0.2346194E-04 ( -51.35%)
   displ. norm   :     0.1593321 α      lambda       -0.2737799E-04
   maximum displ.:     0.1193232 α      in ANC's #10, #17, #12, ...

........................................................................
.............................. CYCLE   33 ..............................
........................................................................
   1   -203.8634072 -0.203863E+03  0.117E-03    0.00       0.0  T
   2   -203.8633993  0.789941E-05  0.554E-03    0.00       1.7  T
   3   -203.8633928  0.649041E-05  0.746E-03    0.00       1.3  T
   4   -203.8634073 -0.144905E-04  0.494E-04    0.00      19.1  T
   5   -203.8634074 -0.744374E-07  0.219E-04    0.00      43.2  T
   6   -203.8634074 -0.406530E-08  0.690E-05    0.00     136.9  T
   7   -203.8634074 -0.114304E-08  0.157E-05    0.00     600.1  T
     SCC iter.                  ...        0 min,  0.259 sec
     gradient                   ...        0 min,  0.269 sec
 * total energy  :  -200.7837839 Eh     change       -0.3038621E-04 Eh
   gradient norm :     0.0018778 Eh/α   predicted    -0.1384772E-04 ( -54.43%)
   displ. norm   :     0.1473378 α      lambda       -0.2871115E-04
   maximum displ.:     0.1036019 α      in ANC's #10, #20, #17, ...

........................................................................
.............................. CYCLE   34 ..............................
........................................................................
   1   -203.8649784 -0.203865E+03  0.108E-03    0.00       0.0  T
   2   -203.8648898  0.885259E-04  0.184E-02    0.00       1.0  T
   3   -203.8649778 -0.879547E-04  0.171E-03    0.00       5.5  T
   4   -203.8649785 -0.705745E-06  0.328E-04    0.00      28.8  T
   5   -203.8649785  0.541652E-08  0.233E-04    0.00      40.6  T
   6   -203.8649785 -0.180484E-07  0.519E-05    0.00     182.0  T
   7   -203.8649785 -0.103304E-08  0.155E-05    0.00     611.0  T
     SCC iter.                  ...        0 min,  0.258 sec
     gradient                   ...        0 min,  0.267 sec
 * total energy  :  -200.7838161 Eh     change       -0.3218248E-04 Eh
   gradient norm :     0.0019665 Eh/α   predicted    -0.1449513E-04 ( -54.96%)
   displ. norm   :     0.2137242 α      lambda       -0.3346938E-04
   maximum displ.:     0.1592839 α      in ANC's #10, #14, #17, ...

........................................................................
.............................. CYCLE   35 ..............................
........................................................................
   1   -203.8641363 -0.203864E+03  0.125E-03    0.00       0.0  T
   2   -203.8641204  0.158216E-04  0.782E-03    0.00       1.2  T
   3   -203.8641290 -0.854191E-05  0.534E-03    0.00       1.8  T
   4   -203.8641363 -0.736217E-05  0.527E-04    0.00      17.9  T
   5   -203.8641364 -0.530904E-07  0.276E-04    0.00      34.3  T
   6   -203.8641364 -0.196896E-07  0.600E-05    0.00     157.4  T
   7   -203.8641364 -0.646281E-09  0.140E-05    0.00     675.5  T
     SCC iter.                  ...        0 min,  0.279 sec
     gradient                   ...        0 min,  0.288 sec
 * total energy  :  -200.7838460 Eh     change       -0.2984323E-04 Eh
   gradient norm :     0.0018862 Eh/α   predicted    -0.1707525E-04 ( -42.78%)
   displ. norm   :     0.1184477 α      lambda       -0.1906819E-04
   maximum displ.:     0.0895211 α      in ANC's #10, #20, #17, ...

........................................................................
.............................. CYCLE   36 ..............................
........................................................................
   1   -203.8651740 -0.203865E+03  0.992E-04    0.00       0.0  T
   2   -203.8651188  0.552094E-04  0.145E-02    0.00       1.0  T
   3   -203.8651729 -0.541043E-04  0.218E-03    0.00       4.3  T
   4   -203.8651741 -0.123222E-05  0.378E-04    0.00      25.0  T
   5   -203.8651742 -0.410938E-07  0.174E-04    0.00      54.4  T
   6   -203.8651742 -0.227200E-08  0.472E-05    0.00     200.0  T
     SCC iter.                  ...        0 min,  0.237 sec
     gradient                   ...        0 min,  0.301 sec
 * total energy  :  -200.7838650 Eh     change       -0.1906309E-04 Eh
   gradient norm :     0.0010618 Eh/α   predicted    -0.9596536E-05 ( -49.66%)
   displ. norm   :     0.0987404 α      lambda       -0.1156728E-04
   maximum displ.:     0.0810938 α      in ANC's #10, #14, #11, ...

........................................................................
.............................. CYCLE   37 ..............................
........................................................................
   1   -203.8652633 -0.203865E+03  0.641E-04    0.00       0.0  T
   2   -203.8652379  0.254106E-04  0.986E-03    0.00       1.0  T
   3   -203.8652627 -0.248249E-04  0.157E-03    0.00       6.0  T
   4   -203.8652634 -0.657296E-06  0.229E-04    0.00      41.2  T
   5   -203.8652634 -0.173666E-07  0.125E-04    0.00      75.4  T
   6   -203.8652634 -0.262145E-08  0.244E-05    0.00     387.7  T
     SCC iter.                  ...        0 min,  0.243 sec
     gradient                   ...        0 min,  0.291 sec
 * total energy  :  -200.7838780 Eh     change       -0.1294613E-04 Eh
   gradient norm :     0.0009987 Eh/α   predicted    -0.5811226E-05 ( -55.11%)
   displ. norm   :     0.0752464 α      lambda       -0.1014052E-04
   maximum displ.:     0.0601692 α      in ANC's #10, #14, #25, ...

........................................................................
.............................. CYCLE   38 ..............................
........................................................................
   1   -203.8651806 -0.203865E+03  0.784E-04    0.00       0.0  T
   2   -203.8650788  0.101834E-03  0.197E-02    0.00       1.0  T
   3   -203.8651804 -0.101611E-03  0.115E-03    0.00       8.2  T
   4   -203.8651807 -0.320094E-06  0.291E-04    0.00      32.5  T
   5   -203.8651808 -0.205577E-07  0.156E-04    0.00      60.7  T
   6   -203.8651808 -0.437720E-08  0.506E-05    0.00     186.9  T
     SCC iter.                  ...        0 min,  0.241 sec
     gradient                   ...        0 min,  0.287 sec
 * total energy  :  -200.7838881 Eh     change       -0.1012025E-04 Eh
   gradient norm :     0.0011315 Eh/α   predicted    -0.5085590E-05 ( -49.75%)
   displ. norm   :     0.0635796 α      lambda       -0.7114531E-05
   maximum displ.:     0.0492593 α      in ANC's #10, #25, #14, ...

........................................................................
.............................. CYCLE   39 ..............................
........................................................................
   1   -203.8649198 -0.203865E+03  0.840E-04    0.00       0.0  T
   2   -203.8647434  0.176364E-03  0.260E-02    0.00       1.0  T
   3   -203.8649198 -0.176379E-03  0.743E-04    0.00      12.7  T
   4   -203.8649199 -0.984648E-07  0.378E-04    0.00      25.0  T
   5   -203.8649199 -0.269225E-07  0.188E-04    0.00      50.3  T
   6   -203.8649199 -0.903484E-08  0.285E-05    0.00     331.9  T
     SCC iter.                  ...        0 min,  0.236 sec
     gradient                   ...        0 min,  0.302 sec
 * total energy  :  -200.7838956 Eh     change       -0.7540968E-05 Eh
   gradient norm :     0.0009141 Eh/α   predicted    -0.3567962E-05 ( -52.69%)
   displ. norm   :     0.0591948 α      lambda       -0.5569865E-05
   maximum displ.:     0.0452360 α      in ANC's #10, #25, #14, ...

........................................................................
.............................. CYCLE   40 ..............................
........................................................................
   1   -203.8642740 -0.203864E+03  0.417E-04    0.00       0.0  T
   2   -203.8642723  0.172608E-05  0.258E-03    0.00       3.7  T
   3   -203.8642732 -0.925448E-06  0.177E-03    0.00       5.3  T
   4   -203.8642741 -0.809591E-06  0.178E-04    0.00      53.1  T
   5   -203.8642741 -0.106521E-07  0.836E-05    0.00     113.1  T
     SCC iter.                  ...        0 min,  0.199 sec
     gradient                   ...        0 min,  0.299 sec
 * total energy  :  -200.7839015 Eh     change       -0.5901364E-05 Eh
   gradient norm :     0.0007949 Eh/α   predicted    -0.2791181E-05 ( -52.70%)
   displ. norm   :     0.0652368 α      lambda       -0.5569679E-05
   maximum displ.:     0.0506659 α      in ANC's #10, #12, #17, ...

........................................................................
.............................. CYCLE   41 ..............................
........................................................................
   1   -203.8644560 -0.203864E+03  0.503E-04    0.00       0.0  T
   2   -203.8644409  0.150791E-04  0.760E-03    0.00       1.2  T
   3   -203.8644555 -0.145928E-04  0.141E-03    0.00       6.7  T
   4   -203.8644561 -0.509023E-06  0.215E-04    0.00      44.0  T
   5   -203.8644561 -0.170045E-07  0.668E-05    0.00     141.5  T
   6   -203.8644561  0.648299E-10  0.328E-05    0.00     288.1  T
     SCC iter.                  ...        0 min,  0.241 sec
     gradient                   ...        0 min,  0.291 sec
 * total energy  :  -200.7839072 Eh     change       -0.5701698E-05 Eh
   gradient norm :     0.0006993 Eh/α   predicted    -0.2792415E-05 ( -51.02%)
   displ. norm   :     0.0667518 α      lambda       -0.4429222E-05
   maximum displ.:     0.0538760 α      in ANC's #10, #14, #12, ...

........................................................................
.............................. CYCLE   42 ..............................
........................................................................
   1   -203.8645162 -0.203865E+03  0.401E-04    0.00       0.0  T
   2   -203.8645092  0.706189E-05  0.519E-03    0.00       1.8  T
   3   -203.8645159 -0.668913E-05  0.124E-03    0.00       7.6  T
   4   -203.8645162 -0.361974E-06  0.343E-04    0.00      27.5  T
   5   -203.8645162 -0.188234E-07  0.208E-04    0.00      45.5  T
   6   -203.8645162 -0.108706E-07  0.229E-05    0.00     412.7  T
   7   -203.8645162  0.224532E-11  0.214E-05    0.00     441.0  T
     SCC iter.                  ...        0 min,  0.277 sec
     gradient                   ...        0 min,  0.298 sec
 * total energy  :  -200.7839113 Eh     change       -0.4104550E-05 Eh
   gradient norm :     0.0007656 Eh/α   predicted    -0.2223464E-05 ( -45.83%)
   displ. norm   :     0.0422717 α      lambda       -0.2775421E-05
   maximum displ.:     0.0352104 α      in ANC's #10, #12, #5, ...

   *** GEOMETRY OPTIMIZATION CONVERGED AFTER 42 ITERATIONS ***

------------------------------------------------------------------------
 total energy gain   :        -0.2487652 Eh     -156.1025 kcal/mol
 total RMSD          :         0.8837002 a0        0.4676 Å
 total power (kW/mol):       -15.5507826 (step)  -21.8957 (real)
------------------------------------------------------------------------

 ANCopt (total)                0 d,  0 h,  0 min, 29.829 sec
 optimizer setup                ...        0 min,  0.000 sec (  0.001%)
 model hessian                  ...        0 min,  0.100 sec (  0.334%)
 ANC generation                 ...        0 min,  0.043 sec (  0.145%)
 coordinate transformation      ...        0 min,  0.005 sec (  0.017%)
 single point calculation       ...        0 min, 29.634 sec ( 99.346%)
 optimization log               ...        0 min,  0.022 sec (  0.073%)
 hessian update                 ...        0 min,  0.005 sec (  0.015%)
 rational function              ...        0 min,  0.016 sec (  0.053%)

================
 final structure:
================
112
 xtb: 6.5.1 (b24c23e)
Cu          12.36030673013548       -0.04504677353241        0.00061646433892
C            8.95423044270187       -0.06808221656700       -0.01666818610415
C            9.58510637573815       -1.29806868146273        0.09411253060091
C            8.90635957633457       -2.55520599172050        0.22925065528646
C            9.86238066872782       -3.51130776142444        0.33263388693132
C           11.13500189116925       -2.84673270313642        0.25383550510097
N           10.93527244212192       -1.50372161667185        0.11347696827766
C           12.37805045131190       -3.47679003221835        0.34807306618114
C           12.38579235321983       -4.95182529562572        0.50482583672178
C           12.89744180574457       -5.55403997325626        1.65361743358983
C           12.87952570732301       -6.93594401814444        1.75761480633972
N           12.39780559881655       -7.72784601063748        0.80487366194507
C           11.91066356183960       -7.16185171292802       -0.29471840267995
C           11.88056644731847       -5.78974235430939       -0.48844053312519
C           13.61345488673995       -2.82786615649582        0.31096314309785
C           14.88909438152651       -3.48428087206005        0.36807636184653
C           15.83808374219241       -2.51828622251283        0.27913559478426
N           13.80622403711661       -1.47820135236609        0.17853002528881
C           15.15043459419675       -1.26748672793499        0.15960660450006
C           15.78951717166559       -0.02280265514685        0.02383371944489
C           15.13527473915886        1.21333873684476       -0.11838992474961
C           15.80803079920781        2.46618365212599       -0.28882895347317
C           14.84791960130234        3.41950399679692       -0.39358735308534
C           13.58034731880371        2.75524544434733       -0.27853686848443
N           13.78879387665126        1.41043243431339       -0.12234472908831
C           12.33683015647264        3.38724659566980       -0.34220373323599
C           12.32613160336621        4.86250414425013       -0.49071379088714
C           11.75399519034486        5.47368356660683       -1.60609084151571
C           11.76872133907011        6.85613935602892       -1.70192071198190
N           12.30355332476651        7.64123892807578       -0.77213890650357
C           12.84920431168050        7.06712994917525        0.29520519076497
C           12.88618806623074        5.69380885379010        0.47866234600345
C           11.10124502947756        2.73828414954231       -0.27744188988159
C            9.82071331344732        3.39219538078475       -0.29332201347747
C            8.87674103800210        2.42273649329126       -0.20509050577409
C            9.57085365727288        1.16931342509781       -0.12518364347485
N           10.91821913588224        1.39028849967171       -0.16399219589572
H            7.86911434019780       -0.07330475972867       -0.00820364970655
H            7.83470470544338       -2.67637843394804        0.24796275508618
H            9.72487674602116       -4.57270629193175        0.46253301404709
H           13.28994502370864       -4.94736945550776        2.46104720713826
H           13.26804844183493       -7.42755444625412        2.64473434515883
H           11.52740122535654       -7.83502561157745       -1.05596686650123
H           11.48388607905230       -5.37323311550323       -1.40671038940540
H           15.03600583975422       -4.54885805862638        0.45246801027486
H           16.91020055415802       -2.63343349221745        0.28673884666065
H           16.87846479563387        2.58944775606629       -0.32854624521679
H           14.98255065028194        4.47773401474440       -0.54815945720366
H           11.31787723058757        4.87336665460567       -2.39578040342867
H           11.33264051943131        7.35410975965603       -2.56319366289509
H           13.27615970377168        7.73441681706089        1.03825496006219
H           13.33069207444496        5.27142275775924        1.37202064292178
H            9.66984739839429        4.45811410224043       -0.35119647926746
H            7.80392322399485        2.53312734050001       -0.18755872644344
Cu          25.82569775383373        0.04430501203291       -0.01128017992807
C           29.23171744184748        0.06056867019071       -0.03420238061185
C           28.60101937296720        1.27092262372625       -0.27994545440024
C           29.28007541861034        2.51417763002611       -0.50928150301831
C           28.32430927766431        3.45920181576181       -0.68873112135727
C           27.05151407270112        2.79947330801152       -0.57801166067100
N           27.25091790595788        1.47307342440185       -0.32452616112773
C           25.80846358267314        3.42889585139747       -0.67687668521937
C           25.80092796530105        4.88551256466377       -0.95662964829142
C           25.27912313951778        5.79546408362934       -0.03800023873410
C           25.29778436192415        7.14776594756027       -0.34082019686226
N           25.78952747426117        7.62867542366568       -1.47818493557299
C           26.28632622288032        6.76774979945530       -2.36056313743529
C           26.31654737960826        5.39875017112710       -2.14604862602361
C           24.57281035324042        2.79627271207088       -0.52887757298432
C           23.29725502638594        3.43947372401487       -0.67255776433722
C           22.34816450055037        2.48957288796658       -0.47616556674818
N           24.37991607640314        1.46719472011364       -0.25957711693195
C           23.03566555507642        1.25954297395809       -0.21955407869776
C           22.39641942112646        0.03024543208530        0.01773547202930
C           23.05045152977384       -1.19299910952601        0.24622133800191
C           22.37738683837358       -2.43998268959584        0.45465927410303
C           23.33738563106519       -3.38280791041119        0.63090757580270
C           24.60519301326980       -2.71521234972157        0.54015249139038
N           24.39695177986522       -1.38355900234761        0.29583199690111
C           25.84853838427613       -3.33991645737385        0.65619163448409
C           25.85866828017811       -4.79468085098360        0.94331017349064
C           26.41941573186432       -5.70567589447118        0.04865742303555
C           26.40451697171222       -7.05603641769175        0.36008085553640
N           25.88011836702132       -7.53473253860574        1.48377790177669
C           25.34534692135323       -6.67316484922910        2.34301553808323
C           25.30928779904125       -5.30593330914293        2.11852745059234
C           27.08426472656710       -2.70181282417863        0.52331704802331
C           28.36481783965664       -3.33445067797250        0.68906516147848
C           29.30898053016778       -2.38109635002605        0.49311331963011
C           28.61497408414172       -1.15631424233989        0.21476386890371
N           27.26753614367714       -1.37801045557146        0.24501325179561
H           30.31683182274661        0.06794414429045       -0.02738275577218
H           30.35173083399253        2.63611567417266       -0.52223044748012
H           28.46218754574979        4.51319431450143       -0.86887240045254
H           24.87794343961249        5.44967515358474        0.90736409316533
H           24.90037237108480        7.87578554466678        0.36070683333322
H           26.67834533660788        7.19069936426934       -3.28101592886699
H           26.72147934802283        4.73355931176950       -2.89953352281841
H           23.15046031320484        4.48143621395454       -0.90658089035086
H           21.27607431685907        2.60107837214584       -0.50668999846835
H           21.30683980389516       -2.56856135178977        0.45733449640211
H           23.20253768064494       -4.43956472656947        0.79511751391013
H           26.84681227879227       -5.36261296734459       -0.88614031694192
H           26.83153377568736       -7.78454534774162       -0.32328236623425
H           24.92683872578988       -7.09387141602387        3.25271602818942
H           24.87377859593740       -4.64034786314116        2.85437116462724
H           28.51558223599991       -4.37284621524504        0.93657327438944
H           30.38188170837130       -2.48305103564597        0.53682677290471
C           18.41789232074805       -0.00196761125457        0.02019860752451
C           17.19625560241968       -0.01432630230656        0.02065885097394
C           19.76817071411291        0.00995238369680        0.01958677796895
C           20.98964643601360        0.02137949775271        0.01861894898327

 Bond Distances (Angstroems)
 ---------------------------
Cu1-N7=2.0423        Cu1-N18=2.0436       Cu1-N25=2.0431       Cu1-N37=2.0413       C2-C3=1.3868         C2-C36=1.3868        
C2-H38=1.0852        C3-C2=1.3868         C3-C4=1.4350         C3-N7=1.3659         C4-C3=1.4350         C4-C5=1.3560         
C4-H39=1.0786        C5-C4=1.3560         C5-C6=1.4379         C5-H40=1.0781        C6-C5=1.4379         C6-N7=1.3650         
C6-C8=1.3968         N7-Cu1=2.0423        N7-C3=1.3659         N7-C6=1.3650         C8-C6=1.3968         C8-C9=1.4834         
C8-C15=1.3960        C9-C8=1.4834         C9-C10=1.3943        C9-C14=1.3943        C10-C9=1.3943        C10-C11=1.3859       
C10-H41=1.0835       C11-C10=1.3859       C11-N12=1.3292       C11-H42=1.0861       N12-C11=1.3292       N12-C13=1.3292       
C13-N12=1.3292       C13-C14=1.3860       C13-H43=1.0861       C14-C9=1.3943        C14-C13=1.3860       C14-H44=1.0835       
C15-C8=1.3960        C15-C16=1.4358       C15-N18=1.3698       C16-C15=1.4358       C16-C17=1.3571       C16-H45=1.0780       
C17-C16=1.3571       C17-C19=1.4324       C17-H46=1.0783       N18-Cu1=2.0436       N18-C15=1.3698       N18-C19=1.3608       
C19-C17=1.4324       C19-N18=1.3608       C19-C20=1.4057       C20-C19=1.4057       C20-C21=1.4058       C20-C110=1.4068      
C21-C20=1.4058       C21-C22=1.4322       C21-N25=1.3608       C22-C21=1.4322       C22-C23=1.3571       C22-H47=1.0782       
C23-C22=1.3571       C23-C24=1.4357       C23-H48=1.0779       C24-C23=1.4357       C24-N25=1.3698       C24-C26=1.3964       
N25-Cu1=2.0431       N25-C21=1.3608       N25-C24=1.3698       C26-C24=1.3964       C26-C27=1.4828       C26-C33=1.3971       
C27-C26=1.4828       C27-C28=1.3946       C27-C32=1.3944       C28-C27=1.3946       C28-C29=1.3859       C28-H49=1.0836       
C29-C28=1.3859       C29-N30=1.3293       C29-H50=1.0862       N30-C29=1.3293       N30-C31=1.3291       C31-N30=1.3291       
C31-C32=1.3860       C31-H51=1.0861       C32-C27=1.3944       C32-C31=1.3860       C32-H52=1.0836       C33-C26=1.3971       
C33-C34=1.4379       C33-N37=1.3651       C34-C33=1.4379       C34-C35=1.3560       C34-H53=1.0781       C35-C34=1.3560       
C35-C36=1.4350       C35-H54=1.0786       C36-C2=1.3868        C36-C35=1.4350       C36-N37=1.3659       N37-Cu1=2.0413       
N37-C33=1.3651       N37-C36=1.3659       H38-C2=1.0852        H39-C4=1.0786        H40-C5=1.0781        H41-C10=1.0835       
H42-C11=1.0861       H43-C13=1.0861       H44-C14=1.0835       H45-C16=1.0780       H46-C17=1.0783       H47-C22=1.0782       
H48-C23=1.0779       H49-C28=1.0836       H50-C29=1.0862       H51-C31=1.0861       H52-C32=1.0836       H53-C34=1.0781       
H54-C35=1.0786       Cu55-N61=2.0422      Cu55-N72=2.0437      Cu55-N79=2.0431      Cu55-N91=2.0415      C56-C57=1.3868       
C56-C90=1.3868       C56-H92=1.0852       C57-C56=1.3868       C57-C58=1.4351       C57-N61=1.3659       C58-C57=1.4351       
C58-C59=1.3560       C58-H93=1.0786       C59-C58=1.3560       C59-C60=1.4379       C59-H94=1.0781       C60-C59=1.4379       
C60-N61=1.3650       C60-C62=1.3968       N61-Cu55=2.0422      N61-C57=1.3659       N61-C60=1.3650       C62-C60=1.3968       
C62-C63=1.4833       C62-C69=1.3960       C63-C62=1.4833       C63-C64=1.3943       C63-C68=1.3943       C64-C63=1.3943       
C64-C65=1.3859       C64-H95=1.0836       C65-C64=1.3859       C65-N66=1.3292       C65-H96=1.0863       N66-C65=1.3292       
N66-C67=1.3291       C67-N66=1.3291       C67-C68=1.3860       C67-H97=1.0862       C68-C63=1.3943       C68-C67=1.3860       
C68-H98=1.0836       C69-C62=1.3960       C69-C70=1.4358       C69-N72=1.3697       C70-C69=1.4358       C70-C71=1.3571       
C70-H99=1.0780       C71-C70=1.3571       C71-C73=1.4323       C71-H100=1.0783      N72-Cu55=2.0437      N72-C69=1.3697       
N72-C73=1.3608       C73-C71=1.4323       C73-N72=1.3608       C73-C74=1.4057       C74-C73=1.4057       C74-C75=1.4058       
C74-C112=1.4068      C75-C74=1.4058       C75-C76=1.4323       C75-N79=1.3608       C76-C75=1.4323       C76-C77=1.3570       
C76-H101=1.0782      C77-C76=1.3570       C77-C78=1.4357       C77-H102=1.0779      C78-C77=1.4357       C78-N79=1.3698       
C78-C80=1.3963       N79-Cu55=2.0431      N79-C75=1.3608       N79-C78=1.3698       C80-C78=1.3963       C80-C81=1.4829       
C80-C87=1.3971       C81-C80=1.4829       C81-C82=1.3945       C81-C86=1.3944       C82-C81=1.3945       C82-C83=1.3859       
C82-H103=1.0836      C83-C82=1.3859       C83-N84=1.3292       C83-H104=1.0863      N84-C83=1.3292       N84-C85=1.3291       
C85-N84=1.3291       C85-C86=1.3860       C85-H105=1.0861      C86-C81=1.3944       C86-C85=1.3860       C86-H106=1.0836      
C87-C80=1.3971       C87-C88=1.4379       C87-N91=1.3651       C88-C87=1.4379       C88-C89=1.3560       C88-H107=1.0781      
C89-C88=1.3560       C89-C90=1.4350       C89-H108=1.0786      C90-C56=1.3868       C90-C89=1.4350       C90-N91=1.3659       
N91-Cu55=2.0415      N91-C87=1.3651       N91-C90=1.3659       H92-C56=1.0852       H93-C58=1.0786       H94-C59=1.0781       
H95-C64=1.0836       H96-C65=1.0863       H97-C67=1.0862       H98-C68=1.0836       H99-C70=1.0780       H100-C71=1.0783      
H101-C76=1.0782      H102-C77=1.0779      H103-C82=1.0836      H104-C83=1.0863      H105-C85=1.0861      H106-C86=1.0836      
H107-C88=1.0781      H108-C89=1.0786      C109-C110=1.2217     C109-C111=1.3503     C110-C20=1.4068      C110-C109=1.2217     
C111-C109=1.3503     C111-C112=1.2215     C112-C74=1.4068      C112-C111=1.2215     
 C  H  Rav=1.0818 sigma=0.0035  Rmin=1.0779  Rmax=1.0863    34
 C  C  Rav=1.3991 sigma=0.0450  Rmin=1.2215  Rmax=1.4834    65
 N  C  Rav=1.3533 sigma=0.0173  Rmin=1.3291  Rmax=1.3698    24
 Cu N  Rav=2.0426 sigma=0.0009  Rmin=2.0413  Rmax=2.0437     8

 selected bond angles (degree)
 --------------------
N18-Cu1-N7= 89.31              N25-Cu1-N7=179.69              N25-Cu1-N18= 90.58             N37-Cu1-N7= 90.79              
N37-Cu1-N18=179.61             N37-Cu1-N25= 89.32             C36-C2-C3=126.54               H38-C2-C3=116.74               
H38-C2-C36=116.71              C4-C3-C2=124.70                N7-C3-C2=125.76                N7-C3-C4=109.53                
C5-C4-C3=106.94                H39-C4-C3=124.75               H39-C4-C5=128.31               C6-C5-C4=107.09                
H40-C5-C4=127.84               H40-C5-C6=125.07               N7-C6-C5=109.32                C8-C6-C5=125.13                
C8-C6-N7=125.52                C3-N7-Cu1=125.55               C6-N7-Cu1=127.32               C6-N7-C3=107.11                
C9-C8-C6=117.41                C15-C8-C6=125.18               C15-C8-C9=117.42               C10-C9-C8=121.23               
C14-C9-C8=121.36               C14-C9-C10=117.41              C11-C10-C9=119.19              H41-C10-C9=120.34              
H41-C10-C11=120.47             

 selected dihedral angles (degree)
 ---------------------------------
C4-C3-C2-C36=178.79           C4-C3-C2-H38=359.41           N7-C3-C2-C36=359.89           N7-C3-C2-H38=180.51           
C5-C4-C3-C2=181.10            C5-C4-C3-N7=  0.15            H39-C4-C3-C2=  0.71           H39-C4-C3-N7=179.76           
C6-C5-C4-C3=359.68            C6-C5-C4-H39=180.09           H40-C5-C4-C3=178.95           H40-C5-C4-H39=359.37          
N7-C6-C5-C4=  0.40            N7-C6-C5-H40=181.10           C8-C6-C5-C4=178.59            C8-C6-C5-H40=359.29           
C3-N7-Cu1-N18=178.30          C3-N7-Cu1-N25=248.25          C3-N7-Cu1-N37=358.68          C6-N7-Cu1-N18=  0.04          
C6-N7-Cu1-N25= 69.99          C6-N7-Cu1-N37=180.42          Cu1-N7-C3-C2=  0.59           Cu1-N7-C3-C4=181.55           
C6-N7-C3-C2=179.14            C6-N7-C3-C4=  0.10            Cu1-N7-C6-C5=178.22           Cu1-N7-C6-C8=  0.03           
C3-N7-C6-C5=359.70            C3-N7-C6-C8=181.52            C9-C8-C6-C5=  1.76            C9-C8-C6-N7=179.66            
C15-C8-C6-C5=181.99           C15-C8-C6-N7=359.89           C10-C9-C8-C6=243.53           C10-C9-C8-C15= 63.32          
C14-C9-C8-C6= 63.43           C14-C9-C8-C15=243.22          C11-C10-C9-C8=179.78          C11-C10-C9-C14=359.88         
[...]
   104H     0.02706  0.09295   0.973  0.000  0.000
   105H     0.02714  0.09306   0.973  0.000  0.000
   106H     0.03679  0.09489   0.963  0.000  0.000
   107H     0.03472  0.09359   0.965  0.000  0.000
   108H     0.03564  0.09218   0.964  0.000  0.000
   109C    -0.01768 -0.01851   1.075  2.943  0.000
   110C    -0.03249 -0.03413   1.102  2.930  0.000
   111C    -0.01766 -0.01850   1.075  2.943  0.000
   112C    -0.03247 -0.03411   1.102  2.930  0.000

Wiberg/Mayer (AO) data.
largest (>0.10) Wiberg bond orders for each atom

 ---------------------------------------------------------------------------
     #   Z sym  total        # sym  WBO       # sym  WBO       # sym  WBO
 ---------------------------------------------------------------------------
     1  29 Cu   2.184 --    37 N    0.505     7 N    0.505    25 N    0.502
                            18 N    0.502
     2   6 C    3.930 --    36 C    1.362     3 C    1.362    38 H    0.971
     3   6 C    3.916 --     2 C    1.362     7 N    1.229     4 C    1.170
     4   6 C    3.955 --     5 C    1.657     3 C    1.170    39 H    0.975
     5   6 C    3.958 --     4 C    1.657     6 C    1.172    40 H    0.973
     6   6 C    3.914 --     8 C    1.319     7 N    1.239     5 C    1.172
     7   7 N    3.244 --     6 C    1.239     3 C    1.229     1 Cu   0.505
     8   6 C    3.935 --    15 C    1.327     6 C    1.319     9 C    1.026
     9   6 C    3.986 --    14 C    1.394    10 C    1.393     8 C    1.026
                            12 N    0.107
    10   6 C    3.987 --    11 C    1.442     9 C    1.393    41 H    0.973
                            13 C    0.109
    11   6 C    3.972 --    10 C    1.442    12 N    1.415    42 H    0.972
                            14 C    0.109
    12   7 N    3.030 --    13 C    1.416    11 C    1.415     9 C    0.107
    13   6 C    3.972 --    14 C    1.442    12 N    1.416    43 H    0.972
                            10 C    0.109
    14   6 C    3.987 --    13 C    1.442     9 C    1.394    44 H    0.973
                            11 C    0.109
    15   6 C    3.909 --     8 C    1.327    18 N    1.222    16 C    1.178
    16   6 C    3.954 --    17 C    1.644    15 C    1.178    45 H    0.973
    17   6 C    3.957 --    16 C    1.644    19 C    1.186    46 H    0.974
    18   7 N    3.248 --    19 C    1.257    15 C    1.222     1 Cu   0.502
    19   6 C    3.898 --    20 C    1.261    18 N    1.257    17 C    1.186
    20   6 C    3.940 --    19 C    1.261    21 C    1.261   110 C    1.184
    21   6 C    3.898 --    20 C    1.261    25 N    1.256    22 C    1.186
    22   6 C    3.957 --    23 C    1.643    21 C    1.186    47 H    0.974
    23   6 C    3.954 --    22 C    1.643    24 C    1.179    48 H    0.973
    24   6 C    3.909 --    26 C    1.326    25 N    1.222    23 C    1.179
    25   7 N    3.248 --    21 C    1.256    24 C    1.222     1 Cu   0.502
    26   6 C    3.935 --    24 C    1.326    33 C    1.318    27 C    1.029
    27   6 C    3.986 --    32 C    1.393    28 C    1.392    26 C    1.029
                            30 N    0.107
    28   6 C    3.987 --    29 C    1.442    27 C    1.392    49 H    0.973
                            31 C    0.108
    29   6 C    3.972 --    28 C    1.442    30 N    1.415    50 H    0.972
                            32 C    0.108
    30   7 N    3.030 --    31 C    1.416    29 C    1.415    27 C    0.107
    31   6 C    3.972 --    32 C    1.442    30 N    1.416    51 H    0.972
                            28 C    0.108
    32   6 C    3.987 --    31 C    1.442    27 C    1.393    52 H    0.973
                            29 C    0.108
    33   6 C    3.914 --    26 C    1.318    37 N    1.239    34 C    1.172
    34   6 C    3.958 --    35 C    1.656    33 C    1.172    53 H    0.973
    35   6 C    3.955 --    34 C    1.656    36 C    1.170    54 H    0.975
    36   6 C    3.916 --     2 C    1.362    37 N    1.229    35 C    1.170
    37   7 N    3.244 --    33 C    1.239    36 C    1.229     1 Cu   0.505
    38   1 H    1.001 --     2 C    0.971
    39   1 H    0.998 --     4 C    0.975
    40   1 H    1.004 --     5 C    0.973
    41   1 H    1.004 --    10 C    0.973
    42   1 H    1.013 --    11 C    0.972
    43   1 H    1.013 --    13 C    0.972
    44   1 H    1.004 --    14 C    0.973
    45   1 H    1.004 --    16 C    0.973
    46   1 H    1.002 --    17 C    0.974
    47   1 H    1.002 --    22 C    0.974
    48   1 H    1.004 --    23 C    0.973
    49   1 H    1.004 --    28 C    0.973
    50   1 H    1.013 --    29 C    0.972
    51   1 H    1.013 --    31 C    0.972
    52   1 H    1.004 --    32 C    0.973
    53   1 H    1.004 --    34 C    0.973
    54   1 H    0.998 --    35 C    0.975
    55  29 Cu   2.184 --    91 N    0.505    61 N    0.505    79 N    0.502
                            72 N    0.502
    56   6 C    3.930 --    90 C    1.362    57 C    1.362    92 H    0.971
    57   6 C    3.916 --    56 C    1.362    61 N    1.229    58 C    1.170
    58   6 C    3.955 --    59 C    1.657    57 C    1.170    93 H    0.975
    59   6 C    3.958 --    58 C    1.657    60 C    1.172    94 H    0.973
    60   6 C    3.914 --    62 C    1.319    61 N    1.239    59 C    1.172
    61   7 N    3.244 --    60 C    1.239    57 C    1.229    55 Cu   0.505
    62   6 C    3.935 --    69 C    1.326    60 C    1.319    63 C    1.027
    63   6 C    3.986 --    68 C    1.393    64 C    1.393    62 C    1.027
                            66 N    0.107
    64   6 C    3.987 --    65 C    1.442    63 C    1.393    95 H    0.973
                            67 C    0.109
    65   6 C    3.972 --    64 C    1.442    66 N    1.415    96 H    0.972
                            68 C    0.108
    66   7 N    3.030 --    67 C    1.416    65 C    1.415    63 C    0.107
    67   6 C    3.972 --    68 C    1.442    66 N    1.416    97 H    0.972
                            64 C    0.109
    68   6 C    3.987 --    67 C    1.442    63 C    1.393    98 H    0.973
                            65 C    0.108
    69   6 C    3.909 --    62 C    1.326    72 N    1.222    70 C    1.178
    70   6 C    3.954 --    71 C    1.644    69 C    1.178    99 H    0.973
    71   6 C    3.957 --    70 C    1.644    73 C    1.186   100 H    0.974
    72   7 N    3.248 --    73 C    1.256    69 C    1.222    55 Cu   0.502
    73   6 C    3.898 --    74 C    1.261    72 N    1.256    71 C    1.186
    74   6 C    3.940 --    73 C    1.261    75 C    1.261   112 C    1.184
    75   6 C    3.898 --    74 C    1.261    79 N    1.256    76 C    1.186
    76   6 C    3.957 --    77 C    1.643    75 C    1.186   101 H    0.974
    77   6 C    3.954 --    76 C    1.643    78 C    1.179   102 H    0.973
    78   6 C    3.909 --    80 C    1.326    79 N    1.222    77 C    1.179
    79   7 N    3.248 --    75 C    1.256    78 C    1.222    55 Cu   0.502
    80   6 C    3.935 --    78 C    1.326    87 C    1.319    81 C    1.028
    81   6 C    3.986 --    86 C    1.393    82 C    1.392    80 C    1.028
                            84 N    0.107
    82   6 C    3.987 --    83 C    1.442    81 C    1.392   103 H    0.973
                            85 C    0.108
    83   6 C    3.972 --    82 C    1.442    84 N    1.415   104 H    0.972
                            86 C    0.108
    84   7 N    3.030 --    85 C    1.416    83 C    1.415    81 C    0.107
    85   6 C    3.972 --    86 C    1.442    84 N    1.416   105 H    0.972
                            82 C    0.108
    86   6 C    3.987 --    85 C    1.442    81 C    1.393   106 H    0.973
                            83 C    0.108
    87   6 C    3.914 --    80 C    1.319    91 N    1.239    88 C    1.172
    88   6 C    3.958 --    89 C    1.656    87 C    1.172   107 H    0.973
    89   6 C    3.955 --    88 C    1.656    90 C    1.170   108 H    0.975
    90   6 C    3.916 --    56 C    1.362    91 N    1.229    89 C    1.170
    91   7 N    3.244 --    87 C    1.239    90 C    1.229    55 Cu   0.505
    92   1 H    1.001 --    56 C    0.971
    93   1 H    0.998 --    58 C    0.975
    94   1 H    1.004 --    59 C    0.973
    95   1 H    1.004 --    64 C    0.973
    96   1 H    1.013 --    65 C    0.972
    97   1 H    1.013 --    67 C    0.972
    98   1 H    1.004 --    68 C    0.973
    99   1 H    1.004 --    70 C    0.973
   100   1 H    1.002 --    71 C    0.974
   101   1 H    1.002 --    76 C    0.974
   102   1 H    1.004 --    77 C    0.973
   103   1 H    1.004 --    82 C    0.973
   104   1 H    1.013 --    83 C    0.972
   105   1 H    1.013 --    85 C    0.972
   106   1 H    1.004 --    86 C    0.973
   107   1 H    1.004 --    88 C    0.973
   108   1 H    0.998 --    89 C    0.975
   109   6 C    3.937 --   110 C    2.482   111 C    1.305
   110   6 C    3.927 --   109 C    2.482    20 C    1.184   112 C    0.200
   111   6 C    3.937 --   112 C    2.482   109 C    1.305
   112   6 C    3.927 --   111 C    2.482    74 C    1.184   110 C    0.200
 ---------------------------------------------------------------------------

Topologies differ in total number of bonds
Writing topology from bond orders to xtbtopo.mol

 dipole moment from electron density (au)
     X       Y       Z   
  -0.0009  -0.0025  -0.0023  total (Debye):    0.009

           -------------------------------------------------
          |                Geometry Summary                 |
           -------------------------------------------------

      molecular mass/u    :     1098.1296015
   center of mass at/Å    :       19.0929308       0.0003054      -0.0003801
  moments of inertia/u·Å² :        0.1699395E+05   0.5193296E+05   0.6832568E+05
rotational constants/cm⁻¹ :        0.9919787E-03   0.3246037E-03   0.2467247E-03

 * 116 selected distances

     #   Z          #   Z                                           value/Å
     2   6 C        3   6 C                                       1.3867746
     3   6 C        4   6 C                                       1.4350450
     4   6 C        5   6 C                                       1.3560219
     5   6 C        6   6 C                                       1.4378576
     3   6 C        7   7 N                                       1.3658759
     6   6 C        7   7 N                                       1.3650170
     6   6 C        8   6 C                                       1.3967903
     9   6 C       10   6 C                                       1.3943350
    10   6 C       11   6 C                                       1.3859277
    11   6 C       12   7 N                                       1.3292400
    12   7 N       13   6 C                                       1.3291952
     9   6 C       14   6 C                                       1.3942513
    13   6 C       14   6 C                                       1.3860442
     8   6 C       15   6 C                                       1.3959598
    15   6 C       16   6 C                                       1.4357572
    16   6 C       17   6 C                                       1.3570694
    15   6 C       18   7 N                                       1.3697788
    17   6 C       19   6 C                                       1.4323576
    18   7 N       19   6 C                                       1.3607576
    19   6 C       20   6 C                                       1.4057381
    20   6 C       21   6 C                                       1.4058117
    21   6 C       22   6 C                                       1.4322259
    22   6 C       23   6 C                                       1.3570585
    23   6 C       24   6 C                                       1.4356935
    21   6 C       25   7 N                                       1.3608353
    24   6 C       25   7 N                                       1.3698059
    24   6 C       26   6 C                                       1.3963575
    27   6 C       28   6 C                                       1.3946135
    28   6 C       29   6 C                                       1.3858516
    29   6 C       30   7 N                                       1.3292559
    30   7 N       31   6 C                                       1.3291200
    27   6 C       32   6 C                                       1.3944250
    31   6 C       32   6 C                                       1.3860143
    26   6 C       33   6 C                                       1.3971461
    33   6 C       34   6 C                                       1.4379200 (max)
    34   6 C       35   6 C                                       1.3559939
     2   6 C       36   6 C                                       1.3867762
    35   6 C       36   6 C                                       1.4350077
    33   6 C       37   7 N                                       1.3650868
    36   6 C       37   7 N                                       1.3659173
     2   6 C       38   1 H                                       1.0851618
     4   6 C       39   1 H                                       1.0786460
     5   6 C       40   1 H                                       1.0781225
    10   6 C       41   1 H                                       1.0835363
    11   6 C       42   1 H                                       1.0860995
    13   6 C       43   1 H                                       1.0860721
    14   6 C       44   1 H                                       1.0835382
    16   6 C       45   1 H                                       1.0779748
    17   6 C       46   1 H                                       1.0783095
    22   6 C       47   1 H                                       1.0782396
    23   6 C       48   1 H                                       1.0779003 (min)
    28   6 C       49   1 H                                       1.0836001
    29   6 C       50   1 H                                       1.0862469
    31   6 C       51   1 H                                       1.0861334
    32   6 C       52   1 H                                       1.0835511
    34   6 C       53   1 H                                       1.0780969
    35   6 C       54   1 H                                       1.0786249
    56   6 C       57   6 C                                       1.3867685
    57   6 C       58   6 C                                       1.4350594
    58   6 C       59   6 C                                       1.3560096
    59   6 C       60   6 C                                       1.4378833
    57   6 C       61   7 N                                       1.3658795
    60   6 C       61   7 N                                       1.3650472
    60   6 C       62   6 C                                       1.3968257
    63   6 C       64   6 C                                       1.3943358
    64   6 C       65   6 C                                       1.3859181
    65   6 C       66   7 N                                       1.3291667
    66   7 N       67   6 C                                       1.3291326
    63   6 C       68   6 C                                       1.3942719
    67   6 C       68   6 C                                       1.3860340
    62   6 C       69   6 C                                       1.3960498
    69   6 C       70   6 C                                       1.4357553
    70   6 C       71   6 C                                       1.3570758
    69   6 C       72   7 N                                       1.3697371
    71   6 C       73   6 C                                       1.4322992
    72   7 N       73   6 C                                       1.3607832
    73   6 C       74   6 C                                       1.4057435
    74   6 C       75   6 C                                       1.4058063
    75   6 C       76   6 C                                       1.4322817
    76   6 C       77   6 C                                       1.3570486
    77   6 C       78   6 C                                       1.4357076
    75   6 C       79   7 N                                       1.3608224
    78   6 C       79   7 N                                       1.3698021
    78   6 C       80   6 C                                       1.3962909
    81   6 C       82   6 C                                       1.3945442
    82   6 C       83   6 C                                       1.3858862
    83   6 C       84   7 N                                       1.3292251
    84   7 N       85   6 C                                       1.3291234
    81   6 C       86   6 C                                       1.3943938
    85   6 C       86   6 C                                       1.3860078
    80   6 C       87   6 C                                       1.3970869
    87   6 C       88   6 C                                       1.4378873
    88   6 C       89   6 C                                       1.3559960
    56   6 C       90   6 C                                       1.3867808
    89   6 C       90   6 C                                       1.4349965
    87   6 C       91   7 N                                       1.3650987
    90   6 C       91   7 N                                       1.3658893
    56   6 C       92   1 H                                       1.0851610
    58   6 C       93   1 H                                       1.0786483
    59   6 C       94   1 H                                       1.0781288
    64   6 C       95   1 H                                       1.0836185
    65   6 C       96   1 H                                       1.0863191
    67   6 C       97   1 H                                       1.0861855
    68   6 C       98   1 H                                       1.0835998
    70   6 C       99   1 H                                       1.0779618
    71   6 C      100   1 H                                       1.0783055
    76   6 C      101   1 H                                       1.0782443
    77   6 C      102   1 H                                       1.0779073
    82   6 C      103   1 H                                       1.0836083
    83   6 C      104   1 H                                       1.0863030
    85   6 C      105   1 H                                       1.0861392
    86   6 C      106   1 H                                       1.0835767
    88   6 C      107   1 H                                       1.0780796
    89   6 C      108   1 H                                       1.0786208
   109   6 C      110   6 C                                       1.2216994
   111   6 C      112   6 C                                       1.2215297

 * 3 distinct bonds (by element types)

   Z      Z             #   av. dist./Å        max./Å        min./Å
   1 H    6 C          34     1.0817724     1.0863191     1.0779003
   6 C    6 C          58     1.3938758     1.4379200     1.2215297
   6 C    7 N          24     1.3533164     1.3698059     1.3291200


optimized geometry written to: xtbopt.xyz


           -------------------------------------------------
          | TOTAL ENERGY             -200.783911332781 Eh   |
          | GRADIENT NORM               0.000765478387 Eh/α |
          | HOMO-LUMO GAP               0.000047623709 eV   |
           -------------------------------------------------

------------------------------------------------------------------------
 * finished run on 2022/07/30 at 04:42:19.663     
------------------------------------------------------------------------
 total:
 * wall-time:     0 d,  0 h,  0 min, 32.534 sec
 *  cpu-time:     0 d,  0 h,  0 min, 32.304 sec
 * ratio c/w:     0.993 speedup
 SCF:
 * wall-time:     0 d,  0 h,  0 min,  1.971 sec
 *  cpu-time:     0 d,  0 h,  0 min,  1.956 sec
 * ratio c/w:     0.992 speedup
 ANC optimizer:
 * wall-time:     0 d,  0 h,  0 min, 30.422 sec
 *  cpu-time:     0 d,  0 h,  0 min, 30.219 sec
 * ratio c/w:     0.993 speedup

