112
 energy: -200.535146160531 gnorm: 0.495795887593 xtb: 6.5.1 (b24c23e)
Cu          12.04397700000000        0.00906900000000        0.00088400000000
C            8.67794300000000       -0.10508300000000       -0.03105300000000
C            9.34088100000000       -1.26350900000000        0.02650100000000
C            8.68924500000000       -2.56643900000000        0.08531200000000
C            9.62910400000000       -3.48681100000000        0.19223800000000
C           10.93526600000000       -2.81403600000000        0.20619100000000
N           10.75910600000000       -1.40112200000000        0.09625500000000
C           12.12416100000000       -3.43196800000000        0.35973200000000
C           12.15993600000000       -4.90316100000000        0.51007600000000
C           12.36520900000000       -5.47962000000000        1.77061500000000
C           12.39387900000000       -6.87092300000000        1.89161300000000
N           12.22121700000000       -7.65475100000000        0.79388800000000
C           12.01927700000000       -7.11980000000000       -0.43986800000000
C           11.98593700000000       -5.73313000000000       -0.60563500000000
C           13.41840200000000       -2.70121800000000        0.39962200000000
C           14.70841900000000       -3.33891100000000        0.68908600000000
C           15.64304700000000       -2.41466900000000        0.60530700000000
N           13.56025900000000       -1.43705700000000        0.14047300000000
C           14.95942200000000       -1.17693900000000        0.25233100000000
C           15.55580800000000        0.00023000000000        0.00006500000000
C           14.79794400000000        1.21609600000000       -0.37323500000000
C           15.34123900000000        2.28954900000000       -0.93309700000000
C           14.29856700000000        3.28912200000000       -1.05119300000000
C           13.18691100000000        2.76235000000000       -0.55216400000000
N           13.41166200000000        1.42529400000000       -0.10169800000000
C           11.90180500000000        3.49560400000000       -0.41525500000000
C           11.92465200000000        4.97824500000000       -0.46245000000000
C           11.26294000000000        5.67217800000000       -1.48599600000000
C           11.30715000000000        7.06808500000000       -1.50878400000000
N           11.99378400000000        7.74527000000000       -0.55003300000000
C           12.65298700000000        7.09738700000000        0.44650200000000
C           12.63408600000000        5.70205300000000        0.50695800000000
C           10.73491400000000        2.84682500000000       -0.23793400000000
C            9.42270700000000        3.46312100000000       -0.04807100000000
C            8.56046600000000        2.46959000000000        0.04573600000000
C            9.31285800000000        1.22164400000000       -0.06964100000000
N           10.58122100000000        1.42881200000000       -0.23512600000000
H            7.59479300000000       -0.13306500000000       -0.03124800000000
H            7.62486000000000       -2.76097500000000        0.06016300000000
H            9.44056800000000       -4.54979200000000        0.26983300000000
H           12.50161100000000       -4.85820900000000        2.64705800000000
H           12.55269300000000       -7.32806700000000        2.85907400000000
H           11.88410400000000       -7.77136200000000       -1.29279500000000
H           11.82450200000000       -5.31013900000000       -1.58936700000000
H           14.88651400000000       -4.37963200000000        0.92382400000000
H           16.70080500000000       -2.57779400000000        0.75934500000000
H           16.37441800000000        2.41465300000000       -1.22675500000000
H           14.41655100000000        4.28823500000000       -1.44896800000000
H           10.72229600000000        5.13750400000000       -2.25626700000000
H           10.79649100000000        7.61355000000000       -2.29110800000000
H           13.19124400000000        7.66563800000000        1.19364200000000
H           13.15957900000000        5.19095200000000        1.30419400000000
H            9.17818300000000        4.51546100000000        0.01275600000000
H            7.49334700000000        2.57410000000000        0.19198100000000
Cu          26.14324299999999       -0.00798800000000        0.00341800000000
C           29.50927800000000        0.09194700000000       -0.06032700000000
C           28.84633900000000        1.21706600000000       -0.34205500000000
C           29.49797500000000        2.48081300000000       -0.66459200000000
C           28.55811700000000        3.39251500000000       -0.82986900000000
C           27.25195500000000        2.75285900000000       -0.62091900000000
N           27.42811400000000        1.36901600000000       -0.31532200000000
C           26.06306000000000        3.38873800000000       -0.65366500000000
C           26.02728400000000        4.84009000000000       -0.93754300000000
C           25.82201100000000        5.75813200000000        0.10094800000000
C           25.79334200000000        7.12451400000000       -0.18778100000000
N           25.96600400000000        7.55533600000000       -1.46597500000000
C           26.16794400000000        6.68479600000000       -2.49090800000000
C           26.20128300000000        5.30983100000000       -2.24636100000000
C           24.76881800000000        2.70115100000000       -0.40304400000000
C           23.47880200000000        3.39545500000000       -0.31148300000000
C           22.54417300000000        2.48678000000000       -0.12293300000000
N           24.62696100000000        1.41625300000000       -0.28346200000000
C           23.22779900000000        1.19989300000000       -0.10081000000000
C           22.63141200000000        0.00023000000000        0.00006500000000
C           23.38927600000000       -1.27164600000000       -0.00361400000000
C           22.84598200000000       -2.46150100000000       -0.22720200000000
C           23.88865400000000       -3.45223000000000       -0.04958600000000
C           25.00030900000000       -2.80312800000000        0.27473600000000
N           24.77555900000000       -1.39286200000000        0.31701400000000
C           26.28541600000000       -3.46490400000000        0.61891400000000
C           26.26256800000000       -4.89722100000000        1.00481300000000
C           26.92428100000000       -5.85875900000000        0.22723200000000
C           26.88007100000000       -7.20099400000000        0.61126700000000
N           26.19343599999999       -7.57018400000000        1.72548600000000
C           25.53423400000000       -6.66055900000000        2.49061100000000
C           25.55313500000000       -5.30792200000000        2.14278300000000
C           27.45230700000000       -2.79259700000000        0.59995200000000
C           28.76451300000000       -3.32707000000000        0.96079300000000
C           29.62675400000000       -2.34918400000000        0.76169300000000
C           28.87436200000000       -1.18868800000000        0.28847800000000
N           27.60599900000000       -1.43502000000000        0.19037200000000
H           30.59242800000000        0.11866400000000       -0.06864900000000
H           30.56236000000000        2.65963500000000       -0.74521300000000
H           28.74665300000000        4.43213900000000       -1.06467200000000
H           25.68561000000000        5.41837700000000        1.12019800000000
H           25.63452800000000        7.84318600000000        0.60498000000000
H           26.30311600000000        7.06023700000000       -3.49642300000000
H           26.36271800000000        4.61910700000000       -3.06462000000000
H           23.30070700000000        4.45946800000000       -0.38946000000000
H           21.48641500000000        2.68764300000000       -0.02297600000000
H           21.81280300000000       -2.66657800000000       -0.47180300000000
H           23.77066900000000       -4.52383200000000       -0.13970100000000
H           27.46492400000000       -5.57112700000000       -0.66521500000000
H           27.39073000000000       -7.95034500000000        0.02132300000000
H           24.99597700000000       -6.98704400000000        3.37068700000000
H           25.02764100000000       -4.58711500000000        2.75698600000000
H           29.00903800000000       -4.31626900000000        1.32494400000000
H           30.69387400000000       -2.40666100000000        0.93200600000000
C           18.35438000000000        0.01296200000000        0.00259000000000
C           17.10210900000000       -0.00621900000000       -0.00175800000000
C           19.66804800000000        0.01219600000000        0.00452300000000
C           21.17118100000000       -0.00621900000000       -0.00175800000000
112
 energy: -200.669143637905 gnorm: 0.287166240004 xtb: 6.5.1 (b24c23e)
Cu          12.04957517417694        0.00504285770102       -0.00332211935745
C            8.67714612050731       -0.08496380954753       -0.03183738287243
C            9.34488576751917       -1.26345615512905        0.02679374437186
C            8.68998210311474       -2.55856626597735        0.08507404762573
C            9.64254420117460       -3.48883812615760        0.19277410219736
C           10.93558340027045       -2.80753930390915        0.20452850784329
N           10.73482402022090       -1.42359004826531        0.09849340960607
C           12.14447547728981       -3.42409451406318        0.35966280512366
C           12.16829552349037       -4.90021675900477        0.51002647190751
C           12.36754106419774       -5.48214262396789        1.76282390832661
C           12.39031968197973       -6.86790959577643        1.86962484538143
N           12.22119446685540       -7.65499703320273        0.79392921487209
C           12.02191895557645       -7.11146591799530       -0.41852147608353
C           11.98665000029399       -5.73290364745367       -0.59643396516159
C           13.41388853691418       -2.71928971600048        0.40209700048569
C           14.69194760345712       -3.35517905421653        0.68937918475141
C           15.64065657644018       -2.41107769812888        0.60270297351145
N           13.58453658444117       -1.43259547932554        0.15089177920514
C           14.97430675423394       -1.17620049045854        0.25283596846369
C           15.59530333443951        0.01608858366663       -0.01024272052789
C           14.80719247504748        1.20927776657626       -0.35789735203968
C           15.35052932897432        2.31892294287504       -0.93920201342317
C           14.32736148662513        3.29338088821487       -1.05192582713045
C           13.18387080107238        2.74824248524532       -0.53673568043938
N           13.42981066617160        1.42370728911659       -0.11118818311531
C           11.92247390448643        3.47923587266498       -0.41222689231026
C           11.93881145380631        4.96705105623200       -0.46824865393206
C           11.26817089242577        5.66914921177097       -1.47675611214429
C           11.31934854890119        7.05970438958356       -1.48946522542718
N           11.99363356939878        7.74391302692283       -0.55025997311353
C           12.63945813379204        7.08931886445282        0.42889254251071
C           12.63304944015530        5.70023944931568        0.49837598537858
C           10.73576717087945        2.84306359841027       -0.23531228649365
C            9.43156408457596        3.45900263572697       -0.05042800444141
C            8.54687324254255        2.45541958983340        0.04631095678122
C            9.28868764588121        1.21297257507441       -0.06963299303531
N           10.57688358551399        1.44040324116893       -0.22835317267105
H            7.59437817866500       -0.12149339261105       -0.03053037559014
H            7.62558028188192       -2.74653522398367        0.05853430765541
H            9.46037653667057       -4.55136625280109        0.27018848757930
H           12.50121671713719       -4.86086614366323        2.64262380535802
H           12.54920414658760       -7.33314280605811        2.84011025159987
H           11.88738180638658       -7.77159860121076       -1.27299834575635
H           11.82600095564294       -5.31104826459691       -1.58364463074480
H           14.86972535769258       -4.39112017113999        0.92424285583833
H           16.69870215285058       -2.56416323513751        0.75666986428900
H           16.37936231651832        2.42934067494015       -1.23469899407811
H           14.42769342916327        4.28891378888436       -1.45362913278080
H           10.72566978878399        5.13769468787741       -2.25181317266095
H           10.80807349859831        7.61448818453633       -2.27424388510302
H           13.17952013391705        7.66682003222993        1.17692177174643
H           13.15794811258481        5.19187895089384        1.30029232710442
H            9.19635335278256        4.51279904710212        0.01032252700689
H            7.48459143205106        2.56135443082702        0.19223708070472
Cu          26.13668070107738       -0.00531082935030       -0.00200918154627
C           29.51007687266555        0.07241847679177       -0.05523842744171
C           28.84226099190180        1.21709746112403       -0.34177209729451
C           29.49714806665537        2.47313714641047       -0.66248648631606
C           28.54444574579370        3.39452230519589       -0.83001642479764
C           27.25149856522798        2.74600575490165       -0.62062120491846
N           27.45227967708178        1.39100637377158       -0.31938553561318
C           26.04218038514026        3.38064129593979       -0.65128956206462
C           26.01878236976444        4.83696158438188       -0.93665700893793
C           25.81967517926687        5.75816993740986        0.09276382462321
C           25.79691570826179        7.11516087660237       -0.20794501579038
N           25.96603955643748        7.55553230259126       -1.46599626635133
C           26.16529428012273        6.68294419970056       -2.46801749732737
C           26.20054750168310        5.31216629986110       -2.23741898656616
C           24.77233415868773        2.71851397188414       -0.40588846513854
C           23.49584396422030        3.41150330492205       -0.31618153393321
C           22.54601600936226        2.48336077591045       -0.12400219052886
N           24.59829491624666        1.41313673376482       -0.27188487960788
C           23.20751289487377        1.20051350430431       -0.10031256546241
C           22.56938457357018       -0.01844619514288       -0.00599494726597
C           23.37591021172472       -1.26088455601714        0.00922479989036
C           22.83616871796082       -2.49163774796687       -0.22504107243479
C           23.86010262948078       -3.45644851628984       -0.04891923330014
C           25.00282920997881       -2.78452286744773        0.28545320697751
N           24.75461036270729       -1.39290274545922        0.30724263566247
C           26.26453911612044       -3.44805484798348        0.61702486893369
C           26.24834597772446       -4.88803678795043        0.99596677986844
C           26.91902640407898       -5.85309979063209        0.23519560458000
C           26.86786358911505       -7.18730932411446        0.62731184726659
N           26.19358987661196       -7.56892838638121        1.72486820220328
C           25.54776990017228       -6.65792579830600        2.47140358950160
C           25.55416581076417       -5.30863632239007        2.13402540470201
C           27.45134401524415       -2.78812451828014        0.60134729565004
C           28.75554952470803       -3.32375171510188        0.95736807324129
C           29.64027661770723       -2.33541900659383        0.75810705893085
C           28.89845098864411       -1.18034701103203        0.28596783119768
N           27.61017758001732       -1.44399538454205        0.20006210742021
H           30.59284152993029        0.10778705941530       -0.06458547132908
H           30.56156689003396        2.64531060890054       -0.74257559589333
H           28.72672153208541        4.43368871621330       -1.06478247429890
H           25.68598656722551        5.41960690781850        1.11519936932202
H           25.63802145537668        7.84248278632655        0.58534883263388
H           26.29983908194775        7.06616559877516       -3.47751586394448
H           26.36120785238294        4.62160467163129       -3.05940107482515
H           23.31809148970214        4.47088216133700       -0.39247062614104
H           21.48803928940171        2.67428904306790       -0.02157835046274
H           21.80739869985092       -2.68341698609757       -0.47522837809896
H           23.75986619447743       -4.52579520180687       -0.14386825154334
H           27.46154372957312       -5.56999345252326       -0.66090006624432
H           27.37914256776554       -7.94630777178643        0.03773343800663
H           25.00770754389526       -6.99302002736545        3.35502251223868
H           25.02925914875160       -4.58912506552082        2.75352562448416
H           28.99081454552289       -4.31438946685758        1.32183241752306
H           30.70257690093939       -2.39437200874072        0.92854004992043
C           18.38373853548070        0.01759609880398        0.00265377357588
C           17.11525520956672        0.01249606513123       -0.00630861556441
C           19.75066119537366        0.00527316431738        0.00422661626668
C           21.09057341515657       -0.02324064758715        0.00169242957035
112
 energy: -200.715282200480 gnorm: 0.260521529396 xtb: 6.5.1 (b24c23e)
Cu          12.06386401159655        0.00410408916422       -0.00526996884342
C            8.68193702371817       -0.06433591653112       -0.03177634104988
C            9.35227733110217       -1.26831081129418        0.02690474668648
C            8.69277455953075       -2.55156425362226        0.08485485267473
C            9.65698012907254       -3.48926748627354        0.19258964370563
C           10.93216373813305       -2.79711362544071        0.20195922042681
N           10.70797174625213       -1.44848239130213        0.10042865911628
C           12.16977259724806       -3.40704104125899        0.35969686355215
C           12.17608761953259       -4.89100917651432        0.50999655849796
C           12.37030342646718       -5.48188162696702        1.75673984276900
C           12.38705770637660       -6.86487399764820        1.84978388912849
N           12.22141999821436       -7.65630851744602        0.79410407656605
C           12.02420661141801       -7.10269312568932       -0.39891572727051
C           11.98826187998074       -5.72943463100463       -0.58883587695794
C           13.41131418825569       -2.73328185845147        0.40426360107722
C           14.67793996439738       -3.36410131757916        0.68587197838844
C           15.63661795850838       -2.40710089337654        0.59847347782909
N           13.61702312242748       -1.41839218369041        0.15925078895416
C           14.98946848824283       -1.17492324944232        0.25632326148737
C           15.64603983203301        0.03490775088181       -0.01912058896378
C           14.82625999993668        1.19979759892251       -0.34383020564810
C           15.36055793238194        2.35516316035423       -0.94051530335793
C           14.36494402443425        3.29381778074205       -1.04565909462276
C           13.18650237489649        2.72973816593923       -0.51962682727166
N           13.46379568991527        1.42403599041519       -0.12510682238527
C           11.95406912782037        3.45243524794027       -0.41057464311489
C           11.95711839440101        4.94795205851297       -0.47634421492921
C           11.27560145338196        5.66078226543618       -1.46960568157714
C           11.33018985709636        7.04830535102805       -1.47086612895721
N           11.99382520648104        7.74200777642068       -0.55058324415398
C           12.62782403432812        7.07988480243639        0.41258618445646
C           12.63539250720146        5.69463677532813        0.48955022052171
C           10.73560077924337        2.83060880301515       -0.22954397129266
C            9.44310300117526        3.44936101886427       -0.05307455407276
C            8.53907303859760        2.44288726961814        0.04265299670340
C            9.26439001127470        1.20279562789055       -0.06821052919650
N           10.57802435339762        1.45344993582813       -0.21787614019698
H            7.59782409639666       -0.11362469257394       -0.02714087759052
H            7.62803895413810       -2.73075673873765        0.05681687085152
H            9.48374834066198       -4.55181701294567        0.27015640009692
H           12.50236978526206       -4.86332518000709        2.63903262279526
H           12.54517454485542       -7.33846396462809        2.82097667476042
H           11.89001325743745       -7.77099655152455       -1.25258064532806
H           11.82768287103458       -5.31128424470334       -1.57816591087355
H           14.85349084046187       -4.39850216347001        0.92322741358476
H           16.69548876054658       -2.55063142547391        0.75368246437680
H           16.38796460628684        2.44437441351065       -1.24200219305340
H           14.43700486038912        4.28782838019525       -1.45610056247369
H           10.72946953300339        5.13609714009743       -2.24775210782906
H           10.81901212359440        7.61227599243433       -2.25569895998439
H           13.16637985864736        7.66672099962348        1.16066765161796
H           13.15899038598438        5.19196550305406        1.29628343894996
H            9.21833921238855        4.50551183115151        0.00758209754840
H            7.47874654862174        2.55060231556823        0.19039871852222
Cu          26.12180034035677       -0.00505662104974       -0.00395318710344
C           29.50517165819235        0.05272647721369       -0.04912772565933
C           28.83467023658681        1.22176575871137       -0.34296744155841
C           29.49408055882304        2.46639239084245       -0.66066109337014
C           28.52965021888701        3.39482444330041       -0.83023083314600
C           27.25446554194187        2.73505475550719       -0.61993852882201
N           27.47889335843785        1.41521384045518       -0.32491125571105
C           26.01586123453120        3.36324203633101       -0.64610406391815
C           26.01026335622685        4.82750568080930       -0.93392094125590
C           25.81677599667969        5.75585965347264        0.08701285741047
C           25.80023753924672        7.10626629508940       -0.22602116264616
N           25.96580066652156        7.55665662207482       -1.46616694607228
C           26.16306676212003        6.68000541356786       -2.44658047360822
C           26.19876838782737        5.31074865766194       -2.22896796881492
C           24.77361695265411        2.73048369174938       -0.40774635776017
C           23.50901254339258        3.41784937431316       -0.32188888488472
C           22.54851331276773        2.47764991281037       -0.12732370473884
N           24.56340436986782        1.39979704552712       -0.26015574479595
C           23.18922298146899        1.19757637218840       -0.09676800451974
C           22.51105283293556       -0.03674381177631       -0.00848902577585
C           23.35337570811438       -1.24551360762453        0.02039906612966
C           22.82471630962875       -2.52599723543420       -0.21573881759158
C           23.82174571474251       -3.45434032884109       -0.04322054241546
C           24.99883263809787       -2.76043986737177        0.29635113802410
N           24.71786324725475       -1.39526593275287        0.29459541398541
C           26.23205716507834       -3.42115312623917        0.61068781288004
C           26.22955256089238       -4.87170030727636        0.98244722591395
C           26.91143029689305       -5.84272560771580        0.23960389609770
C           26.85701122329307       -7.17076956643894        0.64181499710327
N           26.19339539892821       -7.56707252238084        1.72398534612939
C           25.55942702698871       -6.65352013521915        2.45304454316539
C           25.55172160080773       -5.30569858861712        2.12390281488440
C           27.45112974766786       -2.77437763100116        0.60319193857783
C           28.74373425897101       -3.31529249994009        0.95196262287669
C           29.64789361656756       -2.32453213467575        0.75095356319380
C           28.92260819689003       -1.17020917516309        0.28435785741386
N           27.60890109539091       -1.45334860156546        0.21393814194159
H           30.58930537199099        0.10127224374628       -0.05906739494685
H           30.55886531842384        2.62976901202966       -0.73963257524157
H           28.70316319554089        4.43403009387159       -1.06491651421623
H           25.68476792684347        5.42083592574152        1.11111155505284
H           25.64209369249622        7.84184659684412        0.56549002895409
H           26.29723468125504        7.07133317627699       -3.45769093772138
H           26.35946645102931        4.62330479660710       -3.05419096688746
H           23.33404034034885        4.47684735780157       -0.39533982898643
H           21.49010417175669        2.66127926203684       -0.02047753731055
H           21.79777741506541       -2.70041850072143       -0.47804466726613
H           23.75031991852193       -4.52497740478504       -0.14677850298879
H           27.45768088557779       -5.56715960387266       -0.65746969053624
H           27.36819275576156       -7.93861285786814        0.05485440031849
H           25.02087446868499       -6.99758293986932        3.33942565970114
H           25.02813670598652       -4.59032752005472        2.74976294473568
H           28.96865380869169       -4.30817882653828        1.31706789285607
H           30.70825832813287       -2.38465657140376        0.92367444139420
C           18.39965574927540        0.02046536395425       -0.00145587379908
C           17.14529948129251        0.03538085560646       -0.01506874400464
C           19.83493015788677       -0.00935502249470        0.00684496984679
C           20.99758822158256       -0.03588852422696       -0.00491628516353
112
 energy: -200.738389196486 gnorm: 0.061570592820 xtb: 6.5.1 (b24c23e)
Cu          12.07867490387340        0.00338123803886       -0.00944819349112
C            8.68094696910630       -0.06087522063132       -0.03005462983925
C            9.35265453109024       -1.26940445756360        0.02762739436744
C            8.69786445836922       -2.55052465652919        0.08468052608886
C            9.66801193277792       -3.48828306275528        0.19171213411536
C           10.93600073536165       -2.79244875917312        0.20061776281836
N           10.70397604471429       -1.45023530886548        0.10124422265264
C           12.18135732843142       -3.39700035657863        0.35912328721173
C           12.18653957397370       -4.88191948413917        0.50980806922715
C           12.37661874610722       -5.47867684405462        1.75349835220183
C           12.38680953322861       -6.86204006787179        1.84338601074065
N           12.22102448889016       -7.65639959189969        0.79451696077440
C           12.02462529345596       -7.09642089847725       -0.39171377975548
C           11.99240994586646       -5.72350977058906       -0.58429109571085
C           13.41781018438231       -2.73018030685904        0.40667304859773
C           14.67763327797656       -3.36622204911357        0.68244178295316
C           15.63881345836840       -2.40713780078805        0.59530509770181
N           13.63336440015758       -1.40806551368542        0.16733772345817
C           14.99798484674796       -1.17130619658028        0.25696113733407
C           15.65384552291052        0.04465975239949       -0.02371298697544
C           14.85240926514371        1.20745769178749       -0.34099235765332
C           15.38760696184954        2.37740070563881       -0.93367601779364
C           14.39206470732750        3.30339227245610       -1.03459480672883
C           13.20777119540453        2.72307715069186       -0.51071474053341
N           13.49263416022968        1.41903373187148       -0.13405304907064
C           11.97610410209504        3.43151263200642       -0.40689305725452
C           11.97820502163566        4.92753576336035       -0.48360630878201
C           11.28699218330749        5.64440525238797       -1.46688921483159
C           11.33485494468328        7.03244127458019       -1.46303922250761
N           11.99324491753043        7.73374281651240       -0.54993726523623
C           12.62568104880082        7.06861092820624        0.40689960851057
C           12.64600638748884        5.68322692936424        0.48185225650725
C           10.74597449787421        2.81633808508084       -0.22218677722100
C            9.45541783329535        3.43967453539089       -0.05508792990963
C            8.54010933123467        2.43908200681770        0.03793506088026
C            9.26001167335860        1.19945699335972       -0.06521198098783
N           10.58214636954409        1.44914623761157       -0.20555044824247
H            7.59704645763953       -0.10716128478131       -0.02223749824005
H            7.63207488345104       -2.71985416271275        0.05493188209696
H            9.51051941070487       -4.55304226830496        0.26927645165739
H           12.50645141632941       -4.86440771651929        2.63738097182534
H           12.54140314096774       -7.34249443692252        2.80842338339562
H           11.89061164608197       -7.76886096503762       -1.23831455293327
H           11.83056920073546       -5.30892633574239       -1.57336728112635