      -----------------------------------------------------------      
     |                   =====================                   |     
     |                           x T B                           |     
     |                   =====================                   |     
     |                         S. Grimme                         |     
     |          Mulliken Center for Theoretical Chemistry        |     
     |                    University of Bonn                     |     
      -----------------------------------------------------------      

   * xtb version 6.5.1 (b24c23e) compiled by 'conda@728c89f4b128' on 2022-07-12

   xtb is free software: you can redistribute it and/or modify it under
   the terms of the GNU Lesser General Public License as published by
   the Free Software Foundation, either version 3 of the License, or
   (at your option) any later version.
   
   xtb is distributed in the hope that it will be useful,
   but WITHOUT ANY WARRANTY; without even the implied warranty of
   MERCHANTABILITY or FITNESS FOR A PARTICULAR PURPOSE.  See the
   GNU Lesser General Public License for more details.
   
   Cite this work as:
   * C. Bannwarth, E. Caldeweyher, S. Ehlert, A. Hansen, P. Pracht,
     J. Seibert, S. Spicher, S. Grimme, WIREs Comput. Mol. Sci., 2020, 11,
     e01493. DOI: 10.1002/wcms.1493
   
   for GFN2-xTB:
   * C. Bannwarth, S. Ehlert and S. Grimme., J. Chem. Theory Comput., 2019,
     15, 1652-1671. DOI: 10.1021/acs.jctc.8b01176
   for GFN1-xTB:
   * S. Grimme, C. Bannwarth, P. Shushkov, J. Chem. Theory Comput., 2017,
     13, 1989-2009. DOI: 10.1021/acs.jctc.7b00118
   for GFN0-xTB:
   * P. Pracht, E. Caldeweyher, S. Ehlert, S. Grimme, ChemRxiv, 2019, preprint.
     DOI: 10.26434/chemrxiv.8326202.v1
   for GFN-FF:
   * S. Spicher and S. Grimme, Angew. Chem. Int. Ed., 2020, 59, 15665-15673.
     DOI: 10.1002/anie.202004239
   
   for ALPB and GBSA implicit solvation:
   * S. Ehlert, M. Stahn, S. Spicher, S. Grimme, J. Chem. Theory Comput.,
     2021, 17, 4250-4261. DOI: 10.1021/acs.jctc.1c00471
   
   for DFT-D4:
   * E. Caldeweyher, C. Bannwarth and S. Grimme, J. Chem. Phys., 2017,
     147, 034112. DOI: 10.1063/1.4993215
   * E. Caldeweyher, S. Ehlert, A. Hansen, H. Neugebauer, S. Spicher,
     C. Bannwarth and S. Grimme, J. Chem. Phys., 2019, 150, 154122.
     DOI: 10.1063/1.5090222
   * E. Caldeweyher, J.-M. Mewes, S. Ehlert and S. Grimme, Phys. Chem. Chem. Phys.
     2020, 22, 8499-8512. DOI: 10.1039/D0CP00502A
   
   for sTDA-xTB:
   * S. Grimme and C. Bannwarth, J. Chem. Phys., 2016, 145, 054103.
     DOI: 10.1063/1.4959605
   
   in the mass-spec context:
   * V. Asgeirsson, C. Bauer and S. Grimme, Chem. Sci., 2017, 8, 4879.
     DOI: 10.1039/c7sc00601b
   * J. Koopman and S. Grimme, ACS Omega 2019, 4, 12, 15120-15133.
     DOI: 10.1021/acsomega.9b02011
   
   for metadynamics refer to:
   * S. Grimme, J. Chem. Theory Comput., 2019, 155, 2847-2862
     DOI: 10.1021/acs.jctc.9b00143
   
   for SPH calculations refer to:
   * S. Spicher and S. Grimme, J. Chem. Theory Comput., 2021, 17, 1701-1714
     DOI: 10.1021/acs.jctc.0c01306
   
   with help from (in alphabetical order)
   P. Atkinson, C. Bannwarth, F. Bohle, G. Brandenburg, E. Caldeweyher
   M. Checinski, S. Dohm, S. Ehlert, S. Ehrlich, I. Gerasimov, C. Hölzer
   A. Katbashev, J. Koopman, C. Lavigne, S. Lehtola, F. März, M. Müller,
   F. Musil, H. Neugebauer, J. Pisarek, C. Plett, P. Pracht, F. Pultar,
   J. Seibert, P. Shushkov, S. Spicher, M. Stahn, M. Steiner, T. Strunk,
   J. Stückrath, T. Rose, and J. Unsleber
   
 * started run on 2022/07/30 at 02:11:05.112     

           -------------------------------------------------
          |                Calculation Setup                |
           -------------------------------------------------

          program call               : xtb xtbopt.xyz --gfn 1 --vipea
          hostname                   : cx3-15-11.cx3.hpc.ic.ac.uk
          coordinate file            : xtbopt.xyz
          omp threads                :                     1

   ID    Z sym.   atoms
    1   27 Co     1, 61, 139, 198
    2    6 C      2-6, 8-12, 16-20, 22-27, 29-33, 37-42, 62-66, 68-72, 76-80,
                  82-87, 89-93, 97-102, 121-138, 140-144, 146-150, 154-158,
                  160-165, 167-171, 175-180, 199-203, 205-209, 213-217,
                  219-224, 226-230, 234-239
    3    7 N      7, 13, 21, 28, 34, 43, 67, 73, 81, 88, 94, 103, 145, 151,
                  159, 166, 172, 181, 204, 210, 218, 225, 231, 240
    4    8 O      14, 15, 35, 36, 74, 75, 95, 96, 152, 153, 173, 174, 211,
                  212, 232, 233
    5    1 H      44-60, 104-120, 182-197, 241-256

           -------------------------------------------------
          |                 I P E A - x T B                 |
           -------------------------------------------------

        Reference                      10.1039/c7sc00601b
      * Hamiltonian:
        H0-scaling (s, p, d)           2.150000    2.300000    2.000000
        zeta-weighting                 0.000000
      * Dispersion:
        s8                             2.400000
        a1                             0.630000
        a2                             5.000000
        s9                             0.000000
      * Repulsion:
        kExp                           1.500000
        rExp                           1.000000
      * Coulomb:
        alpha                          1.000000
        third order                    atomic
        anisotropic                    false
      * Halogen bond correction:
        rad-scale                      1.300000
        damping                        0.440000


          ...................................................
          :                      SETUP                      :
          :.................................................:
          :  # basis functions                1102          :
          :  # atomic orbitals                1098          :
          :  # shells                          702          :
          :  # electrons                       902          :
          :  # halogen bonds                     0          :
          :  max. iterations                   250          :
          :  Hamiltonian                  GFN1-xTB          :
          :  restarted?                      false          :
          :  GBSA solvation                  false          :
          :  PC potential                    false          :
          :  electronic temp.          300.0000000     K    :
          :  accuracy                    1.0000000          :
          :  -> integral cutoff          0.2500000E+02      :
          :  -> integral neglect         0.1000000E-07      :
          :  -> SCF convergence          0.1000000E-05 Eh   :
          :  -> wf. convergence          0.2000000E-04 e    :
          :  Broyden damping             0.4000000          :
          ...................................................

 iter      E             dE          RMSdq      gap      omega  full diag
   1   -575.3088487 -0.575309E+03  0.106E+01    0.17       0.0  T
   2   -556.5238277  0.187850E+02  0.941E+00    0.01       1.0  T
   3   -555.5545236  0.969304E+00  0.704E+00    0.25       1.0  T
   4   -341.0299128  0.214525E+03  0.820E+00    0.01       1.0  T
   5    479.2043385  0.820234E+03  0.138E+01    0.03       1.0  T
   6   -503.0861745 -0.982291E+03  0.714E+00    0.05       1.0  T
   7   -574.2710022 -0.711848E+02  0.369E+00    0.07       1.0  T
   8   -576.3077269 -0.203672E+01  0.273E+00    0.14       1.0  T
   9   -576.2845681  0.231589E-01  0.250E+00    0.14       1.0  T
  10   -576.9364836 -0.651916E+00  0.212E+00    0.04       1.0  T
  11   -577.1405197 -0.204036E+00  0.159E+00    0.13       1.0  T
  12   -576.2415433  0.898976E+00  0.205E+00    0.00       1.0  T
  13   -576.0442216  0.197322E+00  0.224E+00    0.00       1.0  T
  14   -566.5976318  0.944659E+01  0.438E+00    0.03       1.0  T
  15   -576.6401094 -0.100425E+02  0.140E+00    0.01       1.0  T
  16   -577.3502384 -0.710129E+00  0.128E+00    0.17       1.0  T
  17   -577.3575485 -0.731005E-02  0.118E+00    0.07       1.0  T
  18   -566.9099937  0.104476E+02  0.411E+00    0.28       1.0  T
  19   -567.2349628 -0.324969E+00  0.404E+00    0.19       1.0  T
  20   -576.5973700 -0.936241E+01  0.137E+00    0.06       1.0  T
  21   -577.0190450 -0.421675E+00  0.123E+00    0.07       1.0  T
  22   -577.5679480 -0.548903E+00  0.712E-01    0.03       1.0  T
  23   -577.2121919  0.355756E+00  0.153E+00    0.08       1.0  T
  24   -577.4160360 -0.203844E+00  0.119E+00    0.16       1.0  T
  25   -576.8173821  0.598654E+00  0.171E+00    0.00       1.0  T
  26   -577.5028338 -0.685452E+00  0.109E+00    0.16       1.0  T
  27   -577.7572232 -0.254389E+00  0.917E-01    0.03       1.0  T
  28   -577.5992081  0.158015E+00  0.112E+00    0.07       1.0  T
  29   -577.7725966 -0.173389E+00  0.872E-01    0.05       1.0  T
  30   -577.7514115  0.211851E-01  0.909E-01    0.01       1.0  T
  31   -577.7487350  0.267653E-02  0.876E-01    0.07       1.0  T
  32   -578.0236002 -0.274865E+00  0.153E-01    0.00       1.0  T
  33   -577.8131506  0.210450E+00  0.798E-01    0.00       1.0  T
  34   -577.9364266 -0.123276E+00  0.534E-01    0.02       1.0  T
  35   -577.9639906 -0.275640E-01  0.456E-01    0.00       1.0  T
  36   -578.0293679 -0.653773E-01  0.159E-01    0.00       1.0  T
  37   -578.0084583  0.209096E-01  0.294E-01    0.00       1.0  T
  38   -578.0285724 -0.201142E-01  0.168E-01    0.00       1.0  T
  39   -578.0245219  0.405049E-02  0.199E-01    0.01       1.0  T
  40   -578.0256858 -0.116384E-02  0.180E-01    0.01       1.0  T
  41   -578.0294441 -0.375832E-02  0.150E-01    0.00       1.0  T
  42   -578.0264405  0.300365E-02  0.160E-01    0.01       1.0  T
  43   -578.0293794 -0.293892E-02  0.137E-01    0.00       1.0  T
  44   -578.0346176 -0.523819E-02  0.673E-02    0.00       1.0  T
  45   -578.0337756  0.841998E-03  0.811E-02    0.00       1.0  T
  46   -578.0351153 -0.133970E-02  0.575E-02    0.00       1.0  T
  47   -578.0360501 -0.934799E-03  0.338E-02    0.00       1.0  T
  48   -578.0358329  0.217118E-03  0.428E-02    0.00       1.0  T
  49   -578.0360781 -0.245131E-03  0.361E-02    0.00       1.0  T
  50   -578.0363571 -0.279008E-03  0.277E-02    0.00       1.0  T
  51   -578.0363977 -0.406549E-04  0.261E-02    0.00       1.0  T
  52   -578.0365020 -0.104271E-03  0.205E-02    0.00       1.0  T
  53   -578.0364849  0.171279E-04  0.212E-02    0.00       1.0  T
  54   -578.0365654 -0.805289E-04  0.150E-02    0.00       1.0  T
  55   -578.0365999 -0.344489E-04  0.111E-02    0.00       1.0  T
  56   -578.0366153 -0.154093E-04  0.869E-03    0.00       1.0  T
  57   -578.0366191 -0.381997E-05  0.769E-03    0.00       1.0  T
  58   -578.0366256 -0.654367E-05  0.655E-03    0.00       1.0  T
  59   -578.0366245  0.109118E-05  0.665E-03    0.00       1.0  T
  60   -578.0366333 -0.872680E-05  0.465E-03    0.00       1.3  T
  61   -578.0366401 -0.679263E-05  0.193E-03    0.00       3.2  T
  62   -578.0366401 -0.529189E-08  0.181E-03    0.00       3.5  T
  63   -578.0366410 -0.909721E-06  0.949E-04    0.00       6.6  T
  64   -578.0366411 -0.162053E-06  0.669E-04    0.00       9.3  T
  65   -578.0366411 -0.832199E-08  0.649E-04    0.00       9.6  T
  66   -578.0366412 -0.435438E-07  0.562E-04    0.00      11.1  T
  67   -578.0366413 -0.591812E-07  0.417E-04    0.00      15.0  T
  68   -578.0366413 -0.174904E-07  0.369E-04    0.00      16.9  T
  69   -578.0366413 -0.147406E-07  0.324E-04    0.00      19.3  T
  70   -578.0366413 -0.160890E-07  0.258E-04    0.00      24.2  T
  71   -578.0366413 -0.128340E-07  0.200E-04    0.00      31.3  T
  72   -578.0366413 -0.110304E-07  0.119E-04    0.00      52.6  T

   *** convergence criteria satisfied after 72 iterations ***

         #    Occupation            Energy/Eh            Energy/eV
      -------------------------------------------------------------
         1        2.0000           -1.1875267             -32.3142
       ...           ...                  ...                  ...
       445        1.9998           -0.3788245             -10.3083
       446        1.9998           -0.3787875             -10.3073
       447        1.9998           -0.3787841             -10.3072
       448        1.9998           -0.3787059             -10.3051
       449        1.9998           -0.3786258             -10.3029
       450        1.0402           -0.3700031             -10.0683
       451        1.0093           -0.3699443             -10.0667 (HOMO)
       452        0.9801           -0.3698888             -10.0652 (LUMO)
       453        0.9721           -0.3698737             -10.0648
       454                         -0.3349751              -9.1151
       455                         -0.3280651              -8.9271
       456                         -0.3217978              -8.7566
       ...                                ...                  ...
      1098                        524.1440951           14262.6868
      -------------------------------------------------------------
                  HL-Gap            0.0000555 Eh            0.0015 eV
             Fermi-level           -0.3699267 Eh          -10.0662 eV

 SCC (total)                   0 d,  0 h,  1 min, 10.329 sec
 SCC setup                      ...        0 min,  0.017 sec (  0.024%)
 Dispersion                     ...        0 min,  0.018 sec (  0.025%)
 classical contributions        ...        0 min,  0.006 sec (  0.008%)
 integral evaluation            ...        0 min,  1.324 sec (  1.883%)
 iterations                     ...        1 min,  5.922 sec ( 93.734%)
 molecular gradient             ...        0 min,  2.854 sec (  4.058%)
 printout                       ...        0 min,  0.189 sec (  0.268%)

         :::::::::::::::::::::::::::::::::::::::::::::::::::::
         ::                     SUMMARY                     ::
         :::::::::::::::::::::::::::::::::::::::::::::::::::::
         :: total energy            -567.780277641793 Eh    ::
         :: gradient norm              0.144135501168 Eh/a0 ::
         :: HOMO-LUMO gap              0.001510558916 eV    ::
         ::.................................................::
         :: SCC energy              -578.036641322742 Eh    ::
         :: -> electrostatic           0.451022447984 Eh    ::
         :: repulsion energy          10.488268493468 Eh    ::
         :: dispersion energy         -0.231904812519 Eh    ::
         :: halogen bond corr.         0.000000000000 Eh    ::
         :: add. restraining           0.000000000000 Eh    ::
         :: total charge              -0.000000000002 e     ::
         :::::::::::::::::::::::::::::::::::::::::::::::::::::

           ------------------------------------------------- 
          |        vertical delta SCC IP calculation        |
           ------------------------------------------------- 
   1   -577.6211063 -0.577621E+03  0.276E-01    0.00       0.0  T
   2   -577.4497829  0.171323E+00  0.752E-01    0.00       1.0  T
   3   -576.6285168  0.821266E+00  0.155E+00    0.20       1.0  T
   4   -577.3995211 -0.771004E+00  0.760E-01    0.00       1.0  T
   5   -577.4317477 -0.322266E-01  0.689E-01    0.05       1.0  T
   6   -577.3730575  0.586902E-01  0.776E-01    0.03       1.0  T
   7   -577.4767527 -0.103695E+00  0.615E-01    0.05       1.0  T
   8   -577.5733729 -0.966202E-01  0.381E-01    0.03       1.0  T
   9   -577.6350154 -0.616424E-01  0.962E-02    0.00       1.0  T
  10   -577.6336231  0.139223E-02  0.113E-01    0.01       1.0  T
  11   -577.6184408  0.151824E-01  0.214E-01    0.02       1.0  T
  12   -577.6301505 -0.117098E-01  0.140E-01    0.01       1.0  T
  13   -577.6349286 -0.477804E-02  0.937E-02    0.01       1.0  T
  14   -577.6388049 -0.387629E-02  0.132E-02    0.00       1.0  T
  15   -577.6388638 -0.589278E-04  0.587E-03    0.00       1.1  T
  16   -577.6388532  0.105763E-04  0.759E-03    0.00       1.0  T
  17   -577.6388707 -0.174630E-04  0.435E-03    0.00       1.4  T
  18   -577.6388770 -0.634748E-05  0.223E-03    0.00       2.8  T
  19   -577.6388787 -0.162955E-05  0.118E-03    0.00       5.3  T
  20   -577.6388791 -0.443954E-06  0.631E-04    0.00       9.9  T
  21   -577.6388792 -0.782239E-07  0.469E-04    0.00      13.3  T
  22   -577.6388793 -0.843953E-07  0.172E-04    0.00      36.3  T
  23   -577.6388793 -0.127793E-07  0.312E-05    0.00     200.4  T
     SCC iter.                  ...        0 min, 23.355 sec
     gradient                   ...        0 min,  2.844 sec
------------------------------------------------------------------------
empirical IP shift (eV):    4.8455
delta SCC IP (eV):    5.9782
------------------------------------------------------------------------
           ------------------------------------------------- 
          |        vertical delta SCC EA calculation        |
           ------------------------------------------------- 
   1   -578.3154195 -0.578315E+03  0.536E-01    0.00       0.0  T
   2   -578.1033051  0.212114E+00  0.822E-01    0.00       1.0  T
   3   -577.2695325  0.833773E+00  0.163E+00    0.11       1.0  T
   4   -578.1835715 -0.914039E+00  0.701E-01    0.04       1.0  T
   5   -578.1331148  0.504566E-01  0.757E-01    0.11       1.0  T
   6   -578.1308350  0.227988E-02  0.784E-01    0.08       1.0  T
   7   -578.1694968 -0.386619E-01  0.709E-01    0.04       1.0  T
   8   -578.1578392  0.116576E-01  0.733E-01    0.00       1.0  T
   9   -578.3755220 -0.217683E+00  0.975E-02    0.01       1.0  T
  10   -578.3792363 -0.371431E-02  0.194E-02    0.00       1.0  T
  11   -578.3760524  0.318394E-02  0.891E-02    0.00       1.0  T
  12   -578.3718855  0.416687E-02  0.133E-01    0.00       1.0  T
  13   -578.3761838 -0.429832E-02  0.873E-02    0.00       1.0  T
  14   -578.3776983 -0.151445E-02  0.635E-02    0.00       1.0  T
  15   -578.3793981 -0.169988E-02  0.175E-03    0.00       3.6  T
  16   -578.3793970  0.111924E-05  0.242E-03    0.00       2.6  T
  17   -578.3793771  0.199155E-04  0.730E-03    0.00       1.0  T
  18   -578.3793962 -0.190458E-04  0.283E-03    0.00       2.2  T
  19   -578.3793995 -0.334411E-05  0.984E-05    0.00      63.5  T
  20   -578.3793993  0.161630E-06  0.629E-04    0.00       9.9  T
  21   -578.3793995 -0.165511E-06  0.251E-05    0.00     249.2  T
  22   -578.3793995  0.558589E-08  0.118E-04    0.00      52.8  T
     SCC iter.                  ...        0 min, 22.008 sec
     gradient                   ...        0 min,  2.889 sec
------------------------------------------------------------------------
empirical EA shift (eV):    4.8455
delta SCC EA (eV):    4.4814
------------------------------------------------------------------------
           -------------------------------------------------
          |                Property Printout                |
           -------------------------------------------------

    * Orbital Energies and Occupations

         #    Occupation            Energy/Eh            Energy/eV
      -------------------------------------------------------------
         1        2.0000           -1.1571952             -31.4889
       ...           ...                  ...                  ...
       440        2.0000           -0.3269082              -8.8956
       441        2.0000           -0.3269081              -8.8956
       442        2.0000           -0.3267282              -8.8907
       443        2.0000           -0.3267264              -8.8907
       444        1.9999           -0.3266782              -8.8894
       445        1.9999           -0.3264729              -8.8838
       446        1.9999           -0.3264304              -8.8826
       447        1.9999           -0.3264108              -8.8821
       448        1.9999           -0.3263507              -8.8805
       449        1.9999           -0.3263271              -8.8798
       450        1.2744           -0.3170800              -8.6282
       451        1.2594           -0.3170471              -8.6273
       452        1.2412           -0.3170076              -8.6262 (HOMO)
       453        1.2256           -0.3169740              -8.6253 (LUMO)
       454                         -0.2917671              -7.9394
       455                         -0.2854686              -7.7680
       456                         -0.2833473              -7.7103
       457                         -0.2833215              -7.7096
       458                         -0.2817264              -7.6662
       459                         -0.2817069              -7.6656
       460                         -0.2781534              -7.5689
       461                         -0.2752658              -7.4904
       462                         -0.2751613              -7.4875
       463                         -0.2732060              -7.4343
       ...                                ...                  ...
      1098                        524.1857930           14263.8215
      -------------------------------------------------------------
                  HL-Gap            0.0000336 Eh            0.0009 eV
             Fermi-level           -0.3165048 Eh           -8.6125 eV

  Mulliken/CM5 charges         n(s)   n(p)   n(d)
     1Co    0.32674  0.73427   0.324  0.979  7.370
     2C    -0.01887 -0.06011   1.086  2.932  0.000
     3C     0.05639  0.11682   1.111  2.833  0.000
     4C    -0.03749 -0.08400   1.085  2.953  0.000
     5C    -0.03735 -0.08355   1.077  2.960  0.000
     6C     0.05841  0.12240   1.106  2.836  0.000
     7N    -0.21466 -0.47557   1.317  3.897  0.000
     8C     0.00783  0.01326   1.081  2.911  0.000
     9C     0.01924  0.01062   1.094  2.887  0.000
    10C    -0.01473 -0.06769   1.078  2.936  0.000
    11C    -0.00824 -0.05494   1.091  2.917  0.000
    12C     0.04405  0.09855   1.117  2.839  0.000
    13N     0.29823  0.12618   1.470  3.232  0.000
    14O    -0.27449 -0.23354   1.675  4.599  0.000
    15O    -0.27349 -0.23253   1.675  4.598  0.000
    16C    -0.00876 -0.05547   1.091  2.917  0.000
    17C    -0.01521 -0.06822   1.078  2.937  0.000
    18C     0.05763  0.12100   1.103  2.839  0.000
    19C    -0.03652 -0.08266   1.076  2.961  0.000
    20C    -0.03591 -0.08151   1.083  2.953  0.000
    21N    -0.21299 -0.47352   1.318  3.895  0.000
    22C     0.06150  0.12645   1.116  2.822  0.000
    23C     0.01960  0.02663   1.080  2.900  0.000
    24C     0.06158  0.12665   1.116  2.823  0.000
    25C    -0.03593 -0.08152   1.083  2.953  0.000
    26C    -0.03646 -0.08265   1.076  2.960  0.000
    27C     0.05755  0.12077   1.104  2.839  0.000
    28N    -0.21309 -0.47341   1.318  3.895  0.000
    29C     0.00780  0.01324   1.081  2.911  0.000
    30C     0.01924  0.01062   1.094  2.887  0.000
    31C    -0.01533 -0.06829   1.079  2.937  0.000
    32C    -0.00880 -0.05550   1.092  2.917  0.000
    33C     0.04403  0.09852   1.117  2.839  0.000
    34N     0.29820  0.12615   1.470  3.232  0.000
    35O    -0.27455 -0.23361   1.675  4.599  0.000
    36O    -0.27349 -0.23253   1.675  4.598  0.000
    37C    -0.00823 -0.05494   1.091  2.917  0.000
    38C    -0.01461 -0.06762   1.078  2.937  0.000
    39C     0.05852  0.12264   1.105  2.836  0.000
    40C    -0.03740 -0.08356   1.077  2.961  0.000
    41C    -0.03745 -0.08396   1.085  2.952  0.000
    42C     0.05631  0.11661   1.111  2.833  0.000
    43N    -0.21451 -0.47570   1.317  3.897  0.000
    44H     0.02970  0.08862   0.970  0.000  0.000
    45H     0.03202  0.08866   0.968  0.000  0.000
    46H     0.02433  0.08312   0.976  0.000  0.000
    47H     0.03438  0.09250   0.966  0.000  0.000
    48H     0.05376  0.11769   0.946  0.000  0.000
    49H     0.05271  0.11664   0.947  0.000  0.000
    50H     0.03369  0.09186   0.966  0.000  0.000
    51H     0.02548  0.08430   0.975  0.000  0.000
    52H     0.02823  0.08629   0.972  0.000  0.000
    53H     0.02829  0.08631   0.972  0.000  0.000
    54H     0.02538  0.08421   0.975  0.000  0.000
    55H     0.03360  0.09173   0.966  0.000  0.000
    56H     0.05264  0.11656   0.947  0.000  0.000
    57H     0.05381  0.11774   0.946  0.000  0.000
    58H     0.03444  0.09260   0.966  0.000  0.000
    59H     0.02445  0.08323   0.976  0.000  0.000
    60H     0.03196  0.08860   0.968  0.000  0.000
    61Co    0.32717  0.73567   0.324  0.979  7.370
    62C    -0.01888 -0.06011   1.086  2.932  0.000
    63C     0.05631  0.11672   1.111  2.833  0.000
    64C    -0.03752 -0.08402   1.085  2.953  0.000
    65C    -0.03739 -0.08359   1.077  2.960  0.000
    66C     0.05838  0.12241   1.106  2.836  0.000
    67N    -0.21456 -0.47581   1.317  3.897  0.000
    68C     0.00782  0.01327   1.081  2.911  0.000
    69C     0.01923  0.01062   1.094  2.887  0.000
    70C    -0.01474 -0.06769   1.078  2.936  0.000
    71C    -0.00827 -0.05498   1.091  2.917  0.000
    72C     0.04404  0.09853   1.117  2.839  0.000
    73N     0.29824  0.12620   1.470  3.232  0.000
    74O    -0.27441 -0.23345   1.675  4.599  0.000
    75O    -0.27360 -0.23264   1.675  4.598  0.000
    76C    -0.00875 -0.05546   1.091  2.917  0.000
    77C    -0.01520 -0.06821   1.078  2.937  0.000
    78C     0.05753  0.12086   1.103  2.839  0.000
    79C    -0.03650 -0.08265   1.076  2.960  0.000
    80C    -0.03595 -0.08154   1.083  2.953  0.000
    81N    -0.21290 -0.47370   1.318  3.895  0.000
    82C     0.06153  0.12658   1.116  2.822  0.000
    83C     0.01952  0.02658   1.080  2.900  0.000
    84C     0.06164  0.12681   1.116  2.822  0.000
    85C    -0.03597 -0.08155   1.083  2.953  0.000
    86C    -0.03643 -0.08262   1.076  2.960  0.000
    87C     0.05744  0.12064   1.104  2.839  0.000
    88N    -0.21294 -0.47366   1.318  3.895  0.000
    89C     0.00783  0.01329   1.081  2.911  0.000
    90C     0.01922  0.01062   1.094  2.887  0.000
    91C    -0.01531 -0.06827   1.078  2.937  0.000
    92C    -0.00878 -0.05549   1.091  2.917  0.000
    93C     0.04403  0.09851   1.117  2.839  0.000
    94N     0.29823  0.12619   1.470  3.232  0.000
    95O    -0.27446 -0.23350   1.675  4.599  0.000
    96O    -0.27356 -0.23260   1.675  4.598  0.000
    97C    -0.00825 -0.05496   1.091  2.917  0.000
    98C    -0.01462 -0.06762   1.078  2.937  0.000
    99C     0.05844  0.12259   1.105  2.836  0.000
   100C    -0.03741 -0.08358   1.077  2.961  0.000
   101C    -0.03749 -0.08400   1.085  2.952  0.000
   102C     0.05626  0.11658   1.111  2.833  0.000
   103N    -0.21446 -0.47592   1.317  3.897  0.000
   104H     0.02970  0.08861   0.970  0.000  0.000
   105H     0.03199  0.08863   0.968  0.000  0.000
   106H     0.02429  0.08307   0.976  0.000  0.000
   107H     0.03433  0.09246   0.966  0.000  0.000
   108H     0.05366  0.11760   0.946  0.000  0.000
   109H     0.05274  0.11667   0.947  0.000  0.000
   110H     0.03371  0.09188   0.966  0.000  0.000
   111H     0.02548  0.08429   0.975  0.000  0.000
   112H     0.02830  0.08633   0.972  0.000  0.000
   113H     0.02834  0.08636   0.972  0.000  0.000
   114H     0.02540  0.08420   0.975  0.000  0.000
   115H     0.03363  0.09177   0.966  0.000  0.000
   116H     0.05268  0.11660   0.947  0.000  0.000
   117H     0.05374  0.11767   0.946  0.000  0.000
   118H     0.03440  0.09257   0.966  0.000  0.000
   119H     0.02438  0.08316   0.976  0.000  0.000
   120H     0.03195  0.08858   0.968  0.000  0.000
   121C    -0.01251 -0.01260   1.077  2.936  0.000
   122C    -0.01279 -0.01287   1.077  2.936  0.000
   123C    -0.01749 -0.01815   1.065  2.952  0.000
   124C    -0.01422 -0.01577   1.093  2.921  0.000
   125C    -0.01741 -0.01806   1.065  2.952  0.000
   126C    -0.01369 -0.01520   1.094  2.920  0.000
   127C    -0.01242 -0.01250   1.077  2.936  0.000
   128C    -0.01243 -0.01251   1.077  2.936  0.000
   129C    -0.01717 -0.01782   1.065  2.952  0.000
   130C    -0.01379 -0.01530   1.093  2.921  0.000
   131C    -0.01718 -0.01782   1.065  2.952  0.000
   132C    -0.01378 -0.01528   1.093  2.921  0.000
   133C    -0.01299 -0.01307   1.077  2.936  0.000
   134C    -0.01273 -0.01281   1.077  2.936  0.000
   135C    -0.01755 -0.01819   1.065  2.952  0.000
   136C    -0.01388 -0.01538   1.093  2.921  0.000
   137C    -0.01764 -0.01830   1.065  2.953  0.000
   138C    -0.01439 -0.01593   1.093  2.921  0.000
   139Co    0.33268  0.74027   0.322  0.975  7.370
   140C     0.01975  0.02685   1.081  2.900  0.000
   141C     0.06159  0.12670   1.116  2.822  0.000
   142C    -0.03611 -0.08170   1.083  2.953  0.000
   143C    -0.03623 -0.08239   1.077  2.960  0.000
   144C     0.05759  0.12102   1.103  2.839  0.000
   145N    -0.21238 -0.47337   1.317  3.895  0.000
   146C     0.01007  0.01549   1.082  2.908  0.000
   147C     0.01929  0.01069   1.093  2.888  0.000
   148C    -0.01460 -0.06758   1.078  2.937  0.000
   149C    -0.00819 -0.05490   1.091  2.917  0.000
   150C     0.04438  0.09879   1.118  2.838  0.000
   151N     0.29874  0.12673   1.470  3.231  0.000
   152O    -0.27350 -0.23251   1.675  4.598  0.000
   153O    -0.27336 -0.23237   1.675  4.598  0.000
   154C    -0.00824 -0.05494   1.091  2.917  0.000
   155C    -0.01469 -0.06765   1.078  2.936  0.000
   156C     0.05754  0.12079   1.103  2.839  0.000
   157C    -0.03603 -0.08222   1.077  2.959  0.000
   158C    -0.03592 -0.08151   1.083  2.953  0.000
   159N    -0.21231 -0.47317   1.317  3.895  0.000
   160C     0.06192  0.12722   1.116  2.822  0.000
   161C     0.01983  0.02693   1.081  2.900  0.000
   162C     0.06181  0.12704   1.116  2.822  0.000
   163C    -0.03595 -0.08154   1.083  2.953  0.000
   164C    -0.03610 -0.08226   1.077  2.959  0.000
   165C     0.05756  0.12090   1.103  2.839  0.000
   166N    -0.21230 -0.47328   1.317  3.895  0.000
   167C     0.01006  0.01549   1.082  2.908  0.000
   168C     0.01930  0.01070   1.093  2.888  0.000
   169C    -0.01465 -0.06760   1.078  2.936  0.000
   170C    -0.00819 -0.05490   1.092  2.917  0.000
   171C     0.04437  0.09878   1.118  2.838  0.000
   172N     0.29873  0.12671   1.470  3.231  0.000
   173O    -0.27337 -0.23238   1.675  4.598  0.000
   174O    -0.27354 -0.23256   1.675  4.598  0.000
   175C    -0.00824 -0.05495   1.091  2.917  0.000
   176C    -0.01464 -0.06762   1.078  2.937  0.000
   177C     0.05755  0.12089   1.103  2.839  0.000
   178C    -0.03619 -0.08237   1.077  2.959  0.000
   179C    -0.03610 -0.08169   1.083  2.953  0.000
   180C     0.06168  0.12688   1.116  2.822  0.000
   181N    -0.21240 -0.47325   1.317  3.895  0.000
   182H     0.02804  0.08605   0.972  0.000  0.000
   183H     0.02546  0.08424   0.975  0.000  0.000
   184H     0.03441  0.09260   0.966  0.000  0.000
   185H     0.05380  0.11774   0.946  0.000  0.000
   186H     0.05368  0.11761   0.946  0.000  0.000
   187H     0.03430  0.09245   0.966  0.000  0.000
   188H     0.02564  0.08444   0.974  0.000  0.000
   189H     0.02847  0.08649   0.972  0.000  0.000
   190H     0.02837  0.08636   0.972  0.000  0.000
   191H     0.02566  0.08444   0.974  0.000  0.000
   192H     0.03440  0.09255   0.966  0.000  0.000
   193H     0.05379  0.11772   0.946  0.000  0.000
   194H     0.05368  0.11761   0.946  0.000  0.000
   195H     0.03434  0.09251   0.966  0.000  0.000
   196H     0.02540  0.08420   0.975  0.000  0.000
   197H     0.02808  0.08609   0.972  0.000  0.000
   198Co    0.33311  0.74187   0.322  0.975  7.370
   199C     0.01982  0.02692   1.081  2.900  0.000
   200C     0.06174  0.12696   1.116  2.822  0.000
   201C    -0.03599 -0.08157   1.083  2.953  0.000
   202C    -0.03613 -0.08229   1.077  2.959  0.000
   203C     0.05750  0.12086   1.103  2.840  0.000
   204N    -0.21223 -0.47366   1.317  3.895  0.000
   205C     0.01010  0.01554   1.082  2.907  0.000
   206C     0.01928  0.01069   1.093  2.888  0.000
   207C    -0.01465 -0.06763   1.078  2.937  0.000
   208C    -0.00827 -0.05498   1.091  2.917  0.000
   209C     0.04438  0.09878   1.118  2.838  0.000
   210N     0.29872  0.12672   1.470  3.231  0.000
   211O    -0.27332 -0.23234   1.675  4.598  0.000
   212O    -0.27357 -0.23258   1.675  4.598  0.000
   213C    -0.00818 -0.05488   1.092  2.917  0.000
   214C    -0.01463 -0.06758   1.078  2.936  0.000
   215C     0.05746  0.12075   1.103  2.839  0.000
   216C    -0.03614 -0.08233   1.077  2.959  0.000
   217C    -0.03612 -0.08170   1.083  2.953  0.000
   218N    -0.21233 -0.47342   1.317  3.895  0.000
   219C     0.06172  0.12700   1.116  2.822  0.000
   220C     0.01971  0.02682   1.081  2.900  0.000
   221C     0.06161  0.12679   1.116  2.822  0.000
   222C    -0.03615 -0.08173   1.083  2.953  0.000
   223C    -0.03622 -0.08238   1.077  2.960  0.000
   224C     0.05748  0.12090   1.103  2.840  0.000
   225N    -0.21224 -0.47372   1.317  3.895  0.000
   226C     0.01011  0.01555   1.082  2.907  0.000
   227C     0.01928  0.01070   1.093  2.888  0.000
   228C    -0.01470 -0.06764   1.078  2.936  0.000
   229C    -0.00827 -0.05497   1.091  2.917  0.000
   230C     0.04438  0.09878   1.118  2.838  0.000
   231N     0.29875  0.12674   1.470  3.231  0.000
   232O    -0.27355 -0.23256   1.675  4.598  0.000
   233O    -0.27334 -0.23235   1.675  4.598  0.000
   234C    -0.00817 -0.05488   1.091  2.917  0.000
   235C    -0.01457 -0.06756   1.078  2.937  0.000
   236C     0.05748  0.12073   1.103  2.839  0.000
   237C    -0.03603 -0.08222   1.077  2.959  0.000
   238C    -0.03595 -0.08153   1.083  2.953  0.000
   239C     0.06189  0.12721   1.116  2.822  0.000
   240N    -0.21228 -0.47336   1.317  3.895  0.000
   241H     0.02835  0.08634   0.972  0.000  0.000
   242H     0.02562  0.08438   0.974  0.000  0.000
   243H     0.03430  0.09249   0.966  0.000  0.000
   244H     0.05360  0.11754   0.946  0.000  0.000
   245H     0.05384  0.11776   0.946  0.000  0.000
   246H     0.03441  0.09257   0.966  0.000  0.000
   247H     0.02542  0.08420   0.975  0.000  0.000
   248H     0.02815  0.08615   0.972  0.000  0.000
   249H     0.02810  0.08609   0.972  0.000  0.000
   250H     0.02547  0.08423   0.975  0.000  0.000
   251H     0.03423  0.09240   0.966  0.000  0.000
   252H     0.05359  0.11752   0.946  0.000  0.000
   253H     0.05385  0.11779   0.946  0.000  0.000
   254H     0.03447  0.09266   0.966  0.000  0.000
   255H     0.02558  0.08436   0.974  0.000  0.000
   256H     0.02845  0.08645   0.972  0.000  0.000

Wiberg/Mayer (AO) data.
largest (>0.10) Wiberg bond orders for each atom

 ---------------------------------------------------------------------------
     #   Z sym  total        # sym  WBO       # sym  WBO       # sym  WBO
 ---------------------------------------------------------------------------
     1  27 Co   3.663 --    43 N    0.712     7 N    0.712    21 N    0.708
                            28 N    0.707
     2   6 C    3.841 --    42 C    1.395     3 C    1.392    44 H    0.996
     3   6 C    3.954 --     2 C    1.392     7 N    1.244     4 C    1.198
     4   6 C    3.855 --     5 C    1.644     3 C    1.198    45 H    0.993
     5   6 C    3.835 --     4 C    1.644     6 C    1.203    46 H    0.998
     6   6 C    3.932 --     8 C    1.361     7 N    1.250     5 C    1.203
     7   7 N    2.991 --     6 C    1.250     3 C    1.244     1 Co   0.712
     8   6 C    3.843 --    18 C    1.365     6 C    1.361     9 C    1.058
     9   6 C    3.896 --    17 C    1.414    10 C    1.414     8 C    1.058
    10   6 C    3.865 --    11 C    1.466     9 C    1.414    47 H    0.988
    11   6 C    3.899 --    10 C    1.466    12 C    1.405    48 H    0.985
    12   6 C    3.934 --    16 C    1.405    11 C    1.405    13 N    1.006
    13   7 N    4.110 --    15 O    1.568    14 O    1.567    12 C    1.006
    14   8 O    2.008 --    13 N    1.567    15 O    0.382
    15   8 O    2.009 --    13 N    1.568    14 O    0.382
    16   6 C    3.899 --    17 C    1.466    12 C    1.405    49 H    0.985
    17   6 C    3.866 --    16 C    1.466     9 C    1.414    50 H    0.988
    18   6 C    3.922 --     8 C    1.365    21 N    1.241    19 C    1.209
    19   6 C    3.830 --    20 C    1.632    18 C    1.209    51 H    0.997
    20   6 C    3.849 --    19 C    1.632    22 C    1.218    52 H    0.998
    21   7 N    2.998 --    22 C    1.264    18 C    1.241     1 Co   0.708
    22   6 C    3.932 --    23 C    1.308    21 N    1.264    20 C    1.218
    23   6 C    3.871 --    22 C    1.308    24 C    1.306   124 C    1.207
    24   6 C    3.932 --    23 C    1.306    28 N    1.267    25 C    1.219
    25   6 C    3.847 --    26 C    1.632    24 C    1.219    53 H    0.998
    26   6 C    3.830 --    25 C    1.632    27 C    1.208    54 H    0.997
    27   6 C    3.922 --    29 C    1.367    28 N    1.239    26 C    1.208
    28   7 N    2.998 --    24 C    1.267    27 C    1.239     1 Co   0.707
    29   6 C    3.843 --    27 C    1.367    39 C    1.358    30 C    1.058
    30   6 C    3.896 --    38 C    1.415    31 C    1.414    29 C    1.058
    31   6 C    3.865 --    32 C    1.466    30 C    1.414    55 H    0.988
    32   6 C    3.899 --    31 C    1.466    33 C    1.405    56 H    0.985
    33   6 C    3.934 --    37 C    1.405    32 C    1.405    34 N    1.006
    34   7 N    4.110 --    36 O    1.568    35 O    1.567    33 C    1.006
    35   8 O    2.008 --    34 N    1.567    36 O    0.382
    36   8 O    2.009 --    34 N    1.568    35 O    0.382
    37   6 C    3.899 --    38 C    1.466    33 C    1.405    57 H    0.985
    38   6 C    3.866 --    37 C    1.466    30 C    1.415    58 H    0.988
    39   6 C    3.931 --    29 C    1.358    43 N    1.252    40 C    1.203
    40   6 C    3.835 --    41 C    1.644    39 C    1.203    59 H    0.998
    41   6 C    3.857 --    40 C    1.644    42 C    1.197    60 H    0.993
    42   6 C    3.954 --     2 C    1.395    43 N    1.242    41 C    1.197
    43   7 N    2.991 --    39 C    1.252    42 C    1.242     1 Co   0.712
    44   1 H    1.034 --     2 C    0.996
    45   1 H    1.026 --     4 C    0.993
    46   1 H    1.041 --     5 C    0.998
    47   1 H    1.049 --    10 C    0.988
    48   1 H    1.029 --    11 C    0.985
    49   1 H    1.030 --    16 C    0.985
    50   1 H    1.048 --    17 C    0.988
    51   1 H    1.040 --    19 C    0.997
    52   1 H    1.037 --    20 C    0.998
    53   1 H    1.037 --    25 C    0.998
    54   1 H    1.040 --    26 C    0.997
    55   1 H    1.048 --    31 C    0.988
    56   1 H    1.030 --    32 C    0.985
    57   1 H    1.029 --    37 C    0.985
    58   1 H    1.049 --    38 C    0.988
    59   1 H    1.040 --    40 C    0.998
    60   1 H    1.026 --    41 C    0.993
    61  27 Co   3.665 --   103 N    0.712    67 N    0.712    81 N    0.708
                            88 N    0.708
    62   6 C    3.840 --   102 C    1.394    63 C    1.393   104 H    0.996
    63   6 C    3.954 --    62 C    1.393    67 N    1.244    64 C    1.198
    64   6 C    3.855 --    65 C    1.644    63 C    1.198   105 H    0.993
    65   6 C    3.835 --    64 C    1.644    66 C    1.203   106 H    0.998
    66   6 C    3.931 --    68 C    1.360    67 N    1.250    65 C    1.203
    67   7 N    2.991 --    66 C    1.250    63 C    1.244    61 Co   0.712
    68   6 C    3.842 --    78 C    1.365    66 C    1.360    69 C    1.058
    69   6 C    3.896 --    77 C    1.414    70 C    1.414    68 C    1.058
    70   6 C    3.865 --    71 C    1.466    69 C    1.414   107 H    0.988
    71   6 C    3.899 --    70 C    1.466    72 C    1.405   108 H    0.985
    72   6 C    3.934 --    76 C    1.405    71 C    1.405    73 N    1.005
    73   7 N    4.110 --    75 O    1.568    74 O    1.567    72 C    1.005
    74   8 O    2.009 --    73 N    1.567    75 O    0.382
    75   8 O    2.009 --    73 N    1.568    74 O    0.382
    76   6 C    3.899 --    77 C    1.466    72 C    1.405   109 H    0.985
    77   6 C    3.866 --    76 C    1.466    69 C    1.414   110 H    0.988
    78   6 C    3.922 --    68 C    1.365    81 N    1.240    79 C    1.209
    79   6 C    3.830 --    80 C    1.632    78 C    1.209   111 H    0.997
    80   6 C    3.849 --    79 C    1.632    82 C    1.219   112 H    0.998
    81   7 N    2.998 --    82 C    1.265    78 C    1.240    61 Co   0.708
    82   6 C    3.932 --    83 C    1.306    81 N    1.265    80 C    1.219
    83   6 C    3.870 --    82 C    1.306    84 C    1.304   138 C    1.211
    84   6 C    3.932 --    83 C    1.304    88 N    1.267    85 C    1.219
    85   6 C    3.847 --    86 C    1.632    84 C    1.219   113 H    0.998
    86   6 C    3.830 --    85 C    1.632    87 C    1.208   114 H    0.997
    87   6 C    3.922 --    89 C    1.367    88 N    1.238    86 C    1.208
    88   7 N    2.998 --    84 C    1.267    87 C    1.238    61 Co   0.708
    89   6 C    3.842 --    87 C    1.367    99 C    1.358    90 C    1.058
    90   6 C    3.896 --    98 C    1.414    91 C    1.414    89 C    1.058
    91   6 C    3.865 --    92 C    1.466    90 C    1.414   115 H    0.988
    92   6 C    3.899 --    91 C    1.466    93 C    1.405   116 H    0.985
    93   6 C    3.934 --    97 C    1.405    92 C    1.405    94 N    1.005
    94   7 N    4.110 --    96 O    1.568    95 O    1.567    93 C    1.005
    95   8 O    2.008 --    94 N    1.567    96 O    0.382
    96   8 O    2.009 --    94 N    1.568    95 O    0.382
    97   6 C    3.899 --    98 C    1.466    93 C    1.405   117 H    0.985
    98   6 C    3.866 --    97 C    1.466    90 C    1.414   118 H    0.988
    99   6 C    3.931 --    89 C    1.358   103 N    1.252   100 C    1.203
   100   6 C    3.835 --   101 C    1.644    99 C    1.203   119 H    0.998
   101   6 C    3.857 --   100 C    1.644   102 C    1.198   120 H    0.993
   102   6 C    3.954 --    62 C    1.394   103 N    1.242   101 C    1.198
   103   7 N    2.991 --    99 C    1.252   102 C    1.242    61 Co   0.712
   104   1 H    1.034 --    62 C    0.996
   105   1 H    1.026 --    64 C    0.993
   106   1 H    1.041 --    65 C    0.998
   107   1 H    1.049 --    70 C    0.988
   108   1 H    1.029 --    71 C    0.985
   109   1 H    1.030 --    76 C    0.985
   110   1 H    1.048 --    77 C    0.988
   111   1 H    1.040 --    79 C    0.997
   112   1 H    1.036 --    80 C    0.998
   113   1 H    1.036 --    85 C    0.998
   114   1 H    1.040 --    86 C    0.997
   115   1 H    1.048 --    91 C    0.988
   116   1 H    1.030 --    92 C    0.985
   117   1 H    1.029 --    97 C    0.985
   118   1 H    1.049 --    98 C    0.988
   119   1 H    1.040 --   100 C    0.998
   120   1 H    1.026 --   101 C    0.993
   121   6 C    3.845 --   122 C    2.392   125 C    1.347   124 C    0.176
   122   6 C    3.843 --   121 C    2.392   123 C    1.345   126 C    0.176
   123   6 C    3.832 --   124 C    2.494   122 C    1.345
   124   6 C    3.772 --   123 C    2.494    23 C    1.207   121 C    0.176
   125   6 C    3.830 --   126 C    2.490   121 C    1.347
   126   6 C    3.773 --   125 C    2.490   140 C    1.211   122 C    0.176
   127   6 C    3.843 --   128 C    2.385   131 C    1.351   130 C    0.177
   128   6 C    3.843 --   127 C    2.385   129 C    1.351   132 C    0.177
   129   6 C    3.829 --   130 C    2.485   128 C    1.351
   130   6 C    3.771 --   129 C    2.485   161 C    1.214   127 C    0.177
   131   6 C    3.829 --   132 C    2.485   127 C    1.351
   132   6 C    3.771 --   131 C    2.485   199 C    1.214   128 C    0.177
   133   6 C    3.843 --   134 C    2.387   137 C    1.350   136 C    0.177
   134   6 C    3.845 --   133 C    2.387   135 C    1.351   138 C    0.177
   135   6 C    3.829 --   136 C    2.486   134 C    1.351
   136   6 C    3.773 --   135 C    2.486   220 C    1.215   133 C    0.177
   137   6 C    3.832 --   138 C    2.489   133 C    1.350
   138   6 C    3.772 --   137 C    2.489    83 C    1.211   134 C    0.177
   139  27 Co   3.634 --   159 N    0.706   181 N    0.706   145 N    0.706
                           166 N    0.706
   140   6 C    3.863 --   141 C    1.304   180 C    1.303   126 C    1.211
   141   6 C    3.932 --   140 C    1.304   145 N    1.266   142 C    1.220
   142   6 C    3.848 --   143 C    1.630   141 C    1.220   182 H    0.998
   143   6 C    3.831 --   142 C    1.630   144 C    1.211   183 H    0.998
   144   6 C    3.919 --   146 C    1.361   145 N    1.241   143 C    1.211
   145   7 N    2.990 --   141 C    1.266   144 C    1.241   139 Co   0.706
   146   6 C    3.840 --   156 C    1.365   144 C    1.361   147 C    1.058
   147   6 C    3.895 --   155 C    1.415   148 C    1.415   146 C    1.058
   148   6 C    3.865 --   149 C    1.465   147 C    1.415   184 H    0.988
   149   6 C    3.899 --   148 C    1.465   150 C    1.405   185 H    0.985
   150   6 C    3.934 --   154 C    1.405   149 C    1.405   151 N    1.005
   151   7 N    4.110 --   153 O    1.568   152 O    1.568   150 C    1.005
   152   8 O    2.010 --   151 N    1.568   153 O    0.382
   153   8 O    2.010 --   151 N    1.568   152 O    0.382
   154   6 C    3.899 --   155 C    1.465   150 C    1.405   186 H    0.985
   155   6 C    3.864 --   154 C    1.465   147 C    1.415   187 H    0.988
   156   6 C    3.920 --   146 C    1.365   159 N    1.238   157 C    1.210
   157   6 C    3.831 --   158 C    1.631   156 C    1.210   188 H    0.998
   158   6 C    3.846 --   157 C    1.631   160 C    1.220   189 H    0.998
   159   7 N    2.991 --   160 C    1.269   156 C    1.238   139 Co   0.706
   160   6 C    3.932 --   161 C    1.302   159 N    1.269   158 C    1.220
   161   6 C    3.863 --   162 C    1.303   160 C    1.302   130 C    1.214
   162   6 C    3.932 --   161 C    1.303   166 N    1.267   163 C    1.220
   163   6 C    3.848 --   164 C    1.630   162 C    1.220   190 H    0.998
   164   6 C    3.831 --   163 C    1.630   165 C    1.211   191 H    0.998
   165   6 C    3.919 --   167 C    1.363   166 N    1.240   164 C    1.211
   166   7 N    2.991 --   162 C    1.267   165 C    1.240   139 Co   0.706
   167   6 C    3.840 --   177 C    1.363   165 C    1.363   168 C    1.058
   168   6 C    3.895 --   176 C    1.415   169 C    1.415   167 C    1.058
   169   6 C    3.864 --   170 C    1.466   168 C    1.415   192 H    0.988
   170   6 C    3.899 --   169 C    1.466   171 C    1.405   193 H    0.985
   171   6 C    3.934 --   175 C    1.405   170 C    1.405   172 N    1.005
   172   7 N    4.110 --   173 O    1.568   174 O    1.568   171 C    1.005
   173   8 O    2.010 --   172 N    1.568   174 O    0.382
   174   8 O    2.010 --   172 N    1.568   173 O    0.382
   175   6 C    3.899 --   176 C    1.465   171 C    1.405   194 H    0.985
   176   6 C    3.866 --   175 C    1.465   168 C    1.415   195 H    0.988
   177   6 C    3.920 --   167 C    1.363   181 N    1.240   178 C    1.210
   178   6 C    3.831 --   179 C    1.630   177 C    1.210   196 H    0.998
   179   6 C    3.846 --   178 C    1.630   180 C    1.220   197 H    0.998
   180   6 C    3.932 --   140 C    1.303   181 N    1.267   179 C    1.220
   181   7 N    2.990 --   180 C    1.267   177 C    1.240   139 Co   0.706
   182   1 H    1.037 --   142 C    0.998
   183   1 H    1.040 --   143 C    0.998
   184   1 H    1.048 --   148 C    0.988
   185   1 H    1.029 --   149 C    0.985
   186   1 H    1.029 --   154 C    0.985
   187   1 H    1.048 --   155 C    0.988
   188   1 H    1.040 --   157 C    0.998
   189   1 H    1.036 --   158 C    0.998
   190   1 H    1.036 --   163 C    0.998
   191   1 H    1.040 --   164 C    0.998
   192   1 H    1.048 --   169 C    0.988
   193   1 H    1.029 --   170 C    0.985
   194   1 H    1.029 --   175 C    0.985
   195   1 H    1.048 --   176 C    0.988
   196   1 H    1.040 --   178 C    0.998
   197   1 H    1.037 --   179 C    0.998
   198  27 Co   3.636 --   240 N    0.706   218 N    0.706   204 N    0.706
                           225 N    0.706
   199   6 C    3.863 --   200 C    1.302   239 C    1.302   132 C    1.214
   200   6 C    3.932 --   199 C    1.302   204 N    1.267   201 C    1.220
   201   6 C    3.848 --   202 C    1.630   200 C    1.220   241 H    0.998
   202   6 C    3.831 --   201 C    1.630   203 C    1.211   242 H    0.998
   203   6 C    3.919 --   205 C    1.362   204 N    1.240   202 C    1.211
   204   7 N    2.990 --   200 C    1.267   203 C    1.240   198 Co   0.706
   205   6 C    3.839 --   215 C    1.363   203 C    1.362   206 C    1.059
   206   6 C    3.895 --   214 C    1.414   207 C    1.414   205 C    1.059
   207   6 C    3.865 --   208 C    1.466   206 C    1.414   243 H    0.988
   208   6 C    3.899 --   207 C    1.466   209 C    1.405   244 H    0.985
   209   6 C    3.934 --   213 C    1.405   208 C    1.405   210 N    1.005
   210   7 N    4.110 --   211 O    1.568   212 O    1.568   209 C    1.005
   211   8 O    2.010 --   210 N    1.568   212 O    0.382
   212   8 O    2.010 --   210 N    1.568   211 O    0.382
   213   6 C    3.899 --   214 C    1.466   209 C    1.405   245 H    0.985
   214   6 C    3.864 --   213 C    1.466   206 C    1.414   246 H    0.988
   215   6 C    3.919 --   205 C    1.363   218 N    1.239   216 C    1.211
   216   6 C    3.831 --   217 C    1.630   215 C    1.211   247 H    0.998
   217   6 C    3.846 --   216 C    1.630   219 C    1.221   248 H    0.998
   218   7 N    2.990 --   219 C    1.268   215 C    1.239   198 Co   0.706
   219   6 C    3.932 --   220 C    1.302   218 N    1.268   217 C    1.221
   220   6 C    3.863 --   221 C    1.302   219 C    1.302   136 C    1.215
   221   6 C    3.931 --   220 C    1.302   225 N    1.267   222 C    1.221
   222   6 C    3.848 --   223 C    1.629   221 C    1.221   249 H    0.998
   223   6 C    3.831 --   222 C    1.629   224 C    1.211   250 H    0.998
   224   6 C    3.919 --   226 C    1.361   225 N    1.241   223 C    1.211
   225   7 N    2.990 --   221 C    1.267   224 C    1.241   198 Co   0.706
   226   6 C    3.839 --   236 C    1.365   224 C    1.361   227 C    1.059
   227   6 C    3.895 --   235 C    1.414   228 C    1.414   226 C    1.059
   228   6 C    3.864 --   229 C    1.466   227 C    1.414   251 H    0.988
   229   6 C    3.899 --   228 C    1.466   230 C    1.405   252 H    0.985
   230   6 C    3.934 --   234 C    1.405   229 C    1.405   231 N    1.005
   231   7 N    4.110 --   233 O    1.568   232 O    1.568   230 C    1.005
   232   8 O    2.010 --   231 N    1.568   233 O    0.382
   233   8 O    2.010 --   231 N    1.568   232 O    0.382
   234   6 C    3.899 --   235 C    1.465   230 C    1.405   253 H    0.985
   235   6 C    3.865 --   234 C    1.465   227 C    1.414   254 H    0.988
   236   6 C    3.920 --   226 C    1.365   240 N    1.238   237 C    1.210
   237   6 C    3.831 --   238 C    1.630   236 C    1.210   255 H    0.998
   238   6 C    3.846 --   237 C    1.630   239 C    1.220   256 H    0.998
   239   6 C    3.932 --   199 C    1.302   240 N    1.269   238 C    1.220
   240   7 N    2.991 --   239 C    1.269   236 C    1.238   198 Co   0.706
   241   1 H    1.034 --   201 C    0.998
   242   1 H    1.040 --   202 C    0.998
   243   1 H    1.048 --   207 C    0.988
   244   1 H    1.029 --   208 C    0.985
   245   1 H    1.029 --   213 C    0.985
   246   1 H    1.048 --   214 C    0.988
   247   1 H    1.040 --   216 C    0.998
   248   1 H    1.034 --   217 C    0.998
   249   1 H    1.034 --   222 C    0.998
   250   1 H    1.040 --   223 C    0.998
   251   1 H    1.048 --   228 C    0.988
   252   1 H    1.029 --   229 C    0.985
   253   1 H    1.029 --   234 C    0.985
   254   1 H    1.048 --   235 C    0.988
   255   1 H    1.040 --   237 C    0.998
   256   1 H    1.034 --   238 C    0.998
 ---------------------------------------------------------------------------

Topologies differ in total number of bonds
Writing topology from bond orders to xtbtopo.mol

 dipole moment from electron density (au)
     X       Y       Z   
-129.7359  -0.0081  -0.0049  total (Debye):  329.756


           -------------------------------------------------
          | TOTAL ENERGY             -568.123035814516 Eh   |
          | GRADIENT NORM               0.150299843527 Eh/α |
          | HOMO-LUMO GAP               0.000915335184 eV   |
           -------------------------------------------------
########################################################################
[WARNING] Runtime exception occurred
-1- restart_readRestart: Dimension missmatch in restart file.
########################################################################

------------------------------------------------------------------------
 * finished run on 2022/07/30 at 02:13:11.116     
------------------------------------------------------------------------
 total:
 * wall-time:     0 d,  0 h,  2 min,  6.004 sec
 *  cpu-time:     0 d,  0 h,  2 min,  5.036 sec
 * ratio c/w:     0.992 speedup
 SCF:
 * wall-time:     0 d,  0 h,  2 min,  4.713 sec
 *  cpu-time:     0 d,  0 h,  2 min,  3.762 sec
 * ratio c/w:     0.992 speedup

