256
 energy: -507.736887586535 gnorm: 0.838031803848 xtb: 6.5.1 (b24c23e)
Co          43.47757699999999        0.04351400000000       -0.01713800000000
C           40.14083100000000       -0.08148400000000       -0.09483400000000
C           40.80402800000000       -1.23281700000000       -0.23755300000000
C           40.15332100000000       -2.53134800000000       -0.36358600000000
C           41.09381000000000       -3.44445600000000       -0.51801700000000
C           42.39922800000000       -2.76982300000000       -0.50918800000000
N           42.22222200000000       -1.36505700000000       -0.32183100000000
C           43.59169600000000       -3.37988200000000       -0.67180100000000
C           43.63908000000000       -4.84177600000000       -0.90105600000000
C           44.15438100000000       -5.69121500000000        0.08704400000000
C           44.21314100000000       -7.07029800000000       -0.13039900000000
C           43.76035399999999       -7.62245900000000       -1.34313900000000
N           43.81621800000000       -9.04264900000000       -1.56978000000000
O           43.37176800000000       -9.57993500000000       -2.75667700000000
O           44.25585400000000       -9.81088900000000       -0.68866700000000
C           43.25111099999999       -6.76391300000000       -2.33347400000000
C           43.19307500000000       -5.38471900000000       -2.11474200000000
C           44.88470900000000       -2.64669200000000       -0.64268900000000
C           46.17128999999999       -3.24578400000000       -1.01924800000000
C           47.10563300000000       -2.33126800000000       -0.85502700000000
N           45.02546000000000       -1.41274900000000       -0.26508100000000
C           46.42265100000000       -1.13737400000000       -0.37139500000000
C           47.01606899999999        0.01464900000000       -0.01904800000000
C           46.25277500000000        1.18958700000000        0.45864300000000
C           46.78520500000000        2.20246100000000        1.13064700000000
C           45.74161600000000        3.19147600000000        1.31877700000000
C           44.64113100000000        2.71901900000000        0.74462500000000
N           44.87403499999999        1.43010200000000        0.17372400000000
C           43.35919199999999        3.46418900000000        0.65057400000000
C           43.37668800000000        4.93188600000000        0.86242000000000
C           42.71454400000000        5.50038800000000        1.96067900000000
C           42.75163600000000        6.88174200000000        2.16917500000000
C           43.45599700000000        7.71834100000000        1.28573500000000
N           43.49076600000000        9.14083000000000        1.50240700000000
O           42.88566300000000        9.69454100000000        2.60788900000000
O           44.07448900000000        9.89399500000000        0.69519500000000
C           44.12655800000000        7.14186000000000        0.19094600000000
C           44.08960300000000        5.75997100000000       -0.01591700000000
C           42.19707100000000        2.83806900000000        0.38337800000000
C           40.88690800000000        3.47098500000000        0.24033300000000
C           40.02545500000000        2.49144100000000        0.04716400000000
C           40.77686600000000        1.23730700000000        0.05181000000000
N           42.04338099999999        1.42705900000000        0.24613600000000
H           39.05734900000000       -0.10966300000000       -0.08898700000000
H           39.08917800000000       -2.72922500000000       -0.33444300000000
H           40.90593900000000       -4.50444300000000       -0.62975000000000
H           44.50833700000000       -5.28441400000000        1.02654900000000
H           44.61370800000000       -7.70425800000000        0.64969400000000
H           42.89866500000000       -7.15759000000000       -3.27822000000000
H           42.80177700000000       -4.73882400000000       -2.89107900000000
H           46.34415499999999       -4.25386600000000       -1.37317500000000
H           48.16122599999999       -2.47053300000000       -1.04800400000000
H           47.81180700000000        2.29371300000000        1.45806800000000
H           45.85176999999999        4.14798300000000        1.81393200000000
H           42.17351300000000        4.87187700000000        2.65778600000000
H           42.22969500000000        7.29477700000000        3.02285000000000
H           44.68482700000000        7.75813200000000       -0.50136300000000
H           44.61648999999999        5.33418400000000       -0.86139000000000
H           40.64353800000000        4.52455000000000        0.28066800000000
H           38.95892799999999        2.60971300000000       -0.09302000000000
Co          93.79902199999999       -0.01282600000000       -0.02810100000000
C           97.13576800000000        0.13218500000000       -0.05325900000000
C           96.47257200000000        1.25303200000000        0.24613700000000
C           97.12327900000000        2.50408200000000        0.61619500000000
C           96.18278900000000        3.40847500000000        0.81540900000000
C           94.87737199999999        2.77975300000000        0.57063400000000
N           95.05437800000000        1.40722500000000        0.21759300000000
C           93.68490299999999        3.40627600000000        0.64863200000000
C           93.63751900000000        4.84747300000000        0.98425400000000
C           93.12221899999999        5.26444100000000        2.21876800000000
C           93.06345899999999        6.62444000000000        2.53428800000000
C           93.51624600000000        7.59104500000000        1.61706600000000
N           93.46038099999998        8.99260100000000        1.93947300000000
O           93.90483200000000        9.93572400000000        1.04063000000000
O           93.02074499999999        9.37440900000000        3.04436000000000
C           94.02548899999998        7.16647100000000        0.37706400000000
C           94.08352499999998        5.80588600000000        0.06269700000000
C           92.39188999999999        2.71566200000000        0.40070500000000
C           91.10531000000000        3.41223900000000        0.27625300000000
C           90.17096699999999        2.50286900000000        0.08558700000000
N           92.25114000000001        1.43015900000000        0.28808400000000
C           90.85394900000000        1.21473800000000        0.08627300000000
C           90.26053100000000        0.01464900000000       -0.01904800000000
C           91.02382500000000       -1.25368200000000       -0.01676200000000
C           90.49139399999999       -2.44463200000000        0.22642800000000
C           91.53498399999999       -3.43203100000000        0.02999100000000
C           92.63546800000000       -2.77876000000000       -0.32511900000000
N           92.40256499999998       -1.36981600000000       -0.37107700000000
C           93.91740700000000       -3.43429900000000       -0.69171600000000
C           93.89991200000000       -4.87434800000000       -1.04565200000000
C           94.56205500000000       -5.81317500000000       -0.24068600000000
C           94.52496300000000       -7.17192400000000       -0.56535200000000
C           93.82060300000001       -7.61623300000000       -1.69802700000000
N           93.78583299999998       -9.01618200000000       -2.03053800000000
O           94.39093699999999       -9.94400500000000       -1.21332900000000
O           93.20211000000000       -9.41172600000000       -3.06126300000000
C           93.15004100000000       -6.67131000000000       -2.49678500000000
C           93.18699700000001       -5.31267700000000       -2.17040400000000
C           95.07952799999998       -2.75367100000000       -0.70464900000000
C           96.38969099999998       -3.28677500000000       -1.07457500000000
C           97.25114499999998       -2.30626700000000       -0.88636200000000
C           96.49973300000001       -1.14537400000000       -0.41180600000000
N           95.23321799999999       -1.39414700000000       -0.30280700000000
H           98.21925000000000        0.15611600000000       -0.03727300000000
H           98.18742200000000        2.67659400000000        0.71740700000000
H           96.37066000000000        4.43302300000000        1.10927900000000
H           92.76826300000000        4.53504500000000        2.93719400000000
H           92.66289200000000        6.91964500000000        3.49517600000000
H           94.37793400000000        7.88566700000000       -0.35114200000000
H           94.47482300000000        5.49821000000000       -0.89918300000000
H           90.93244500000000        4.47948100000000        0.32613800000000
H           89.11537399999999        2.70433200000000       -0.04109200000000
H           89.46479300000000       -2.65199600000000        0.49574500000000
H           91.42483000000000       -4.50441500000000        0.13037000000000
H           95.10308699999999       -5.49190500000000        0.64122700000000
H           95.04690500000000       -7.87491800000000        0.07116900000000
H           92.59177299999999       -6.98303200000000       -3.36966200000000
H           92.66010900000001       -4.60093700000000       -2.79454000000000
H           96.63306200000000       -4.27859700000000       -1.43222600000000
H           98.31767100000000       -2.36334700000000       -1.06066600000000
C           53.28658500000000        0.01575200000000       -0.01055800000000
C           52.07764500000000        0.00229600000000       -0.01900500000000
C           50.65611600000000        0.01111600000000       -0.03098800000000
C           49.44444700000000        0.01855500000000       -0.02012500000000
C           54.70318900000000        0.00907600000000       -0.01002500000000
C           55.92388500000000        0.01855500000000       -0.02012500000000
C           69.24214400000000        0.01575200000000       -0.01055800000000
C           68.03320400000000        0.00229600000000       -0.01900500000000
C           66.61167600000000        0.01111600000000       -0.03098800000000
C           65.40000600000000        0.01855500000000       -0.02012500000000
C           70.65874800000000        0.00907600000000       -0.01002500000000
C           71.87944400000001        0.01855500000000       -0.02012500000000
C           85.19770300000000        0.01575200000000       -0.01055800000000
C           83.98876299999999        0.00229600000000       -0.01900500000000
C           82.56723500000000        0.01111600000000       -0.03098800000000
C           81.35556500000000        0.01855500000000       -0.02012500000000
C           86.61430699999998        0.00907600000000       -0.01002500000000
C           87.83500300000000        0.01855500000000       -0.02012500000000
Co          60.57344100000000        0.06184200000000       -0.04039500000000
C           57.20624600000000       -0.01772800000000        0.02244100000000
C           57.86236400000000       -1.18926400000000        0.11114400000000
C           57.22126900000000       -2.49225000000000        0.29913500000000
C           58.15846200000000       -3.41970100000000        0.29173000000000
C           59.45639499999999       -2.76486300000000        0.10030800000000
N           59.27859599999999       -1.35063100000000       -0.00885300000000
C           60.64121900000000       -3.40710600000000        0.03035300000000
C           60.67276900000000       -4.88467900000000        0.10428800000000
C           61.15125600000000       -5.52121700000000        1.25733500000000
C           61.19082399999999       -6.91669800000000        1.32683500000000
C           60.75594500000000       -7.69760200000000        0.23944500000000
N           60.79534500000000       -9.13499900000000        0.30651100000000
O           60.42077500000000       -9.89513300000000       -0.77766700000000
O           61.15084000000000       -9.71567200000000        1.35422200000000
C           60.28228699999999       -7.05157200000000       -0.91748800000000
C           60.24285999999999       -5.65620900000000       -0.98397800000000
C           61.94076999999999       -2.70362900000000       -0.11145000000000
C           63.21332000000000       -3.38614200000000       -0.37765500000000
C           64.16571100000000       -2.47566100000000       -0.38353400000000
N           62.10640099999999       -1.42594400000000        0.03696500000000
C           63.50747900000000       -1.20196600000000       -0.12243000000000
C           64.12236400000000       -0.01772800000000        0.02244100000000
C           63.37249300000000        1.23232400000000        0.26889400000000
C           63.90850000000000        2.34555200000000        0.75234000000000
C           62.87595699999999        3.36406600000000        0.73022700000000
C           61.78041200000000        2.80427000000000        0.23027800000000
N           62.00380500000000        1.43044400000000       -0.08352200000000
C           60.52320399999999        3.53458600000000       -0.06316500000000
C           60.58038500000000        5.00962000000000       -0.21344800000000
C           61.36306600000000        5.58300300000000       -1.22534400000000
C           61.43453100000000        6.97219700000000       -1.36145900000000
C           60.72759500000000        7.81290400000000       -0.48382400000000
N           60.79951700000000        9.24313700000000       -0.62951100000000
O           61.53392700000000        9.80615100000000       -1.64867600000000
O           60.19010500000000        9.99567800000000        0.15958600000000
C           59.95168199999999        7.23330100000000        0.53654000000000
C           59.88200000000000        5.84411300000000        0.67205100000000
C           59.35084800000000        2.88694700000000       -0.20782800000000
C           58.07249500000000        3.49575600000000       -0.56155700000000
C           57.18377300000000        2.52315000000000       -0.53495000000000
C           57.88350400000000        1.28558700000000       -0.17222800000000
N           59.15035400000000        1.49053900000000        0.01691800000000
H           56.16584699999999       -2.69353600000000        0.42524900000000
H           57.97280200000000       -4.47856400000000        0.41645700000000
H           61.49007600000000       -4.93632300000000        2.10330200000000
H           61.56490500000000       -7.38472000000000        2.22953300000000
H           59.94247700000000       -7.62451500000000       -1.77114700000000
H           59.87949600000000       -5.17566400000000       -1.88355000000000
H           63.36517100000000       -4.44540000000000       -0.53947500000000
H           65.21771099999999       -2.66754500000000       -0.54806100000000
H           64.93207900000000        2.48478400000000        1.07357600000000
H           62.99236900000000        4.39757200000000        1.02965300000000
H           61.91491799999999        4.95265400000000       -1.91188600000000
H           62.04382199999999        7.38821400000000       -2.15308800000000
H           59.39967100000000        7.85378400000000        1.23086200000000
H           59.28581800000000        5.41741800000000        1.46916800000000
H           57.86733000000000        4.52917300000000       -0.80938600000000
H           56.13157600000000        2.64080200000000       -0.75647700000000
Co          76.52900000000000        0.06184200000000       -0.04039500000000
C           73.16180499999999       -0.01772800000000        0.02244100000000
C           73.81792299999999       -1.18926400000000        0.11114400000000
C           73.17682799999999       -2.49225000000000        0.29913500000000
C           74.11402099999998       -3.41970100000000        0.29173000000000
C           75.41195399999999       -2.76486300000000        0.10030800000000
N           75.23415500000000       -1.35063100000000       -0.00885300000000
C           76.59677799999999       -3.40710600000000        0.03035300000000
C           76.62832800000000       -4.88467900000000        0.10428800000000
C           77.10681500000000       -5.52121700000000        1.25733500000000
C           77.14638300000000       -6.91669800000000        1.32683500000000
C           76.71150400000001       -7.69760200000000        0.23944500000000
N           76.75090400000001       -9.13499900000000        0.30651100000000
O           76.37633399999999       -9.89513300000000       -0.77766700000000
O           77.10639900000000       -9.71567200000000        1.35422200000000
C           76.23784600000000       -7.05157200000000       -0.91748800000000
C           76.19841900000000       -5.65620900000000       -0.98397800000000
C           77.89632899999998       -2.70362900000000       -0.11145000000000
C           79.16887900000000       -3.38614200000000       -0.37765500000000
C           80.12127000000000       -2.47566100000000       -0.38353400000000
N           78.06196000000000       -1.42594400000000        0.03696500000000
C           79.46303800000000       -1.20196600000000       -0.12243000000000
C           80.07792300000000       -0.01772800000000        0.02244100000000
C           79.32805200000000        1.23232400000000        0.26889400000000
C           79.86405900000000        2.34555200000000        0.75234000000000
C           78.83151599999999        3.36406600000000        0.73022700000000
C           77.73597100000001        2.80427000000000        0.23027800000000
N           77.95936399999999        1.43044400000000       -0.08352200000000
C           76.47876300000000        3.53458600000000       -0.06316500000000
C           76.53594400000000        5.00962000000000       -0.21344800000000
C           77.31862500000000        5.58300300000000       -1.22534400000000
C           77.39008999999999        6.97219700000000       -1.36145900000000
C           76.68315400000000        7.81290400000000       -0.48382400000000
N           76.75507600000000        9.24313700000000       -0.62951100000000
O           77.48948599999999        9.80615100000000       -1.64867600000000
O           76.14566400000000        9.99567800000000        0.15958600000000
C           75.90724099999998        7.23330100000000        0.53654000000000
C           75.83755900000000        5.84411300000000        0.67205100000000
C           75.30640699999999        2.88694700000000       -0.20782800000000
C           74.02805400000000        3.49575600000000       -0.56155700000000
C           73.13933200000000        2.52315000000000       -0.53495000000000
C           73.83906300000000        1.28558700000000       -0.17222800000000
N           75.10591300000000        1.49053900000000        0.01691800000000
H           72.12140599999999       -2.69353600000000        0.42524900000000
H           73.92836100000000       -4.47856400000000        0.41645700000000
H           77.44563499999998       -4.93632300000000        2.10330200000000
H           77.52046400000000       -7.38472000000000        2.22953300000000
H           75.89803599999999       -7.62451500000000       -1.77114700000000
H           75.83505499999998       -5.17566400000000       -1.88355000000000
H           79.32073000000000       -4.44540000000000       -0.53947500000000
H           81.17326999999999       -2.66754500000000       -0.54806100000000
H           80.88763899999998        2.48478400000000        1.07357600000000
H           78.94792800000000        4.39757200000000        1.02965300000000
H           77.87047699999999        4.95265400000000       -1.91188600000000
H           77.99938100000000        7.38821400000000       -2.15308800000000
H           75.35523000000001        7.85378400000000        1.23086200000000
H           75.24137700000000        5.41741800000000        1.46916800000000
H           73.82288900000000        4.52917300000000       -0.80938600000000
H           72.08713500000000        2.64080200000000       -0.75647700000000
256
 energy: -508.059674388707 gnorm: 0.516309504458 xtb: 6.5.1 (b24c23e)
Co          43.48865149957037        0.03687870208370       -0.02178137536846
C           40.14187283333237       -0.06499103410367       -0.09338218803470
C           40.81152823836172       -1.23158937563243       -0.23697240469598
C           40.15421264402856       -2.52369197944737       -0.36242534684143
C           41.10458236447319       -3.44469926001643       -0.51854666185689
C           42.40003308980897       -2.76019282026905       -0.50779611120005
N           42.21105527047722       -1.37267648196979       -0.31951107221937
C           43.60705584939301       -3.37509830150474       -0.67317209220819
C           43.64438880543996       -4.84263209573535       -0.90317875970934
C           44.15476341933238       -5.69779036963053        0.08148939478276
C           44.21160799833469       -7.07294435918492       -0.13452014761812
C           43.75883092843199       -7.62692959870655       -1.34828706263455
N           43.81123681407411       -9.05535442881842       -1.58088512565630
O           43.38816547967315       -9.54658178438302       -2.71053813468189
O           44.24677756314284       -9.79186275293632       -0.70746164501456
C           43.25093727236823       -6.76459350289450       -2.33277884858370
C           43.19344628219547       -5.39093886084662       -2.11160085950934
C           44.87822626557602       -2.65824817767695       -0.64346762622443
C           46.15864771547063       -3.25491200927103       -1.01834367211588
C           47.10460287789406       -2.32470893211625       -0.85350038387944
N           45.03141420934909       -1.40159077741141       -0.26859294068115
C           46.43406459121424       -1.13096250874066       -0.37028514226114
C           47.02293599286708        0.02767643384909       -0.01129049697296
C           46.25355083150829        1.17650720859278        0.44529935305887
C           46.78755861034313        2.22145518126746        1.13799105094919
C           45.76169016964207        3.19203476274240        1.32073869512445
C           44.63154445247832        2.70800813680454        0.73211308652443
N           44.87167033070872        1.42246487729072        0.18328335800033
C           43.37285193731518        3.45533486698229        0.64997319211153
C           43.38404185447413        4.92933007234376        0.86568892196802
C           42.71616350083499        5.50518052931836        1.95710817605274
C           42.75174364996424        6.88177631202641        2.16819174069346
C           43.45363865936621        7.72262657457375        1.29036323322186
N           43.48647824350223        9.15341395239769        1.51389197470741
O           42.90742611590001        9.66063973276536        2.56441349454568
O           44.06182024681210        9.87520522245757        0.71225727466932
C           44.12394286226927        7.14388094604142        0.19457902358435
C           44.08915429020954        5.76565272967908       -0.01048889171369
C           42.19840055460121        2.83349367949669        0.38275288522441
C           40.89515428466463        3.46845870032180        0.24133466795291
C           40.01764680628403        2.47914369802125        0.04629319379740
C           40.76166673751338        1.22667919580299        0.05052144045243
N           42.05061111273682        1.42954124905274        0.23992462711717
H           39.05822991353607       -0.10402561528316       -0.08923075693719
H           39.09045434996009       -2.72094638417099       -0.33344636421310
H           40.91648292936018       -4.50413000865928       -0.63035264378031
H           44.50736555150274       -5.28684224692244        1.02329465316488
H           44.61269357875455       -7.70743138319772        0.64724241674223
H           42.89933070477237       -7.16057333419075       -3.27775629699388
H           42.80305874066060       -4.74097568949390       -2.88876218657145
H           46.33560397226438       -4.25788512258522       -1.37292532477924
H           48.15988385315552       -2.46169708269075       -1.04493022612531
H           47.81253071612755        2.29901424023790        1.46065585090122
H           45.85681320269290        4.14683183376912        1.81537688928643
H           42.17528427740930        4.87380843460252        2.65560566594179
H           42.23058706700256        7.29740171022469        3.02235879244755
H           44.68322898515325        7.76101463905184       -0.49920955935363
H           44.61497354206012        5.33658539302988       -0.85860317632763
H           40.65317316068395        4.52260138676325        0.28176894423663
H           38.95584496880290        2.60245937709520       -0.09387542335002
Co          93.78793568020750       -0.00493153627968       -0.02992878545172
C           97.13472513589588        0.11635054680435       -0.05809689748839
C           96.46507179895406        1.25167600398021        0.24621373871812
C           97.12238666791480        2.49655108017114        0.61440145187530
C           96.17201666026331        3.40889736958270        0.81500958312333
C           94.87656454155972        2.77029185528775        0.56831899370211
N           95.06554943684702        1.41342094228295        0.22260136900264
C           93.66953208246407        3.40234989372581        0.64555900665586
C           93.63220529067999        4.84907258531776        0.98260628036053
C           93.12184162670803        5.27261695840794        2.21608504352271
C           93.06499563299252        6.62844326829512        2.53145692740479
C           93.51776557139245        7.59711615937825        1.61396432692923
N           93.46533873675422        9.00856047588710        1.93392899646044
O           93.88845374969802        9.88749217233393        1.07092297641353
O           93.02983668833532        9.36381101142678        3.01981332795676
C           94.02566074088037        7.16684409043679        0.37796620636970
C           94.08315041294901        5.81047097297806        0.06793930272871
C           92.39838681526845        2.72667610252879        0.40430227645000
C           91.11794211617827        3.42037399076609        0.28051481188149
C           90.17199275219242        2.49626651988694        0.08453313119327
N           92.24520641928845        1.42111426794653        0.28068386779824
C           90.84253726296512        1.20845025429044        0.08491553550890
C           90.25380826413560       -0.00019585615266       -0.01661392755988
C           91.02296381104844       -1.23654527591420       -0.02420552662207
C           90.48901511216715       -2.46502544108256        0.22613857715243
C           91.51488313440225       -3.43327385909322        0.03159965454150
C           92.64503544219514       -2.76383367768508       -0.33258320927802
N           92.40489083597691       -1.36629229439598       -0.35942123249894
C           93.90374340957791       -3.42585435783776       -0.68894349784156
C           93.89255222497187       -4.87320804252217       -1.04165952806313
C           94.56043431447731       -5.81627583936391       -0.24579184364097
C           94.52485417384020       -7.17158918464885       -0.56627885530071
C           93.82295888447985       -7.62193838107301       -1.69534009324081
N           93.79010540880601       -9.03216935430512       -2.02459973440006
O           94.36918503055985       -9.89626458832243       -1.24093849897623
O           93.21479119439844       -9.40069778621268       -3.03840845547287
C           93.15265934147189       -6.67454838891868       -2.49417317778678
C           93.18744681161158       -5.31997613141596       -2.16750216887067
C           95.07819130218643       -2.74918920600991       -0.70351538508726
C           96.38144462631921       -3.28480664181995       -1.07269956661853
C           97.25895036529664       -2.29454243568162       -0.88255946284862
C           96.51493018012538       -1.13503611740356       -0.40901412805283
N           95.22598704451714       -1.39411360525528       -0.30948787029539
H           98.21836803085787        0.15098111111825       -0.03961329758723
H           98.18614472524520        2.66854618452904        0.71522643159866
H           96.36011422393575        4.43295719834471        1.10860145065986
H           92.76923363985232        4.53851513775109        2.93508814577487
H           92.66390353924369        6.92350626982325        3.49408985771390
H           94.37726540545935        7.88825977740727       -0.34959441593303
H           94.47353849899893        5.49933538519060       -0.89623009743179
H           90.94099032541077        4.48311320234373        0.32787631631829
H           89.11670629651091        2.69498320856054       -0.04155396938773
H           89.46405686172857       -2.65790555736640        0.49616091421648
H           91.41978174029150       -4.50388085950732        0.13214041071593
H           95.10131421448288       -5.49287780467422        0.63848288247462
H           95.04601100128738       -7.87716772734424        0.06972976836045
H           92.59336967407853       -6.98651201614801       -3.36874387225596
H           92.66162532827042       -4.60420746262194       -2.79285758360904
H           96.62342584705647       -4.27720215985130       -1.43047391034960
H           98.32075229812769       -2.35630217217521       -1.05873908982124
C           53.28425409999810        0.01545886538920       -0.01109063497575
C           52.05581847427275        0.00271199921266       -0.01946014173946
C           50.64423713131436        0.01115928864572       -0.03002079565458
C           49.41373420230927        0.01955985221594       -0.01993450769667
C           54.66634537864344        0.00917499842953       -0.00878015088875
C           55.88340590833108        0.02300016173606       -0.02001369270256