270
 energy: -516.491799589079 gnorm: 1.893124801831 xtb: 6.5.1 (b24c23e)
Co          45.78601300000000        0.01703800000000       -0.00638600000000
C           42.36798799999999       -0.08997700000000        0.08283400000000
C           43.03328000000000       -0.19157000000000        1.23696700000000
C           42.38541800000000       -0.33409900000000        2.53555200000000
C           43.32754300000000       -0.35511400000000        3.45999500000000
C           44.63058200000000       -0.22486500000000        2.79417200000000
N           44.45110300000000       -0.12620100000000        1.38110500000000
C           45.81973799999999       -0.15393400000000        3.42529800000000
C           47.11122300000000        0.00573600000000        2.70771500000000
C           48.39794899999999        0.22255800000000        3.38022100000000
C           49.33243499999999        0.28017100000000        2.45344700000000
N           47.25376000000000       -0.07279100000000        1.41991700000000
C           48.65088299999999        0.09306300000000        1.17831900000000
C           49.24721000000000        0.01259200000000       -0.02259600000000
C           48.48947100000000       -0.19745900000000       -1.27731000000000
C           49.03257800000000       -0.61006600000000       -2.41577200000000
C           47.98878100000000       -0.59835200000000       -3.42135200000000
C           46.87660799999999       -0.17522800000000       -2.83195000000000
C           45.58861200000000        0.04776500000000       -3.53811800000000
C           45.60639800000000        0.18370700000000       -5.01510700000000
C           44.96325500000000       -0.76330800000000       -5.82610600000000
C           44.99871600000000       -0.64088800000000       -7.21791700000000
C           45.68503300000000        0.42772800000000       -7.82241900000000
C           45.72608400000000        0.56177300000000       -9.29525500000000
O           46.41008200000000        1.62189300000000       -9.88484600000000
O           45.14296000000000       -0.28099100000000      -10.02984000000000
C           46.33617800000000        1.36855600000000       -7.00588200000000
C           46.29919600000000        1.24529100000000       -5.61407500000000
C           44.42209300000000        0.13101500000000       -2.86998400000000
C           43.10645900000000        0.38324200000000       -3.45561700000000
C           42.24501600000000        0.33404100000000       -2.45822300000000
C           43.00119400000000        0.06417700000000       -1.23661500000000
N           44.27117500000000       -0.05551600000000       -1.46418900000000
N           47.10226000000000        0.09672600000000       -1.44735500000000
C           45.85948700000000       -0.22561200000000        4.90113400000000
C           45.79526400000000       -1.46658600000000        5.54818600000000
C           45.83458000000000       -1.53505700000000        6.94370400000000
C           45.93994699999999       -0.36136400000000        7.71246300000000
C           45.98248800000000       -0.42813400000000        9.18980700000000
O           46.08567200000000        0.73893300000000        9.94251100000000
O           45.92591100000000       -1.54047600000000        9.78083600000000
C           46.00479100000000        0.88041000000000        7.05606600000000
C           45.96475500000000        0.94705100000000        5.66044600000000
H           41.28474199999999       -0.10860200000000        0.11101200000000
H           41.32197900000000       -0.40232900000000        2.72576900000000
H           43.14343400000000       -0.44191300000000        4.52307200000000
H           48.57294500000000        0.31540700000000        4.44389600000000
H           50.38877500000000        0.42538700000000        2.63638300000000
H           50.06598700000000       -0.88516200000000       -2.57863900000000
H           48.10563300000000       -0.86422400000000       -4.46399200000000
H           44.43748400000000       -1.59830700000000       -5.37929000000000
H           44.49141300000000       -1.38437600000000       -7.81989700000000
H           46.44432500000000        1.72305200000000      -10.89224400000000
H           46.87560400000000        2.20030900000000       -7.44112700000000
H           46.80828900000000        1.97959200000000       -5.00166700000000
H           42.85947100000000        0.57724600000000       -4.49105600000000
H           41.17573600000000        0.47715300000000       -2.54251700000000
H           45.71457699999999       -2.37964000000000        4.97103300000000
H           45.78286200000000       -2.50616000000000        7.41990600000000
H           46.11559599999999        0.70447400000000       10.95453100000000
H           46.08659300000000        1.80122400000000        7.61964000000000
H           46.01607200000000        1.91171700000000        5.17045600000000
Co         102.51504000000000        0.01887800000000       -0.03818500000000
C          105.93306399999999       -0.07713500000000       -0.13915000000000
C          105.26777300000001       -0.04496600000000       -1.29729900000000
C          105.91563499999999       -0.03680300000000       -2.60365600000000
C          104.97351000000000        0.04892100000000       -3.52435700000000
C          103.67047100000001        0.10152500000000       -2.84795600000000
N          103.84995000000001        0.03658700000000       -1.43293800000000
C          102.48131500000000        0.24475900000000       -3.46669300000000
C          101.18982999999999        0.32061800000000       -2.73548500000000
C           99.90310299999999        0.61354100000000       -3.37850200000000
C           98.96861800000001        0.56390300000000       -2.45126700000000
N          101.04729300000000        0.09411700000000       -1.46533200000000
C           99.65017000000000        0.23100500000000       -1.20622100000000
C           99.05384300000000        0.01259200000000       -0.02259600000000
C           99.81158100000000       -0.34074000000000        1.19952700000000
C           99.26847500000000       -0.88187300000000        2.28281600000000
C          100.31227199999999       -0.98619200000000        3.28304000000000
C          101.42444500000001       -0.49792600000000        2.74636000000000
C          102.71244099999998       -0.35785000000000        3.47353100000000
C          102.69465499999998       -0.39312900000000        4.95634300000000
C          103.33779800000001       -1.42734300000000        5.65273100000000
C          103.30233699999999       -1.46623200000000        7.04937400000000
C          102.61602000000001       -0.47445100000000        7.77306700000000
C          102.57496899999998       -0.51113500000000        9.25153600000000
O          101.89097099999999        0.47392700000000        9.95943700000000
O          103.15809299999999       -1.43298300000000        9.88404000000000
C          101.96487500000001        0.55425800000000        7.07046500000000
C          102.00185700000000        0.59230600000000        5.67372900000000
C          103.87895999999999       -0.19811100000000        2.81945400000000
C          105.19459399999998       -0.01509700000000        3.43026500000000
C          106.05603700000000        0.05104100000000        2.43385100000000
C          105.29985899999998       -0.07615700000000        1.18927300000000
N          104.02987800000000       -0.22129400000000        1.40152700000000
N          101.19879299999998       -0.06812600000000        1.40236000000000
C          102.44156500000000        0.34373900000000       -4.94094900000000
C          102.50578899999999       -0.81434400000000       -5.72678400000000
C          102.46647299999999       -0.72143900000000       -7.12088800000000
C          102.36110600000001        0.53307200000000       -7.74917900000000
C          102.31856500000001        0.63710200000000       -9.22436700000000
O          102.21538099999999        1.88317900000000       -9.83747400000000
O          102.37514200000000       -0.39966700000000       -9.93972000000000
C          102.29626200000000        1.69087300000000       -6.95396900000000
C          102.33629699999999        1.59613800000000       -5.55997500000000
H          107.01631100000000       -0.09238700000000       -0.16928700000000
H          106.97907399999998       -0.08264300000000       -2.80047300000000
H          105.15761900000000        0.08528700000000       -4.59035100000000
H           99.72810799999999        0.82842500000000       -4.42437600000000
H           97.91227800000000        0.72924500000000       -2.61623800000000
H           98.23506600000000       -1.17391500000000        2.41287500000000
H          100.19542000000000       -1.37051900000000        4.28806700000000
H          103.86356899999998       -2.20524900000000        5.11261000000000
H          103.80964000000000       -2.27417600000000        7.56160600000000
H          101.85672700000001        0.45824700000000       10.97178000000000
H          101.42544900000000        1.33027400000000        7.59871800000000
H          101.49276399999999        1.39232700000000        5.15008000000000
H          105.44158199999998        0.05821500000000        4.48116800000000
H          107.12531699999998        0.18347800000000        2.53408500000000
H          102.58647499999999       -1.78785900000000       -5.25876600000000
H          102.51819099999999       -1.63115200000000       -7.70589300000000
H          102.18545700000000        1.96564800000000      -10.84671600000000
H          102.21446000000000        2.67053100000000       -7.40760400000000
H          102.28498100000000        2.49786800000000       -4.96201600000000
C           51.55595500000000        0.02779400000000       -0.01196300000000
C           53.01418099999999        0.00595700000000       -0.02983600000000
C           54.14811000000000       -0.01479700000000       -0.03132700000000
C           55.50949100000000       -0.02738600000000       -0.03351800000000
C           56.78371000000000       -0.01708000000000       -0.03828300000000
C           57.97217200000000        0.00171800000000       -0.04443900000000
C           59.32453300000000        0.02650300000000       -0.02857100000000
C           60.42480100000000        0.02779400000000       -0.01196300000000
C           69.65192800000000        0.02779400000000       -0.01196300000000
C           71.11015399999999        0.00595700000000       -0.02983600000000
C           72.24408200000001       -0.01479700000000       -0.03132700000000
C           73.60546400000000       -0.02738600000000       -0.03351800000000
C           74.87968300000000       -0.01708000000000       -0.03828300000000
C           76.06814500000000        0.00171800000000       -0.04443900000000
C           77.42050599999999        0.02650300000000       -0.02857100000000
C           78.52077399999999        0.02779400000000       -0.01196300000000
C           87.74790100000000        0.02779400000000       -0.01196300000000
C           89.20612700000000        0.00595700000000       -0.02983600000000
C           90.34005499999999       -0.01479700000000       -0.03132700000000
C           91.70143700000000       -0.02738600000000       -0.03351800000000
C           92.97565599999999       -0.01708000000000       -0.03828300000000
C           94.16411799999999        0.00171800000000       -0.04443900000000
C           95.51647899999999        0.02650300000000       -0.02857100000000
C           96.61674600000001        0.02779400000000       -0.01196300000000
Co          65.09059600000001        0.01195000000000       -0.04476700000000
C           61.63814300000000       -0.01826600000000        0.02532000000000
C           62.29323900000000       -1.19395600000000        0.01673000000000
C           61.65260500000000       -2.50613600000000       -0.09053500000000
C           62.58978100000000       -3.43153100000000       -0.03354400000000
C           63.88674900000000       -2.76678500000000        0.12256900000000
N           63.70841200000000       -1.34828800000000        0.14583000000000
C           65.07180800000000       -3.40229400000000        0.24157900000000
C           66.36621200000000       -2.68458800000000        0.36123200000000
C           67.63045200000001       -3.33271800000000        0.73700800000000
C           68.58310999999999       -2.42234700000000        0.68354500000000
N           66.53651400000000       -1.42721700000000        0.09293200000000
C           67.93261800000001       -1.18358500000000        0.27530600000000
C           68.55029500000001       -0.01826600000000        0.02532000000000
C           67.80060899999999        1.19490100000000       -0.36092300000000
C           68.33376699999999        2.24702200000000       -0.96937800000000
C           67.30051200000000        3.26299400000000       -1.05190500000000
C           66.20868900000001        2.76137800000000       -0.48467900000000
C           64.95508500000000        3.51917800000000       -0.25838800000000
C           65.01251999999999        5.00087000000000       -0.26587700000000
C           65.78800400000000        5.67881300000000        0.68378400000000
C           65.86274200000000        7.07392200000000        0.66565900000000
C           65.16999800000001        7.81385900000000       -0.31027600000000
C           65.24183100000000        9.29080400000000       -0.33094600000000
O           64.60943700000000       10.01252900000000       -1.34363200000000
O           65.86814000000000        9.91023600000000        0.57156900000000
C           64.40500800000000        7.12918300000000       -1.26940600000000
C           64.32869100000001        5.73401300000000       -1.24796000000000
C           63.78591100000000        2.89054100000000       -0.03310300000000
C           62.51177499999999        3.53291100000000        0.27216000000000
C           61.62239800000000        2.56371000000000        0.35084800000000
C           62.31790200000000        1.29561500000000        0.10219400000000
N           63.58282799999999        1.47977100000000       -0.11924800000000
N           66.43443200000000        1.43099400000000       -0.02214800000000
C           65.11332000000000       -4.88270500000000        0.24757200000000
C           64.60085800000000       -5.60527300000000        1.33651100000000
C           64.66100100000000       -7.00201000000000        1.34627000000000
C           65.23965699999999       -7.69817000000000        0.26848900000000
C           65.30923600000000       -9.17637800000000        0.27485900000000
O           65.87976100000000       -9.85643700000000       -0.79805400000000
O           64.85427900000001       -9.83375100000000        1.24959200000000
C           65.75614700000000       -6.96830000000000       -0.81772300000000
C           65.69522900000000       -5.57191000000000       -0.82624100000000
H           60.59792699999999       -2.71443700000000       -0.20720400000000
H           62.40423499999999       -4.49567500000000       -0.10052700000000
H           67.77702800000000       -4.36935500000000        1.01097600000000
H           69.62983199999998       -2.59187100000000        0.90450200000000
H           69.35581600000000        2.34837900000000       -1.30951300000000
H           67.41465900000000        4.25884500000000       -1.46092500000000
H           66.33053600000000        5.12595700000000        1.44090100000000
H           66.46538900000000        7.57223300000000        1.41277800000000
H           64.65115400000001       11.02406800000000       -1.36592800000000
H           63.86306900000000        7.67037800000000       -2.03692000000000
H           63.74078200000000        5.22330700000000       -2.00114400000000
H           62.31005700000000        4.58625200000000        0.41806100000000
H           60.57228799999999        2.70498400000000        0.57012300000000
H           64.15664599999999       -5.08587100000000        2.17796900000000
H           64.25707100000000       -7.53626400000000        2.19819500000000
H           65.93174300000000      -10.86856800000000       -0.80359500000000
H           66.20955700000000       -7.47492700000000       -1.66144500000000
H           66.10000599999999       -5.02637300000000       -1.67094200000000
Co          83.18656899999999        0.01195000000000       -0.04476700000000
C           79.73411600000000       -0.01826600000000        0.02532000000000
C           80.38921200000000       -1.19395600000000        0.01673000000000
C           79.74857799999999       -2.50613600000000       -0.09053500000000
C           80.68575399999999       -3.43153100000000       -0.03354400000000
C           81.98272200000000       -2.76678500000000        0.12256900000000
N           81.80438500000000       -1.34828800000000        0.14583000000000
C           83.16778100000001       -3.40229400000000        0.24157900000000
C           84.46218500000001       -2.68458800000000        0.36123200000000
C           85.72642399999998       -3.33271800000000        0.73700800000000
C           86.67908299999999       -2.42234700000000        0.68354500000000
N           84.63248699999998       -1.42721700000000        0.09293200000000
C           86.02859100000001       -1.18358500000000        0.27530600000000
C           86.64626800000001       -0.01826600000000        0.02532000000000
C           85.89658200000000        1.19490100000000       -0.36092300000000
C           86.42974000000000        2.24702200000000       -0.96937800000000
C           85.39648500000000        3.26299400000000       -1.05190500000000
C           84.30466199999999        2.76137800000000       -0.48467900000000
C           83.05105800000000        3.51917800000000       -0.25838800000000
C           83.10849300000000        5.00087000000000       -0.26587700000000
C           83.88397699999999        5.67881300000000        0.68378400000000
C           83.95871499999998        7.07392200000000        0.66565900000000
C           83.26597099999998        7.81385900000000       -0.31027600000000
C           83.33780299999999        9.29080400000000       -0.33094600000000
O           82.70540900000000       10.01252900000000       -1.34363200000000
O           83.96411299999998        9.91023600000000        0.57156900000000
C           82.50097999999998        7.12918300000000       -1.26940600000000
C           82.42466400000001        5.73401300000000       -1.24796000000000
C           81.88188400000000        2.89054100000000       -0.03310300000000
C           80.60774799999999        3.53291100000000        0.27216000000000
C           79.71837099999999        2.56371000000000        0.35084800000000
C           80.41387500000000        1.29561500000000        0.10219400000000
N           81.67880100000001        1.47977100000000       -0.11924800000000
N           84.53040500000000        1.43099400000000       -0.02214800000000
C           83.20929300000000       -4.88270500000000        0.24757200000000
C           82.69683099999999       -5.60527300000000        1.33651100000000
C           82.75697400000000       -7.00201000000000        1.34627000000000
C           83.33562900000000       -7.69817000000000        0.26848900000000
C           83.40520900000000       -9.17637800000000        0.27485900000000
O           83.97573400000000       -9.85643700000000       -0.79805400000000
O           82.95025200000001       -9.83375100000000        1.24959200000000
C           83.85211999999999       -6.96830000000000       -0.81772300000000
C           83.79120200000000       -5.57191000000000       -0.82624100000000
H           78.69390000000000       -2.71443700000000       -0.20720400000000
H           80.50020800000000       -4.49567500000000       -0.10052700000000
H           85.87300099999999       -4.36935500000000        1.01097600000000
H           87.72580499999999       -2.59187100000000        0.90450200000000
H           87.45178899999999        2.34837900000000       -1.30951300000000
H           85.51063200000000        4.25884500000000       -1.46092500000000
H           84.42650900000000        5.12595700000000        1.44090100000000
H           84.56136199999999        7.57223300000000        1.41277800000000
H           82.74712700000001       11.02406800000000       -1.36592800000000
H           81.95904200000000        7.67037800000000       -2.03692000000000
H           81.83675500000000        5.22330700000000       -2.00114400000000
H           80.40602900000000        4.58625200000000        0.41806100000000
H           78.66826100000000        2.70498400000000        0.57012300000000
H           82.25261900000000       -5.08587100000000        2.17796900000000
H           82.35304400000000       -7.53626400000000        2.19819500000000
H           84.02771600000000      -10.86856800000000       -0.80359500000000
H           84.30552900000001       -7.47492700000000       -1.66144500000000
H           84.19597899999998       -5.02637300000000       -1.67094200000000
270
 energy: -517.175606491740 gnorm: 0.784211643071 xtb: 6.5.1 (b24c23e)
Co          45.78478878896880        0.01418759169631       -0.00758273534831
C           42.36906668993425       -0.08849080878712        0.07092315979545
C           43.04031300799527       -0.19152113164879        1.23771059490453
C           42.38490879121716       -0.33391451162529        2.53077362087629
C           43.33394887130642       -0.35499367505036        3.46140035773195
C           44.62932631234808       -0.22488038958820        2.78705982795264
N           44.44450808648082       -0.12631375513858        1.38855058653839
C           45.83104093474565       -0.15238448040339        3.42177430224048
C           47.10515877099606        0.00548124783256        2.71828636048983
C           48.38935586259959        0.22100861599200        3.38635511655532
C           49.33303134077065        0.28030195056603        2.44844738475810
N           47.25684731995823       -0.07044835457106        1.41192143142488
C           48.65820998747505        0.09342961641783        1.17581549622088
C           49.24908613846999        0.01004743362172       -0.03208502982778
C           48.48979190934686       -0.19112756696957       -1.26376381307242
C           49.03367778260061       -0.61339360539685       -2.43161943970412
C           48.00399842305452       -0.60051865186297       -3.42193197085019
C           46.86643735041182       -0.16876345152450       -2.82210309557390
C           45.59737358323324        0.04690563261046       -3.53296572065614
C           45.60967249479990        0.18217905433477       -5.01458039447385
C           44.96418321555384       -0.76051091880108       -5.82862211681292
C           45.00035710159403       -0.63814144909083       -7.21729099264066
C           45.68733268906457        0.43130760046804       -7.82446440685815
C           45.72238312816720        0.55676491933187       -9.30961258779953
O           46.40673061963818        1.61664546276200       -9.88029259228944
O           45.15023383913177       -0.27031807286360      -10.02302153994353
C           46.33536319443836        1.36764659729117       -7.00392220659207
C           46.29882289055693        1.24363030010323       -5.61641623284514
C           44.42143427208306        0.13104548969955       -2.86724778011422
C           43.11214499443562        0.38262769224835       -3.45613139382112
C           42.23972284255979        0.33290114241445       -2.45040752579724
C           42.99042281973860        0.06338332862092       -1.22877984201234
N           44.27762534426837       -0.05140108868825       -1.46661579924349
N           47.10270061610927        0.09266736241427       -1.44505624442740
C           45.86149810719156       -0.22536284471886        4.90288344420000
C           45.79526308383775       -1.46430659844494        5.55174608604470
C           45.83466819633028       -1.53186266536045        6.94386651421559
C           45.94029579845760       -0.35743866681906        7.71501448288033
C           45.98239113424137       -0.43624046435247        9.20318299883942
O           46.08512749890518        0.73341046833702        9.93717029815587
O           45.92666595615780       -1.52677335395742        9.77580562414350
C           46.00461377410867        0.87949553549845        7.05436312714773
C           45.96516698971840        0.94515518827471        5.66311563863169
H           41.28518404166340       -0.10810348981808        0.10891294384939
H           41.32224442176554       -0.40214162074461        2.72217934697759
H           43.14769931922996       -0.44181423416099        4.52319383381445
H           48.56943391036477        0.31502937096373        4.44545001072008
H           50.38852263304507        0.42507673947317        2.63207275197234
H           50.06616607890065       -0.88558799625484       -2.58071535754958
H           48.10758600598716       -0.86476693808566       -4.46359124824868
H           44.43815377147471       -1.59739654877977       -5.37962095193150
H           44.49222796110767       -1.38319221746060       -7.82081832855461
H           46.43966633861337        1.71535013866675      -10.87852042493426
H           46.87517685778381        2.19976336489009       -7.44164954784599
H           46.80783719408497        1.97887090034372       -5.00182556190979
H           42.86348709182869        0.57671361701289       -4.49078634104284
H           41.17456939726375        0.47676636609337       -2.53949467225481
H           45.71473858685573       -2.37853669064076        4.97159236745283
H           45.78301170080157       -2.50489550069797        7.42112065069951
H           46.11464677671145        0.69744209762099       10.93973594113212
H           46.08651125771948        1.80050102319590        7.62019039135095
H           46.01600759648322        1.91080826951653        5.17058518475390
Co         102.51634854794492        0.01606815901272       -0.03726491615961
C          105.93201151360465       -0.07703374646555       -0.12718456319482
C          105.26080942157610       -0.04478046573683       -1.29800694554300
C          105.91612207652787       -0.03717239584600       -2.59883923227505
C          104.96705774285289        0.04920109969541       -3.52573236247692
C          103.67164954133749        0.10073661610423       -2.84112369677263
N          103.85634970255494        0.03724185974400       -1.44010233636172
C          102.47027990051667        0.24583626690812       -3.46312646238314
C          101.19579319622254        0.32156076251726       -2.74591271729120
C           99.91168958936295        0.61273599541438       -3.38472214394606
C           98.96807891517798        0.56334755484299       -2.44611372167876
N          101.04450091411267        0.09561095266310       -1.45760268435775
C           99.64333841022727        0.23108637893891       -1.20333065554907
C           99.05335206196723        0.00901329586139       -0.01345366168976
C           99.81194289907411       -0.33282027181801        1.18670753190557
C           99.26744634676821       -0.88677438903859        2.29771672296456
C          100.29741307126048       -0.98841712758712        3.28345640853687
C          101.43466425453627       -0.49044791769119        2.73759686233277
C          102.70377190179786       -0.35809601266571        3.46842359335629
C          102.69140985025798       -0.39456286925059        4.95566835515667
C          103.33687332558371       -1.42485511321827        5.65555804020892
C          103.30069231523825       -1.46343358880342        7.04907056832802
C          102.61371950764206       -0.47112988709425        7.77551265778358
C          102.57866333419180       -0.51776024362354        9.26522168284326
O          101.89433067706672        0.46923464724019        9.95430648932658
O          103.15082568393362       -1.42159919722797        9.87849860582351
C          101.96568689918783        0.55358096542852        7.06841382659883
C          102.00222684966482        0.59039008946378        5.67586789336845
C          103.87960093084129       -0.19776912260699        2.81683074390165
C          105.18889456507476       -0.01577472004037        3.43070710517951
C          106.06132100693050        0.05082263042878        2.42594793951445
C          105.31061679386845       -0.07601204952087        1.18143089186896
N          104.02347849989860       -0.21761265162724        1.40441036175356
N          101.19860492704368       -0.07214928836924        1.39962304001456
C          102.43959734271243        0.34418493805456       -4.94266000895987
C          102.50578959752437       -0.81167116048000       -5.73006666136053
C          102.46638077734153       -0.71825167545912       -7.12067840394046
C          102.36075662550604        0.53726688706583       -7.75127181515538
C          102.31866610884749        0.63059061621754       -9.23855249777559
O          102.21592191328419        1.87708618243353       -9.83281742521525
O          102.37438251217812       -0.38664639979266       -9.93316567204926
C          102.29643503351576        1.68977237077001       -6.95237540550436
C          102.33588266224523        1.59456453474830       -5.56284857265670
H          107.01587453189715       -0.09214542056852       -0.16714885793465
H          106.97880041566705       -0.08287504746979       -2.79687690167858
H          105.15335479295423        0.08539722790777       -4.59045621541979
H           99.73164454372227        0.82823710440927       -4.42596463807825
H           97.91263399627026        0.72846447363057       -2.61206763211070
H           98.23496333854688       -1.17455407247854        2.41483064095070
H          100.19350604241494       -1.37101104282971        4.28764118076676