270
 energy: -517.961939239314 gnorm: 0.000410475302 xtb: 6.5.1 (b24c23e)
Co          46.37933355639999       -0.05358323504351       -0.00433884867365
C           43.00831715622602       -0.14741659614800        0.02740675034377
C           43.68380650842269       -0.43418058708865        1.19398401848060
C           43.03756572646705       -0.77207586834753        2.42572326501555
C           43.99694924539204       -0.77325393577639        3.38017742955514
C           45.23142607687728       -0.44305055357768        2.72932566930970
N           45.03495110322847       -0.28273256795909        1.38110976724882
C           46.41071430545327       -0.14873560673142        3.39968092254890
C           47.57766861570508        0.17989911555050        2.72681538486838
C           48.82355441800373        0.46373859570764        3.37371583954162
C           49.76849525735449        0.50171797075788        2.40417462689002
N           47.75435082858873        0.09403783746247        1.36419452721638
C           49.09980408191939        0.23793847003102        1.16957652636587
C           49.77004150160165        0.00521654066053       -0.03357114114198
C           49.08317049187036       -0.22704295889811       -1.22706048511795
C           49.73107235255092       -0.48579023438376       -2.47357562387041
C           48.76938317280942       -0.44388884597671       -3.42711442615700
C           47.53705092070562       -0.15343268524594       -2.75841126000492
C           46.34213501470731        0.12065041863729       -3.40813292144481
C           46.33061291957178        0.19801169870384       -4.88575898320564
C           45.51788833734417       -0.65735519801636       -5.63470425192006
C           45.51251985851653       -0.58336651132182       -7.01530147844517
C           46.31537632643655        0.35045493179485       -7.67317660746316
C           46.27276504399272        0.39338338521955       -9.15446626898375
O           47.08097084617721        1.32179980535426       -9.68820272496680
O           45.58701693107192       -0.32508020122663       -9.83640219788411
C           47.12725389643754        1.20799969243610       -6.93007775075458
C           47.13533284739601        1.12842213497764       -5.54862090761507
C           45.15761715899944        0.31433778131767       -2.71044343917492
C           43.90022805242391        0.62734902073981       -3.32467958509669
C           42.95862416931526        0.53749964424206       -2.35637459109220
C           43.64308256001030        0.18784169086544       -1.14895762281472
N           44.99696278984087        0.11636719342486       -1.36253365997343
N           47.73388784616336       -0.08602047727308       -1.39870665300152
C           46.42506516813796       -0.19499253824919        4.88103940469591
C           46.24742579213618       -1.40897367167804        5.54870172366762
C           46.26577969372237       -1.45297544505729        6.93067055779711
C           46.45810668826284       -0.28384556859746        7.66912642393301
C           46.46962838922739       -0.38228147747008        9.14844480778946
O           46.66818177733960        0.79345742499356        9.76332756771792
O           46.31803798071029       -1.40730894012080        9.76305972801580
C           46.63300357159133        0.93107026521640        7.00595871316707
C           46.61816708979639        0.97246475124466        5.62248622365606
H           41.92527765900397       -0.17815757440707        0.03819375508486
H           41.98068838548728       -0.95939537635403        2.52925891287765
H           43.88856201885330       -0.95742429008667        4.43664443081528
H           48.95175421971158        0.59066744485363        4.43623437637657
H           50.82855521618784        0.67212138267248        2.50135958712667
H           50.78808837625047       -0.66409303201442       -2.58826190502703
H           48.87341176917167       -0.59578837011240       -4.48907920538996
H           44.90403322605227       -1.39236458060534       -5.12665601458515
H           44.88866727927172       -1.24787673771283       -7.60296505898136
H           46.99476938816910        1.28536342662236      -10.65466028448894
H           47.74961971411688        1.93630858029734       -7.43640067832523
H           47.75723928676235        1.80272323571602       -4.97069369103710
H           43.76888219785363        0.87730806716265       -4.36495166672577
H           41.89328193126914        0.68557627114434       -2.43336162660927
H           46.11042237260720       -2.31918626207177        4.97613067421627
H           46.13368742856515       -2.39213899746182        7.45661745301124
H           46.66252066029048        0.64341633345908       10.72264236232125
H           46.77910461885154        1.84119738315182        7.57557202379343
H           46.74281908398864        1.91788594818790        5.10677322338372
Co         101.93489686389240       -0.04096314231232       -0.04541414021655
C          105.30617901172990       -0.13768195397679       -0.09032436422837
C          104.62981385703482       -0.28591583028111       -1.28195988554970
C          105.27526460226956       -0.47845182356981       -2.54500357533650
C          104.31519084630142       -0.36874753699642       -3.49244818725970
C          103.08125173991661       -0.11632480750241       -2.80664849763522
N          103.27852923808886       -0.11374522495812       -1.44920381942840
C          101.90136066806062        0.25327337805224       -3.43781954609143
C          100.73494969220522        0.50322849261694       -2.73114257578608
C           99.48922539858050        0.86130628234029       -3.34048209897838
C           98.54494757550793        0.79025829475761       -2.37211972934636
N          100.55863854918482        0.26167023968235       -1.38726792665749
C           99.21387907468115        0.38567201942626       -1.17636026852753
C           98.54343673056506        0.01767373077948       -0.00715041039430
C           99.23083614700442       -0.35242716212134        1.15114117302330
C           98.58288367976679       -0.75227729044648        2.35984290328224
C           99.54538606212650       -0.82475946162211        3.31068192579084
C          100.77813909252654       -0.46218274843531        2.67889253904585
C          101.97411648301184       -0.26897242679103        3.35487619693427
C          101.98737019037344       -0.36572572904092        4.83138760940931
C          102.79691107314713       -1.30694394788810        5.47309959437376
C          102.80413040137923       -1.39584184841434        6.85281449088931
C          102.00661115042868       -0.54200899809950        7.61719555860684
C          102.05097490408140       -0.67391961191758        9.09328612420030
O          101.24816526906903        0.18921800352502        9.73374922723100
O          102.73372985007437       -1.47115453650901        9.68462391012315
C          101.19821587806680        0.40087775574416        6.98149571206328
C          101.18802011004246        0.48419968519768        5.60024788749496
C          103.15883177962652        0.00296405514822        2.68382964762217
C          104.41684874746228        0.23993542188140        3.32997494623043
C          105.35794539246007        0.26314736483924        2.35726684749125
C          104.67240573198906        0.05833201572704        1.11763269519491
N          103.31861083103499       -0.03668657533894        1.32214190872385
N          100.58046650470037       -0.23651470819240        1.33632434613512
C          101.88654445078035        0.37715207234687       -4.91470037402972
C          102.06340509843506       -0.75262837903853       -5.71685063246789
C          102.04498056407500       -0.63829793396315       -7.09476951318322
C          101.85353167770589        0.60777263553495       -7.69463585776356
C          101.84178339112914        0.67908937295111       -9.17550474001792
O          101.64628393370482        1.91787274227672       -9.65193212564806
O          101.99069237187967       -0.26940612605013       -9.90327130534474
C          101.67959752946115        1.73900613603020       -6.89685128985462
C          101.69434859533862        1.62189545708973       -5.51770898027858
H          106.38919648078046       -0.16794080081110       -0.10533454255862
H          106.33206554659282       -0.65244300231403       -2.67031752480857
H          104.42287485638640       -0.42881978687637       -4.56323160795490
H           99.36070603124065        1.10911760020866       -4.38142191791286
H           97.48520166767545        0.97287168146841       -2.44828179798206
H           97.52537344635367       -0.93928304110630        2.45421538067071
H           99.44171754693109       -1.09872532485060        4.34791613233993
H          103.40676166574835       -1.97980441346761        4.88104835672611
H          103.42537912339837       -2.12776742875120        7.35724499445969
H          101.33489143727657        0.03902722640366       10.68912472101464
H          100.58017659598886        1.06768152855740        7.57100119815727
H          100.56880850687163        1.22466418138461        5.10656620788859
H          104.54887130107520        0.36591501506146        4.39232552037390
H          106.42351278602592        0.39985831736792        2.45043642843309
H          102.19997071271085       -1.72240426389438       -5.25211004925720
H          102.17647703237675       -1.51123208811981       -7.72468718905954
H          101.65190072281861        1.87856000179522      -10.62211894729541
H          101.53427360790735        2.70842358274987       -7.35863480832467
H          101.57047730966069        2.50223106428251       -4.89724939826037
C           51.17347729259718        0.00734134165965       -0.04357919783673
C           52.39804852698582        0.00755673645509       -0.05042325167808
C           53.74033903000997        0.00838123576808       -0.05559323991239
C           54.97137418902705        0.00824513302237       -0.05730802201167
C           56.30861143410633        0.00865943736884       -0.05744370726787
C           57.53982508674693        0.00785889396562       -0.05641502712033
C           58.88156866790809        0.00948510879033       -0.05312483716176
C           60.10663931158712        0.01048303237955       -0.04808387783672
C           69.69073009171883        0.02652502997376        0.00914567097830
C           70.91656959528086        0.02697657772944        0.01405146342344
C           72.25699286095326        0.02734885867735        0.01778895131494
C           73.48917195384800        0.02750470602304        0.01920062514297
C           74.82481941039534        0.02859108811559        0.01917161573485
C           76.05700424564515        0.02756609013148        0.01680612405165
C           77.39739432305812        0.02799713033869        0.01255001780948
C           78.62325790150457        0.02884548097204        0.00683929995257
C           88.20718566256834        0.02181284141430        0.02046400941212
C           89.43254355732074        0.02122715485471        0.02632179184409
C           90.77394262665919        0.02055241284717        0.02860005638764
C           92.00547017283212        0.02355805208397        0.02817048681034
C           93.34234236611567        0.02516785369427        0.02591492692092
C           94.57369428245140        0.02449171134163        0.02285109169563
C           95.91561158207750        0.02271819920615        0.01454825042697
C           97.14045780077693        0.02090682784284        0.00437218229122
Co          64.89916279281881        0.01932688601045       -0.00551286386596
C           61.50828071687103        0.01286155433934       -0.04271171706787
C           62.19464647019544       -1.17118942282377       -0.32884128721735
C           61.55260885672409       -2.40076019257610       -0.66886125106145
C           62.50926272057632       -3.36076847665146       -0.63378750619598
C           63.72993815891444       -2.71243837766111       -0.26106492776840
N           63.53729026665558       -1.35563625383545       -0.15219212532652
C           64.90137958407411       -3.37661765196248        0.07983899001360
C           66.07374283570005       -2.69308287513740        0.37190194365538
C           67.29652685234385       -3.31507329772116        0.78103419763147
C           68.25212745470772       -2.35374041550237        0.75214011122212
N           66.26650540212783       -1.34607486581033        0.17065650195536
C           67.60712545043491       -1.14822598014021        0.33917218257670
C           68.29039793183686        0.02462675214029       -0.00003554877476
C           67.60836686083864        1.19471751670973       -0.35035502906224
C           68.25639438447178        2.40228197684886       -0.75308015109841
C           67.29763491467845        3.35926648800435       -0.80338167434441
C           66.06976338020338        2.73318576199047       -0.41564915250605
C           64.89088928228770        3.41369172830010       -0.14480205741635
C           64.87889342571231        4.89123445972075       -0.21065783892935
C           65.74113976682320        5.64580274571995        0.58944853926669
C           65.72161444019460        7.02688263950631        0.52596380133190
C           64.84465896056156        7.67928275295840       -0.34264825266819
C           64.86254555093043        9.16181188129681       -0.37660692494149
O           63.98140841149996        9.68913184586174       -1.23950563448357
O           65.58848948749851        9.84835930329699        0.29622447710390
C           63.98407869426401        6.93051243757823       -1.14591462792284
C           64.00054606767297        5.54867675450956       -1.07628637398885
C           63.71747741276800        2.74704090293367        0.18538775126554
C           62.49184512194621        3.39197168702696        0.54684507423801
C           61.53869905141475        2.42809128857877        0.58012162975151
C           62.18751195035172        1.20009591642705        0.24796747032998
N           63.52965436313889        1.39022786069688        0.07413387000543
N           66.26313625555173        1.38609815506125       -0.21279166513015
C           64.89500411735571       -4.85447250531967        0.13906120974223
C           64.00806479046763       -5.52120472081636        0.98905373927301
C           64.00252595620501       -6.90241883843108        1.04721057213258
C           64.87886014711660       -7.64345657012109        0.25219698987954
C           64.83087409383198       -9.12284040489888        0.34615008277086
O           65.71109665293061       -9.74020754082821       -0.45554865622746
O           64.08210996241169       -9.73382621095969        1.06514672554688
C           65.76449529352701       -6.98297467813502       -0.59970471027296
C           65.77305292799274       -5.60004216716030       -0.65181372691745
H           60.50264430503974       -2.50205831222256       -0.89129373667271
H           62.40704939997717       -4.41438369338674       -0.83636573091452
H           67.40065706540544       -4.35336111988167        1.05075811834829
H           69.30252801438003       -2.43947905332194        0.97910814983220
H           69.31083779785583        2.49212271603117       -0.95870032179297
H           67.40293401764937        4.39766495389616       -1.07216338238201
H           66.41301559782809        5.14175202188359        1.27475514779447
H           66.38326291219012        7.61905810025566        1.14858154364612
H           64.05459352694194       10.65665947565796       -1.20182925003787
H           63.30438518367369        7.43258573608528       -1.82416923406436
H           63.34045986248169        4.96640645512270       -1.70925191623029
H           62.38446920974993        4.44575921195643        0.74600988392879
H           60.48719783850694        2.52612374614644        0.79675190440865
H           63.33567146208991       -4.94709187792625        1.61629361164384
H           63.32106073064666       -7.42599871354665        1.70866283720899
H           65.61640603752365      -10.69922063517027       -0.33605813998381
H           66.44379376249751       -7.55450739448541       -1.22099997916856
H           66.45186497001806       -5.08746817269790       -1.32399668855401
Co          83.41481948506117        0.02579710767704        0.01342655899649
C           80.02352271669827        0.02834015273856       -0.00034319238251
C           80.70435564946963       -1.16896385605562       -0.24574261183187
C           80.05569856295590       -2.40490340393721       -0.54873067217699
C           81.01270554289782       -3.36436157349587       -0.51365876430817
C           82.23966589914947       -2.71014113531650       -0.17217294749958
N           82.04839742806995       -1.35038336721127       -0.08564624459912
C           83.41406691513517       -3.36754888604632        0.16732304073647
C           84.58597277639196       -2.67754583830936        0.45165868787642
C           85.80526103133305       -3.29092888231546        0.88271751286580
C           86.76070794025232       -2.32943357063362        0.84433564001342
N           84.77929701316900       -1.33590037056322        0.22501857684074
C           86.11966594966225       -1.13380640925437        0.39835075387908
C           86.80597851090963        0.02171264289451        0.01095439238783
C           86.12597930192136        1.17626583743879       -0.38990563261831
C           86.77518731209811        2.36773691623987       -0.83558064571182
C           85.82069613327945        3.32827833097560       -0.90189615718401
C           84.59422882179764        2.71968809764219       -0.48390348311252
C           83.42135990537167        3.41456653789248       -0.21811496130906
C           83.42816061097336        4.89129448675667       -0.30028238311328
C           84.30700341082148        5.63773965449809        0.48965312454330
C           84.30989914138526        7.01828369366132        0.41622852232254
C           83.43918794293107        7.67840116063364       -0.45282098775367
C           83.48344045424921        9.16013524219976       -0.49919972511065
O           82.60783856723268        9.69615940981124       -1.36218636249901
O           84.22490493559185        9.83875324627088        0.16471170681596
C           82.56196921220295        6.93789845684049       -1.24563047175803
C           82.55594084273592        5.55632742597034       -1.16598113206360
C           82.24519101874431        2.76360448660221        0.12903045836873
C           81.02221804917501        3.42363624021499        0.47260142184559
C           80.06460644509784        2.46555222390287        0.53054488187790
C           80.70837351698016        1.22560025631708        0.23423581388915
N           82.05012458223663        1.40434465011105        0.05324091138243
N           84.78220281166288        1.37848754088278       -0.24654336244182
C           83.42031230378923       -4.84520860400534        0.22976068808886
C           82.54396297163626       -5.52405058021977        1.08085547141181
C           82.55456822898851       -6.90557895568262        1.13498990012303
C           83.43680523235298       -7.63451534093847        0.33534417441226
C           83.40661365886223       -9.11461246507209        0.42490984172571
O           84.29361785939754       -9.71872999019778       -0.37947387931459
O           82.66689711260845       -9.73684433901474        1.14369882307036
C           84.31270230720210       -6.96172949899904       -0.51703719540471
C           84.30502482955596       -5.57884892264504       -0.56519832931082
H           79.00221099867406       -2.50983802994764       -0.75202784289775
H           80.90646389251489       -4.42133862037974       -0.69548832612080
H           85.90704134793627       -4.32367731195983        1.17385473801936
H           87.80917440676826       -2.41021282584058        1.08179814355940
H           87.82785316597352        2.44616477121452       -1.05450961561341
H           85.92803418018437        4.35816246793376       -1.20090852068855
H           84.97465055601668        5.12749334334621        1.17452390944477
H           84.98477591678058        7.60398326507610        1.03070493430271
H           82.69896309126962       10.66247417928434       -1.33308900295926
H           81.88704653335571        7.44618255943961       -1.92403481300562
H           81.88339881495187        4.98050074871003       -1.79166548103086
H           80.91935540048181        4.48283349397534        0.64338724018954
H           79.01350336543791        2.57420251565642        0.74401704382585
H           81.86752650365754       -4.95966477982818        1.71253764391111
H           81.88113531757679       -7.43880197026409        1.79698167865926
H           84.21179558013250      -10.67918051423310       -0.26223982773197
H           84.99696679758971       -7.52362091232515       -1.14163862889950
H           84.97658728542197       -5.05637933543788       -1.23706008513768
