300
 energy: -462.450274032522 gnorm: 0.786109418231 xtb: 6.5.1 (b24c23e)
Fe          52.96562200000000       -0.02853700000000       -0.02576100000000
C           49.59175400000000        0.10398100000000        0.01352200000000
C           50.26047000000000        1.15662100000000        0.49213400000000
C           49.61715300000000        2.33815000000000        1.05491900000000
C           50.56416700000000        3.19061300000000        1.40004300000000
C           51.86461100000000        2.59331800000000        1.06965800000000
N           51.68004400000000        1.29912500000000        0.49723200000000
C           53.05837000000000        3.19085100000000        1.25197500000000
C           53.10392400000000        4.55874500000000        1.83153500000000
C           53.02019100000000        5.69198300000000        0.98833600000000
C           52.88239600000000        5.54153300000000       -0.50469700000000
C           53.06313200000000        6.97725900000000        1.54987500000000
C           53.18272800000000        7.14991800000000        2.93374300000000
C           53.26862600000000        8.52985900000000        3.51721700000000
C           53.29148200000000        6.02830800000000        3.76388900000000
C           53.24467300000000        4.73220400000000        3.22838700000000
C           53.35603800000000        3.54598700000000        4.15088300000000
C           54.35145300000000        2.55140300000000        0.89864600000000
C           55.64359000000000        3.24210200000000        0.97083700000000
C           56.57878800000000        2.38311600000000        0.62281300000000
N           54.48884400000000        1.31610800000000        0.52324400000000
C           55.89103900000000        1.13134400000000        0.32694200000000
C           56.48603800000000       -0.02238700000000       -0.02157400000000
C           55.72879099999999       -1.26434900000000       -0.30920600000000
C           56.28507800000000       -2.46321300000000       -0.43208100000000
C           55.23609700000000       -3.39227900000000       -0.79869100000000
C           54.10471600000000       -2.70192900000000       -0.87517300000000
N           54.32501799999999       -1.32350900000000       -0.56906400000000
C           52.80303200000000       -3.28155100000000       -1.29523200000000
C           52.79255300000000       -4.64365600000000       -1.89355000000000
C           53.03122300000000       -4.81135000000000       -3.27773700000000
C           53.29894999999999       -3.62628300000000       -4.16918700000000
C           53.02792800000000       -6.10127300000000       -3.82980100000000
C           52.78917700000000       -7.22237400000000       -3.02762600000000
C           52.76360400000000       -8.58839700000000       -3.64843700000000
C           52.54005699999999       -7.05476900000000       -1.65996900000000
C           52.55075600000000       -5.77672000000000       -1.08066400000000
C           52.28967800000000       -5.63304300000000        0.39669000000000
C           51.64135800000000       -2.61881100000000       -1.15173300000000
C           50.32135900000000       -3.11438700000000       -1.53453400000000
C           49.46021900000000       -2.18727200000000       -1.16342600000000
C           50.22237800000000       -1.09878400000000       -0.55293000000000
N           51.49565699999999       -1.33981500000000       -0.53986100000000
H           48.50857900000000        0.12933800000000        0.03585100000000
H           48.55406500000000        2.50413100000000        1.17283100000000
H           50.38632400000000        4.16192400000000        1.84331900000000
H           51.93077300000000        5.02214100000000       -0.74285300000000
H           53.73242700000000        4.94957400000000       -0.90425600000000
H           52.87786899999999        6.52586500000000       -1.01912000000000
H           53.00391900000000        7.84924300000000        0.90901000000000
H           52.84476699999999        8.54856500000000        4.54397600000000
H           54.33144800000000        8.84778000000000        3.55791000000000
H           52.69672500000000        9.25443300000000        2.89906500000000
H           53.41084499999999        6.16783200000000        4.83200000000000
H           54.27103300000000        2.96661500000000        3.90668700000000
H           53.41489700000000        3.85633000000000        5.21544900000000
H           52.46674100000000        2.89187400000000        4.03293500000000
H           55.81924100000000        4.27071300000000        1.25735600000000
H           57.63896900000000        2.59488600000000        0.58017700000000
H           57.33068800000000       -2.71036800000000       -0.30825500000000
H           55.36343900000000       -4.44843400000000       -0.99792300000000
H           52.46385100000000       -2.89833600000000       -4.09131900000000
H           53.39477500000000       -3.92575500000000       -5.23434800000000
H           54.24451300000000       -3.13296000000000       -3.86099000000000
H           53.20968599999999       -6.23771700000000       -4.88970200000000
H           53.66455300000000       -8.73243500000000       -4.28282900000000
H           52.75448400000000       -9.38655900000000       -2.87509400000000
H           51.85500699999999       -8.69133900000000       -4.27909900000000
H           52.34119900000000       -7.92364700000000       -1.04372200000000
H           51.33517499999999       -5.09006100000000        0.55713200000000
H           53.11724300000000       -5.06742800000000        0.87390500000000
H           52.21693200000000       -6.62041100000000        0.90014000000000
H           50.07351900000000       -4.05217700000000       -2.01468500000000
H           48.38699800000000       -2.23809500000000       -1.29163100000000
Fe          86.38271800000000       -0.01505100000000       -0.02033700000000
C           89.75658600000000       -0.13787100000000       -0.08373700000000
C           89.08787000000000       -1.22879400000000       -0.46715000000000
C           89.73118700000001       -2.47099700000000       -0.87905900000000
C           88.78417399999999       -3.32506000000000       -1.22020700000000
C           87.48372999999999       -2.66532600000000       -1.04508300000000
N           87.66829600000000       -1.33515200000000       -0.56213100000000
C           86.28997000000000       -3.22271900000000       -1.32721500000000
C           86.24441599999999       -4.61101500000000       -1.85604500000000
C           86.32814900000000       -4.84497000000000       -3.24905500000000
C           86.46594500000000       -3.70274000000000       -4.22224200000000
C           86.28520800000000       -6.16117300000000       -3.73369000000000
C           86.16561200000000       -7.24385200000000       -2.85465000000000
C           86.07971400000000       -8.64354800000000       -3.38899600000000
C           86.05685800000001       -7.00924800000000       -1.47910900000000
C           86.10366700000000       -5.70325900000000       -0.96819000000000
C           85.99230200000000       -5.48597300000000        0.51871900000000
C           84.99688799999998       -2.51668500000000       -1.13946400000000
C           83.70475099999999       -3.06506200000000       -1.56556200000000
C           82.76955300000000       -2.20428600000000       -1.22199100000000
N           84.85949599999999       -1.36541600000000       -0.55511900000000
C           83.45730100000000       -1.09618800000000       -0.56885100000000
C           82.86230200000000       -0.02238700000000       -0.02157400000000
C           83.61954900000001        1.07292700000000        0.63071900000000
C           83.06326199999999        2.02307700000000        1.37206200000000
C           84.11224399999999        2.94729100000000        1.75074000000000
C           85.24362400000000        2.50209600000000        1.21760300000000
N           85.02332199999998        1.29552300000000        0.48416800000000
C           86.54530800000001        3.21116000000000        1.31578400000000
C           86.55578700000000        4.60826500000000        1.82707000000000
C           86.31711700000000        5.68758000000000        0.94436300000000
C           86.04938999999999        5.44963100000000       -0.51934700000000
C           86.32041300000000        7.00057700000000        1.43905200000000
C           86.55916299999998        7.25417700000000        2.79405700000000
C           86.58473699999999        8.66968100000000        3.29182500000000
C           86.80828400000000        6.18636900000000        3.66489800000000
C           86.79758500000000        4.86308200000000        3.19808700000000
C           87.05866200000000        3.73659400000000        4.16464900000000
C           87.70698299999999        2.63358900000000        0.96049700000000
C           89.02698100000001        3.25621300000000        1.02737500000000
C           89.88812100000000        2.33029300000000        0.65329400000000
C           89.12596200000000        1.12219500000000        0.34022800000000
N           87.85268299999998        1.28707100000000        0.51653000000000
H           90.83976100000000       -0.17162600000000       -0.08518100000000
H           90.79427500000000       -2.67240000000000       -0.90888900000000
H           88.96201600000001       -4.33283400000000       -1.57281100000000
H           87.41756699999999       -3.16307400000000       -4.03450300000000
H           85.61591300000001       -2.99896700000000       -4.10072800000000
H           86.47047100000000       -4.05687000000000       -5.27492100000000
H           86.34442100000000       -6.34669400000000       -4.79982600000000
H           86.50357300000000       -9.36790100000000       -2.66105400000000
H           85.01689200000000       -8.90112800000000       -3.57973800000000
H           86.65161600000000       -8.73842600000000       -4.33668600000000
H           85.93749500000000       -7.84940900000000       -0.80497400000000
H           85.07730699999999       -4.89884400000000        0.74362600000000
H           85.93344399999999       -6.44694000000000        1.07203300000000
H           86.88159899999999       -4.93231700000000        0.88647000000000
H           83.52909900000000       -4.00565600000000       -2.07095000000000
H           81.70937100000000       -2.32757700000000       -1.39937000000000
H           82.01765299999998        2.11569300000000        1.63252500000000
H           83.98490099999999        3.84732800000000        2.33818300000000
H           86.88448899999999        4.87044600000000       -0.96713600000000
H           85.95356599999998        6.40316500000000       -1.08061700000000
H           85.10382799999999        4.88028400000000       -0.63849900000000
H           86.13865400000000        7.83283100000000        0.76870800000000
H           85.68378700000000        9.21282300000000        2.93378000000000
H           86.59385699999999        8.71021500000000        4.40244600000000
H           87.49333300000001        9.18058600000000        2.90802000000000
H           87.00714099999999        6.38669200000000        4.71112000000000
H           88.01316500000000        3.23370900000000        3.90450000000000
H           86.23109800000000        2.99806600000000        4.11741000000000
H           87.13140799999999        4.10051000000000        5.21151200000000
H           89.27482100000000        4.26532800000000        1.33016400000000
H           90.96134299999999        2.45572600000000        0.59596900000000
C           58.43570700000000       -0.02238700000000       -0.02157400000000
C           59.65762400000000       -0.02238700000000       -0.02157400000000
C           69.06321100000000       -0.02238700000000       -0.02157400000000
C           70.28512900000000       -0.02238700000000       -0.02157400000000
C           79.69071599999999       -0.02238700000000       -0.02157400000000
C           80.91263400000000       -0.02238700000000       -0.02157400000000
Fe          64.35620700000000       -0.03331000000000       -0.00233400000000
C           60.91034799999999        0.02361400000000        0.02275600000000
C           61.56887000000000        0.18542300000000        1.18550600000000
C           60.92709499999999        0.41970400000000        2.48143800000000
C           61.86716200000000        0.49510800000000        3.40093000000000
C           63.16671000000000        0.31463400000000        2.74811300000000
N           62.98834200000000        0.12167300000000        1.34335900000000
C           64.35172100000000        0.30780300000000        3.39100700000000
C           64.37597100000001        0.47974100000000        4.86767100000000
C           64.53253900000000        1.76901600000000        5.42893200000000
C           64.69347700000000        2.98438100000000        4.55242500000000
C           64.56187199999999        1.91774800000000        6.82394200000000
C           64.41393100000001        0.80853700000000        7.66520800000000
C           64.47722500000000        0.97607100000000        9.15527600000000
C           64.27586700000001       -0.46823900000000        7.10862300000000
C           64.25694900000001       -0.64604800000000        5.71682200000000
C           64.09220400000000       -2.03295200000000        5.15126400000000
C           65.65616300000001        0.13900200000000        2.70428100000000
C           66.93295999999999       -0.00408100000000        3.41334700000000
C           67.88804300000000       -0.08376600000000        2.51064500000000
N           65.82130600000001        0.14840300000000        1.41765200000000
C           67.22796600000000        0.00957900000000        1.21441500000000
C           67.84716800000000        0.02361400000000        0.02275600000000
C           67.10879000000000        0.11528400000000       -1.25754600000000
C           67.67675300000001        0.36896500000000       -2.42967400000000
C           66.64306999999999        0.27185400000000       -3.44000600000000
C           65.51024900000000       -0.03297400000000       -2.81874200000000
N           65.71281300000000       -0.14573700000000       -1.41005400000000
C           64.23160400000000       -0.32050900000000       -3.51272000000000
C           64.26379400000000       -0.56737300000000       -4.97949000000000
C           64.01655900000000        0.49134700000000       -5.88569900000000
C           63.71338099999999        1.88283700000000       -5.39272000000000
C           64.05486800000000        0.24383700000000       -7.26640000000000
C           64.33195700000000       -1.03772100000000       -7.75623400000000
C           64.41635100000001       -1.27807400000000       -9.23497900000000
C           64.60149600000000       -2.07790100000000       -6.85930600000000
C           64.55786900000000       -1.86004600000000       -5.47385600000000
C           64.85286000000001       -3.00308700000000       -4.53697900000000
C           63.05564099999999       -0.38064700000000       -2.86114600000000
C           61.76409899999999       -0.67364000000000       -3.47189800000000
C           60.87276200000000       -0.57337200000000       -2.50809500000000
C           61.58441199999999       -0.21997000000000       -1.27436900000000
N           62.86183200000000       -0.10668500000000       -1.47396800000000
H           59.86875799999999        0.51448800000000        2.68431600000000
H           61.68346800000000        0.65957400000000        4.45489200000000
H           65.64895400000000        2.91532900000000        3.99216500000000
H           64.70452400000001        3.92157800000000        5.14799000000000
H           63.85089400000000        3.04781000000000        3.83263000000000
H           64.69758600000000        2.90109900000000        7.25911700000000
H           65.52236400000000        0.82898200000000        9.49893000000000
H           63.82165400000000        0.23392100000000        9.65879600000000
H           64.13732600000000        1.99061300000000        9.45428000000000
H           64.18519100000000       -1.32627800000000        7.76445600000000
H           63.11639900000000       -2.10864700000000        4.62776500000000
H           64.91081200000001       -2.25021200000000        4.43367600000000
H           64.12223100000000       -2.80749100000000        5.94691600000000
H           67.08552700000000       -0.03686100000000        4.48423700000000
H           68.94374200000000       -0.19110400000000        2.72185400000000
H           68.72168400000000        0.57942500000000       -2.61350800000000
H           66.78330500000000        0.38961400000000       -4.50666600000000
H           62.76318200000000        1.87855000000000       -4.81889000000000
H           63.60813600000000        2.60343700000000       -6.23162800000000
H           64.53548700000000        2.23843600000000       -4.73650000000000
H           63.87274900000000        1.05173400000000       -7.96553300000000
H           64.10656100000000       -2.31630400000000       -9.48076900000000
H           65.46121100000001       -1.12163100000000       -9.57557300000000
H           63.74774200000000       -0.58216700000000       -9.78563800000000
H           64.84502900000000       -3.06148100000000       -7.24410500000000
H           64.93518299999999       -3.96856300000000       -5.08016000000000
H           64.03769300000000       -3.10336400000000       -3.79000700000000
H           65.81196900000000       -2.81509000000000       -4.01094500000000
H           61.55297500000000       -0.91802800000000       -4.50493200000000
H           59.80976100000000       -0.72975500000000       -2.63217100000000
Fe          74.98371200000000       -0.03331000000000       -0.00233400000000
C           71.53785300000000        0.02361400000000        0.02275600000000
C           72.19637399999999        0.18542300000000        1.18550600000000
C           71.55459999999999        0.41970400000000        2.48143800000000
C           72.49466699999999        0.49510800000000        3.40093000000000
C           73.79421399999998        0.31463400000000        2.74811300000000
N           73.61584599999999        0.12167300000000        1.34335900000000
C           74.97922600000000        0.30780300000000        3.39100700000000
C           75.00347599999999        0.47974100000000        4.86767100000000
C           75.16004400000000        1.76901600000000        5.42893200000000
C           75.32098199999999        2.98438100000000        4.55242500000000
C           75.18937699999999        1.91774800000000        6.82394200000000
C           75.04143600000000        0.80853700000000        7.66520800000000
C           75.10473000000000        0.97607100000000        9.15527600000000
C           74.90337200000000       -0.46823900000000        7.10862300000000
C           74.88445400000001       -0.64604800000000        5.71682200000000
C           74.71970899999999       -2.03295200000000        5.15126400000000
C           76.28366799999999        0.13900200000000        2.70428100000000
C           77.56046499999998       -0.00408100000000        3.41334700000000
C           78.51554800000000       -0.08376600000000        2.51064500000000
N           76.44880999999999        0.14840300000000        1.41765200000000
C           77.85547099999999        0.00957900000000        1.21441500000000
C           78.47467300000000        0.02361400000000        0.02275600000000
C           77.73629500000000        0.11528400000000       -1.25754600000000
C           78.30425700000001        0.36896500000000       -2.42967400000000
C           77.27057499999999        0.27185400000000       -3.44000600000000
C           76.13775400000000       -0.03297400000000       -2.81874200000000
N           76.34031800000000       -0.14573700000000       -1.41005400000000
C           74.85910900000000       -0.32050900000000       -3.51272000000000
C           74.89129900000000       -0.56737300000000       -4.97949000000000
C           74.64406400000000        0.49134700000000       -5.88569900000000
C           74.34088600000000        1.88283700000000       -5.39272000000000
C           74.68237300000000        0.24383700000000       -7.26640000000000
C           74.95946200000000       -1.03772100000000       -7.75623400000000
C           75.04385600000001       -1.27807400000000       -9.23497900000000
C           75.22900000000000       -2.07790100000000       -6.85930600000000
C           75.18537400000000       -1.86004600000000       -5.47385600000000
C           75.48036500000001       -3.00308700000000       -4.53697900000000
C           73.68314499999998       -0.38064700000000       -2.86114600000000
C           72.39160300000000       -0.67364000000000       -3.47189800000000
C           71.50026699999998       -0.57337200000000       -2.50809500000000
C           72.21191700000000       -0.21997000000000       -1.27436900000000
N           73.48933699999999       -0.10668500000000       -1.47396800000000
H           70.49626300000000        0.51448800000000        2.68431600000000
H           72.31097300000000        0.65957400000000        4.45489200000000
H           76.27645900000000        2.91532900000000        3.99216500000000
H           75.33202900000001        3.92157800000000        5.14799000000000
H           74.47839900000000        3.04781000000000        3.83263000000000
H           75.32509099999999        2.90109900000000        7.25911700000000
H           76.14986900000000        0.82898200000000        9.49893000000000
H           74.44915899999999        0.23392100000000        9.65879600000000
H           74.76483000000000        1.99061300000000        9.45428000000000
H           74.81269600000000       -1.32627800000000        7.76445600000000
H           73.74390400000000       -2.10864700000000        4.62776500000000
H           75.53831699999999       -2.25021200000000        4.43367600000000
H           74.74973600000000       -2.80749100000000        5.94691600000000
H           77.71303100000000       -0.03686100000000        4.48423700000000
H           79.57124700000000       -0.19110400000000        2.72185400000000
H           79.34918900000000        0.57942500000000       -2.61350800000000
H           77.41080999999998        0.38961400000000       -4.50666600000000
H           73.39068700000000        1.87855000000000       -4.81889000000000
H           74.23564099999999        2.60343700000000       -6.23162800000000
H           75.16299200000000        2.23843600000000       -4.73650000000000
H           74.50025299999999        1.05173400000000       -7.96553300000000
H           74.73406500000000       -2.31630400000000       -9.48076900000000
H           76.08871600000001       -1.12163100000000       -9.57557300000000
H           74.37524600000000       -0.58216700000000       -9.78563800000000
H           75.47253400000000       -3.06148100000000       -7.24410500000000
H           75.56268799999999       -3.96856300000000       -5.08016000000000
H           74.66519800000000       -3.10336400000000       -3.79000700000000
H           76.43947400000000       -2.81509000000000       -4.01094500000000
H           72.18048000000000       -0.91802800000000       -4.50493200000000
H           70.43726599999998       -0.72975500000000       -2.63217100000000
300
 energy: -462.704746431732 gnorm: 0.391333814672 xtb: 6.5.1 (b24c23e)
Fe          52.97176892664778       -0.02324570063958       -0.02333036267323
C           49.59278451151921        0.08879583928175        0.00595978040149
C           50.26825493743824        1.15529842415780        0.49128584044089
C           49.61870095420979        2.33028377425928        1.05141322313980
C           50.57630069431458        3.19098402109569        1.39962232134773
C           51.86662719558804        2.58531587406678        1.06661439360694
N           51.67042743534160        1.30496052322758        0.50259354467700
C           53.07483564916961        3.18876240979632        1.24996257204072
C           53.10932362559397        4.56351825396636        1.83269918056157
C           53.02074934536331        5.69284694343170        0.99277569004043
C           52.88283370122797        5.54040572822213       -0.50368116729235
C           53.06274597670692        6.97227827733138        1.55315849929740
C           53.18548498936607        7.14712988571633        2.93222302492769
C           53.26664905105314        8.53106884426636        3.51791212635542
C           53.28988640501112        6.02713526201331        3.75814288901258
C           53.24528415684289        4.73597314237962        3.22560713409225
C           53.35567668383440        3.54594271873536        4.14922631486894
C           54.34470025043689        2.56191920552860        0.90367927601180
C           55.63037574649147        3.25032029206110        0.97600010814516
C           56.57834455916604        2.37674731020426        0.62136941212069
N           54.50090775710035        1.30955938908030        0.51250397433878
C           55.90596875287262        1.12463270627689        0.32520276999456
C           56.51731986402023       -0.03813090144929       -0.02233280155776
C           55.73268713480309       -1.24579132984387       -0.31282985631247
C           56.28912394735158       -2.48198807409389       -0.43793057285499
C           55.25517185481464       -3.39362569264711       -0.79829654574910
C           54.09456327150702       -2.68467117738577       -0.87763058190962
N           54.32858943613956       -1.32109392114057       -0.55629040028033
C           52.81789703720300       -3.27394749398185       -1.29197830482135
C           52.80038107539726       -4.64560608826463       -1.89272520584066
C           53.03208755509588       -4.81426699776357       -3.27437414443565
C           53.29837253107861       -3.62603444402522       -4.16763249628957
C           53.02660507162294       -6.09956757120728       -3.82344770160562
C           52.78740173673934       -7.21964616368460       -3.02570244672852
C           52.76467097080199       -8.58975344842738       -3.64834228731506
C           52.54143635251508       -7.04909684883626       -1.66295743802359
C           52.55165811798788       -5.77594781972239       -1.08491298573592
C           52.29056648206437       -5.63176052056666        0.39589000483124
C           51.64346276614196       -2.61475089412255       -1.15020626142308
C           50.32994683162796       -3.11272925056503       -1.53229892495050
C           49.45178597303849       -2.17609424566522       -1.15748297803917
C           50.20669693540639       -1.08978090924782       -0.54860292895821
N           51.50006021210194       -1.34063114340065       -0.54640325720388
H           48.50930392685324        0.12377506474148        0.03268846714889
H           48.55542168749034        2.49526795482497        1.16894998420673
H           50.39831436244024        4.16172438013427        1.84294428595574
H           51.93926073164857        5.02390319779911       -0.74290558642262
H           53.72439699905235        4.95170518761440       -0.90272150514760
H           52.87781340522741        6.51787034578704       -1.01281918023201
H           53.00340450220931        7.84598572143232        0.91001469240660
H           52.84982034386037        8.54921071752937        4.53728578252155
H           54.32212208164076        8.84791726554298        3.55883195727157
H           52.70273247666391        9.25032587993357        2.90326265772221
H           53.40968838888297        6.16621103014366        4.82907190229185
H           54.26275223130379        2.96820965763994        3.90841706838150
H           53.41454911036715        3.85529616200960        5.20532869694786
H           52.47497442107264        2.89410542857102        4.03301977784491
H           55.80938906490098        4.27494777310452        1.25980600044769
H           57.63794266892022        2.58550146234600        0.57743747416348
H           57.33240318377457       -2.71715253172910       -0.30884492913516
H           55.36860512156775       -4.44863028479089       -0.99607466724201
H           52.47188957095940       -2.90128644446834       -4.09088046369488
H           53.39387621292953       -3.92486689726451       -5.22417451552935
H           54.23619289535556       -3.13378029039617       -3.86319502891875
H           53.20933360956886       -6.23574980416809       -4.88622389711457
H           53.65630528021133       -8.73277398341731       -4.28007803457359
H           52.75357961993613       -9.38036770460113       -2.88128442264757
H           51.86341773314994       -8.69298694944791       -4.27542945268102
H           52.34227811135499       -7.92015199867491       -1.04462562453652
H           51.34353846676351       -5.09216604223736        0.55799501949163
H           53.10947398868664       -5.06912494949359        0.87161334887687
H           52.21735786877873       -6.61238642685329        0.89371097431058
H           50.08451181210796       -4.05069419187357       -2.01335013443820
H           48.38306982231494       -2.23040953106109       -1.28830346537672
Fe          86.37664242941850       -0.02054287078533       -0.02230089191459
C           89.75554319604652       -0.12165029944599       -0.07866155550823
C           89.08007722501733       -1.22729517323653       -0.46683689547586
C           89.72966458597442       -2.46292519003874       -0.87615104712633
C           88.77206602890681       -3.32505356066935       -1.22077430429223
C           87.48176105188666       -2.65738050331817       -1.04169360868365
N           87.67809922982174       -1.34328205845971       -0.56241007408317
C           86.27336337487250       -3.21979574323248       -1.32720023246388