236
 energy: -404.775908253589 gnorm: 5.000564280166 xtb: 6.5.1 (b24c23e)
C           31.86788800000000       -0.01710100000000       -0.01447900000000
C           32.59584300000000        1.35850600000000        0.08149700000000
C           31.98808900000000        2.59303200000000        0.06304700000000
C           33.01044800000000        3.56206400000000        0.23528600000000
C           34.20765900000000        2.88438700000000        0.36123200000000
N           33.94838500000000        1.54506800000000        0.21187000000000
C           35.62921600000000        3.52100000000000        0.65320700000000
C           35.66598900000000        4.93551600000000        1.08574900000000
C           35.95336399999999        5.94729100000000        0.17109500000000
C           35.96490800000000        7.25477600000000        0.62481300000000
N           35.71085500000000        7.61927600000000        1.90369800000000
C           35.43665100000000        6.61076600000000        2.76471300000000
C           35.40123600000000        5.27299300000000        2.41143800000000
C           36.76042500000000        2.77252100000000        0.55419400000000
C           38.06476600000000        3.30965200000000        0.88490100000000
C           38.96763099999999        2.35025500000000        0.71905900000000
N           36.95728100000000        1.46898500000000        0.18299800000000
C           38.28895600000000        1.15368600000000        0.26215900000000
C           38.95687900000000       -0.00113400000000       -0.00055300000000
C           38.17741400000000       -1.27965200000000       -0.52467800000000
C           38.71196599999999       -2.31268100000000       -1.26934400000000
C           37.68650000000000       -3.27016800000000       -1.46988900000000
C           36.55229400000000       -2.78993800000000       -0.85057600000000
N           36.84606600000000       -1.55337900000000       -0.32634500000000
C           35.14639000000000       -3.51876000000000       -0.77322300000000
C           35.12187899999999       -4.98940400000000       -0.91752300000000
C           35.51849800000000       -5.80448400000000        0.14026600000000
C           35.49321000000000       -7.17599400000000       -0.04565000000000
N           35.10889000000000       -7.78271700000000       -1.19360800000000
C           34.73095400000000       -6.96074200000000       -2.20053500000000
C           34.72193999999999       -5.57931100000000       -2.11570500000000
C           34.01998100000000       -2.79128500000000       -0.55791000000000
C           32.70076800000000       -3.39101800000000       -0.45894400000000
C           31.81434000000000       -2.41972700000000       -0.26139000000000
C           32.53310700000000       -1.17028900000000       -0.21358600000000
N           33.85318000000000       -1.44557500000000       -0.38778800000000
H           30.79117900000000       -0.03117000000000        0.10548200000000
H           30.92983800000000        2.77490600000000       -0.04477500000000
H           32.88158900000000        4.63270600000000        0.28735900000000
H           34.64863900000000        0.80747300000000        0.20309900000000
H           36.16559300000000        5.70426200000000       -0.86448500000000
H           36.18737300000000        8.07084900000000       -0.05478600000000
H           35.23774099999999        6.91469900000000        3.78719000000000
H           35.17673700000000        4.50030300000000        3.13879600000000
H           38.27836600000000        4.30828000000000        1.22194800000000
H           40.02124900000000        2.46570700000000        0.89674500000000
H           39.73050900000000       -2.37965200000000       -1.62052600000000
H           37.76904100000000       -4.20633400000000       -2.00127500000000
H           36.16635600000000       -0.92212800000000        0.08985600000000
H           35.83576600000000       -5.36661100000000        1.08052700000000
H           35.79343000000000       -7.84457300000000        0.75454300000000
H           34.42306400000000       -7.45775100000000       -3.11456900000000
H           34.40931199999999       -4.96201900000000       -2.95116200000000
H           32.47199000000000       -4.43914600000000       -0.52844500000000
H           30.75227900000000       -2.53857100000000       -0.14544200000000
C           88.01796800000000        0.01943900000000       -0.00561900000000
C           87.29001299999999       -1.24736400000000       -0.55033800000000
C           87.89776699999999       -2.33634400000000       -1.13215900000000
C           86.87540900000000       -3.27665100000000       -1.42286900000000
C           85.67819799999999       -2.73191500000000       -1.00053000000000
N           85.93747100000000       -1.47291900000000       -0.51988900000000
C           84.25664000000000       -3.43155800000000       -1.03255100000000
C           84.21986699999999       -4.88709700000000       -1.29590100000000
C           83.93249199999998       -5.36759700000000       -2.57238100000000
C           83.92094899999999       -6.73768900000000       -2.76788400000000
N           84.17500099999999       -7.64744900000000       -1.79796400000000
C           84.44920500000001       -7.14528500000000       -0.57066100000000
C           84.48462100000000       -5.79427100000000       -0.27199600000000
C           83.12543100000001       -2.72084900000000       -0.77776100000000
C           81.82109100000000       -3.34979700000000       -0.72978900000000
C           80.91822499999999       -2.42098500000000       -0.43780400000000
N           82.92857500000000       -1.39206200000000       -0.51070800000000
C           81.59690100000000       -1.14803400000000       -0.29593000000000
C           80.92897800000000       -0.00113400000000       -0.00055300000000
C           81.70844199999999        1.37545600000000        0.11909500000000
C           81.17389099999998        2.63482800000000       -0.06974200000000
C           82.19935700000001        3.57783600000000        0.19051800000000
C           83.33356200000000        2.86728700000000        0.52110900000000
N           83.03979000000000        1.52794800000000        0.42077200000000
C           84.73946599999998        3.47974400000000        0.92367600000000
C           84.76397699999998        4.85316300000000        1.46896500000000
C           84.36735899999999        5.09325300000000        2.78259600000000
C           84.39264700000000        6.39760700000000        3.24548600000000
N           84.77696700000000        7.46272500000000        2.50289300000000
C           85.15490200000001        7.19320900000000        1.23131700000000
C           85.16391599999999        5.92633500000000        0.67402200000000
C           85.86587500000000        2.73444100000000        0.78189100000000
C           87.18508900000000        3.22224700000000        1.14454700000000
C           88.07151700000000        2.26833700000000        0.87530600000000
C           87.35275000000000        1.13575700000000        0.34555200000000
N           86.03267600000000        1.46025700000000        0.31677800000000
H           89.09467700000000       -0.02299800000000        0.10746300000000
H           88.95601800000000       -2.44863800000000       -1.31130600000000
H           87.00426700000000       -4.25224700000000       -1.86694000000000
H           85.23721700000000       -0.81321800000000       -0.18986300000000
H           83.72026300000000       -4.67725500000000       -3.38165000000000
H           83.69848299999998       -7.15187800000000       -3.74577900000000
H           84.64811499999999       -7.88376600000000        0.19906600000000
H           84.70911900000000       -5.44052200000000        0.72848400000000
H           81.60749000000000       -4.39189600000000       -0.88754900000000
H           79.86460800000000       -2.60499800000000       -0.33272900000000
H           80.15534800000000        2.85520500000000       -0.35125100000000
H           82.11681500000000        4.65341800000000        0.14691400000000
H           83.71950000000000        0.77617600000000        0.50163700000000
H           84.05009000000000        4.27336200000000        3.41789300000000
H           84.09242599999999        6.62544600000000        4.26303000000000
H           85.46279199999999        8.05365800000000        0.64642000000000
H           85.47654400000000        5.76023700000000       -0.35137900000000
H           87.41386700000000        4.18581100000000        1.56281400000000
H           89.13357700000000        2.32087900000000        1.03281000000000
C           45.06467599999999       -0.00026400000000        0.00800100000000
C           43.85573700000000       -0.01371900000000       -0.00044600000000
C           42.43420799999999       -0.00489900000000       -0.01242900000000
C           41.22253900000000        0.00253900000000       -0.00156600000000
C           46.48128100000000       -0.00693900000000        0.00853400000000
C           47.70197599999999        0.00253900000000       -0.00156600000000
C           60.54668700000000       -0.00026400000000        0.00800100000000
C           59.33774799999999       -0.01371900000000       -0.00044600000000
C           57.91621900000000       -0.00489900000000       -0.01242900000000
C           56.70454999999999        0.00253900000000       -0.00156600000000
C           61.96329200000000       -0.00693900000000        0.00853400000000
C           63.18398700000000        0.00253900000000       -0.00156600000000
C           76.02869800000001       -0.00026400000000        0.00800100000000
C           74.81975899999999       -0.01371900000000       -0.00044600000000
C           73.39823000000000       -0.00489900000000       -0.01242900000000
C           72.18656100000000        0.00253900000000       -0.00156600000000
C           77.44530299999998       -0.00693900000000        0.00853400000000
C           78.66599800000000        0.00253900000000       -0.00156600000000
C           48.62196999999999        0.00073200000000        0.00082400000000
C           49.41775100000000       -1.24476700000000        0.57193600000000
C           48.91735600000000       -2.24012600000000        1.38445500000000
C           49.95555699999999       -3.18596900000000        1.58520000000000
C           51.05904100000000       -2.73526600000000        0.89162200000000
N           50.74381499999999       -1.51770100000000        0.34431000000000
C           52.44761199999999       -3.48076800000000        0.74563600000000
C           52.44025700000000       -4.95744300000000        0.82373700000000
C           52.85790800000000       -5.60833100000000        1.98388300000000
C           52.81661399999999       -6.99173000000000        2.00981300000000
N           52.39210099999999       -7.76001300000000        0.97921300000000
C           51.99271900000000       -7.09509900000000       -0.13070800000000
C           51.99604500000000       -5.71628300000000       -0.25660600000000
C           53.58319800000000       -2.77147300000000        0.51640800000000
C           54.87021400000000       -3.40755800000000        0.32251000000000
C           55.77879799999999       -2.45972300000000        0.11852500000000
N           53.79141400000000       -1.42536900000000        0.40472900000000
C           55.11656500000000       -1.17236100000000        0.17139000000000
C           55.78027700000000        0.00073200000000        0.00082400000000
C           54.98315800000000        1.36721000000000        0.06983600000000
C           55.47615799999999        2.59058100000000        0.47342900000000
C           54.43832100000000        3.54260700000000        0.30385700000000
C           53.34224900000000        2.86829800000000       -0.19095700000000
N           53.66065400000000        1.53525900000000       -0.25760300000000
C           51.95706499999999        3.50527900000000       -0.61105200000000
C           51.96882600000000        4.89883300000000       -1.10434200000000
C           51.57289300000000        5.94807600000000       -0.27713400000000
C           51.61584100000000        7.23455800000000       -0.78559500000000
N           52.02181199999999        7.54460700000000       -2.03870000000000
C           52.40069600000000        6.50146800000000       -2.81405800000000
C           52.39462999999999        5.18060300000000       -2.40040200000000
C           50.82038699999999        2.76371200000000       -0.55561100000000
C           49.53422100000000        3.28226600000000       -0.97371600000000
C           48.62495600000000        2.32796900000000       -0.80752400000000
C           49.28608200000000        1.15302000000000       -0.27679700000000
N           50.61068200000000        1.47470300000000       -0.15268700000000
H           47.91395000000000       -2.29238600000000        1.77427300000000
H           49.89825800000000       -4.09950700000000        2.15465400000000
H           51.40270800000000       -0.89280500000000       -0.11312300000000
H           53.20767700000000       -5.03577200000000        2.83655400000000
H           53.13416099999999       -7.53469900000000        2.89323400000000
H           51.65544700000000       -7.72138500000000       -0.95051300000000
H           51.66502000000000       -5.23117300000000       -1.16803800000000
H           55.06740100000000       -4.46480800000000        0.32987100000000
H           56.82380400000000       -2.63799100000000       -0.05784000000000
H           56.47584500000000        2.78261700000000        0.83107100000000
H           54.49107599999999        4.60219500000000        0.50337000000000
H           53.00663900000000        0.78617100000000       -0.46479100000000
H           51.23808799999999        5.74959200000000        0.73512900000000
H           51.31375500000000        8.07829900000000       -0.17413000000000
H           52.72276300000000        6.76182300000000       -3.81652100000000
H           52.70883200000000        4.37955400000000       -3.06055800000000
H           49.33797999999999        4.26609200000000       -1.36141300000000
H           47.57986999999999        2.42872700000000       -1.03678300000000
C           64.10398100000000        0.00073200000000        0.00082400000000
C           64.89976200000000       -1.24476700000000        0.57193600000000
C           64.39936700000000       -2.24012600000000        1.38445500000000
C           65.43756800000000       -3.18596900000000        1.58520000000000
C           66.54105199999999       -2.73526600000000        0.89162200000000
N           66.22582600000000       -1.51770100000000        0.34431000000000
C           67.92962300000001       -3.48076800000000        0.74563600000000
C           67.92226799999999       -4.95744300000000        0.82373700000000
C           68.33991899999999       -5.60833100000000        1.98388300000000
C           68.29862500000000       -6.99173000000000        2.00981300000000
N           67.87411200000000       -7.76001300000000        0.97921300000000
C           67.47472999999999       -7.09509900000000       -0.13070800000000
C           67.47805600000000       -5.71628300000000       -0.25660600000000
C           69.06520900000000       -2.77147300000000        0.51640800000000
C           70.35222500000000       -3.40755800000000        0.32251000000000
C           71.26080899999999       -2.45972300000000        0.11852500000000
N           69.27342499999999       -1.42536900000000        0.40472900000000
C           70.59857599999999       -1.17236100000000        0.17139000000000
C           71.26228800000000        0.00073200000000        0.00082400000000
C           70.46516900000000        1.36721000000000        0.06983600000000
C           70.95816900000000        2.59058100000000        0.47342900000000
C           69.92033200000000        3.54260700000000        0.30385700000000
C           68.82426000000000        2.86829800000000       -0.19095700000000
N           69.14266499999999        1.53525900000000       -0.25760300000000
C           67.43907600000000        3.50527900000000       -0.61105200000000
C           67.45083700000001        4.89883300000000       -1.10434200000000
C           67.05490399999999        5.94807600000000       -0.27713400000000
C           67.09785200000000        7.23455800000000       -0.78559500000000
N           67.50382300000000        7.54460700000000       -2.03870000000000
C           67.88270600000000        6.50146800000000       -2.81405800000000
C           67.87664099999999        5.18060300000000       -2.40040200000000
C           66.30239800000000        2.76371200000000       -0.55561100000000
C           65.01623200000000        3.28226600000000       -0.97371600000000
C           64.10696700000000        2.32796900000000       -0.80752400000000
C           64.76809299999999        1.15302000000000       -0.27679700000000
N           66.09269300000000        1.47470300000000       -0.15268700000000
H           63.39596099999999       -2.29238600000000        1.77427300000000
H           65.38026800000000       -4.09950700000000        2.15465400000000
H           66.88471900000000       -0.89280500000000       -0.11312300000000
H           68.68968799999999       -5.03577200000000        2.83655400000000
H           68.61617199999999       -7.53469900000000        2.89323400000000
H           67.13745800000000       -7.72138500000000       -0.95051300000000
H           67.14703100000000       -5.23117300000000       -1.16803800000000
H           70.54941200000000       -4.46480800000000        0.32987100000000
H           72.30581500000000       -2.63799100000000       -0.05784000000000
H           71.95785600000001        2.78261700000000        0.83107100000000
H           69.97308699999999        4.60219500000000        0.50337000000000
H           68.48865000000001        0.78617100000000       -0.46479100000000
H           66.72009900000000        5.74959200000000        0.73512900000000
H           66.79576600000000        8.07829900000000       -0.17413000000000
H           68.20477400000000        6.76182300000000       -3.81652100000000
H           68.19084300000000        4.37955400000000       -3.06055800000000
H           64.81999100000000        4.26609200000000       -1.36141300000000
H           63.06188100000000        2.42872700000000       -1.03678300000000
236
 energy: -406.496199001785 gnorm: 1.030356238652 xtb: 6.5.1 (b24c23e)
C           31.87306455554728       -0.00711793918375       -0.01370589333914
C           32.59312315352632        1.35089265118248        0.08080959042793
C           31.98914520665893        2.59579080149056        0.06375455710986
C           33.00814609001144        3.56140021328957        0.23554060702192
C           34.21505363419455        2.88654760283342        0.36235521666988
N           33.94850332507806        1.54500973443469        0.21216696294007
C           35.61969612594925        3.51595445910554        0.65108726125025
C           35.66513775268473        4.93397271587606        1.08493040269994
C           35.95332680308563        5.94737545889575        0.17192787360315
C           35.96466752579622        7.25576996782260        0.62649263502646
N           35.71079704986557        7.61572220618935        1.90263848026838
C           35.43702343324399        6.61251706059365        2.76387173217148
C           35.40128832943531        5.27353282584919        2.41077942673691
C           36.76281216896744        2.77061119232499        0.55408128692493
C           38.06516388173547        3.31169073538464        0.88556137545815
C           38.96989198444671        2.35066902352868        0.71937871276687
N           36.95516890993621        1.46693400735814        0.18258606271006
C           38.29067888628855        1.15451673700495        0.26273821211186
C           38.95703640982251       -0.00871828025755       -0.00470773155832
C           38.18226447996370       -1.27270578532332       -0.52224506692672
C           38.71140327327448       -2.31495652594484       -1.26956105700544
C           37.68869944013703       -3.26951639061510       -1.46956759261388
C           36.54528411362136       -2.79237987850960       -0.84985239835303
N           36.84633109177717       -1.55325367161039       -0.32580867298833
C           35.15546489192004       -3.51338658927845       -0.77344618854674
C           35.12279764145158       -4.98762721751665       -0.91786658185569
C           35.51843134337115       -5.80477702710142        0.13948073720446
C           35.49270305601424       -7.17727612259981       -0.04703579410429
N           35.10893211939183       -7.77903654086512       -1.19321400247528
C           34.73132799597595       -6.96227080945915       -2.19940610635416
C           34.72197183389655       -5.57970450659655       -2.11499493412698
C           34.01776928376331       -2.78976702599936       -0.55714221318567
C           32.70025880896453       -3.39331071755371       -0.45919512973663
C           31.81247551706446       -2.42080979697779       -0.26128169144910
C           32.53458070216490       -1.17255688909149       -0.21370109189124
N           33.85556782109591       -1.44384142629976       -0.38772317734453
H           30.79221122690328       -0.03007453725472        0.10519297665611
H           30.93013986860298        2.77519437247133       -0.04475163141607
H           32.88142620497417        4.63247725891886        0.28730540580701
H           34.64837986230202        0.80778638472774        0.20313480598465
H           36.16550721753321        5.70449927460693       -0.86422220205065
H           36.18735411545628        8.07096076436644       -0.05476560826312
H           35.23774243080916        6.91480230463126        3.78722497292527
H           35.17676044996210        4.50063925472849        3.13869776991912
H           38.27792635918986        4.30911214974522        1.22211641280472
H           40.02219890189540        2.46496836312237        0.89662596136530
H           39.73030038428182       -2.37980707800920       -1.62043647686544
H           37.76923620134088       -4.20607113009740       -2.00117297064665
H           36.16669967421038       -0.92240545881177        0.08972799036042
H           35.83572091780671       -5.36687552339286        1.08031502056052
H           35.79342274949646       -7.84467800736434        0.75453732686307
H           34.42308407026784       -7.45785871872443       -3.11459915613920
H           34.40942433676835       -4.96233936371586       -2.95102243579831
H           32.47239356029900       -4.44005872037871       -0.52863369518442
H           30.75151570842198       -2.53832634735649       -0.14535167121801
C           88.01279296382749        0.01021406373934       -0.00950246302466
C           87.29273296700117       -1.24028552784490       -0.54746443297162
C           87.89671185195226       -2.33911589224413       -1.13279199808657
C           86.87770548059079       -3.27617850553908       -1.42233873523483
C           85.67080977557434       -2.73435022935926       -1.00052164106190
N           85.93735327383895       -1.47300412387980       -0.51959785192234
C           84.26615097787440       -3.42610038868960       -1.03212271451170
C           84.22071797500953       -4.88534951686366       -1.29592152675010
C           83.93252934989818       -5.36805396967030       -2.57167908314791
C           83.92118956543909       -6.73934144792198       -2.76684605424582
N           84.17505874561292       -7.64380533491934       -1.79727843198825
C           84.44883279919623       -7.14645583902991       -0.57221053066339
C           84.48456846734371       -5.79444946097604       -0.27282921336912
C           83.12304740626256       -2.71910637621116       -0.77698932036599
C           81.82069415618078       -3.35191246897380       -0.73013596665817
C           80.91596259668212       -2.42150095263367       -0.43770797244254
N           82.93067415670006       -1.39003829499823       -0.51013472594973
C           81.59517049474024       -1.14904489558577       -0.29579425032273
C           80.92876422923801        0.00753993969446       -0.00071388639991
C           81.70359456735362        1.36818532331153        0.11806668777505
C           81.17445354545134        2.63694486400164       -0.06889407037090
C           82.19716453473454        3.57711068662675        0.19050685187012
C           83.34056586963599        2.86912963945588        0.52286784378718
N           83.03952282239203        1.52758806678377        0.42118669404385
C           84.73039598634108        3.47507052978221        0.92101798841476
C           84.76305861102911        4.85173986070738        1.46784648229265
C           84.36742550840404        5.09387366271618        2.78203252459057
C           84.39315362345343        6.39938118839603        3.24484114274797
N           84.77692529257038        7.45927305661300        2.50155790109703
C           85.15452785470269        7.19405083078879        1.23302050408946
C           85.16388422632183        5.92635950246426        0.67483370606512
C           85.86808513919718        2.73274266082915        0.78187823336386
C           87.18559830661233        3.22440005276585        1.14537378863220
C           88.07338126744826        2.26925033843275        0.87589828903750
C           87.35127712337827        1.13782468558844        0.34648773516219
N           86.03028790853143        1.45868486698443        0.31604128717267
H           89.09364495034869       -0.02383942544615        0.10670461777196
H           88.95571629414481       -2.44890489307240       -1.31141721332568
H           87.00442959421501       -4.25201938059423       -1.86688278351095
H           85.23747633467895       -0.81351291072136       -0.18997465437166
H           83.72034876911300       -4.67758620717993       -3.38152509509000
H           83.69850186598289       -7.15198681337408       -3.74581229625287
H           84.64811357094923       -7.88387403146025        0.19904979152757
H           84.70909556328122       -5.44077594054733        0.72824259453762
H           81.60792938232230       -4.39271321482844       -0.88778043544884
H           79.86365775792848       -2.60428809830051       -0.33249698634796
H           80.15555598761635        2.85530088122423       -0.35109968204014
H           82.11661987893372        4.65313754876266        0.14688472858229
H           83.71915631028170        0.77648119212988        0.50165017997137
H           84.05013505483214        4.27369427088886        3.41782568909516
H           84.09243323482688        6.62554198244842        4.26307313493079
H           85.46277188086661        8.05376758209451        0.64644250476613
H           85.47643167637563        5.76045785580284       -0.35110827877821
H           87.41346352623243        4.18670891044055        1.56306432323508
H           89.13434054027083        2.32062018068685        1.03277827996204
C           45.06953733518560       -0.00014476510063        0.00790728090372
C           43.84828638277818       -0.01357745656866       -0.00051546596751
C           42.43589489031266       -0.00499206008173       -0.01227777117474
C           41.21342619697469        0.00233288615108       -0.00169305539519
C           46.44247680220629       -0.00762879925139        0.00864394718947
C           47.58111135660412       -0.00343987423393       -0.00160531100136
C           60.55640501401754       -0.00017489931257        0.00790868666613
C           59.32788453027722       -0.01372193009355       -0.00043707216286
C           57.95949428780187       -0.00479910473515       -0.01290246156957
C           56.82042449200839        0.00875212428102       -0.00378000717292
C           61.92166503005430       -0.00759679880811        0.00857452240471
C           63.06403387248317       -0.00342176790737       -0.00158489456727
C           76.03605584479845       -0.00038548402103        0.00800061511921
C           74.81481189434477       -0.01375962482522       -0.00047257272413
C           73.43867641287618       -0.00472503653941       -0.01289515617089
C           72.30336777889180        0.00874912253407       -0.00375012094356
C           77.44534270372401       -0.00678887994218        0.00851391866601
C           78.67349719234579        0.00263934193470       -0.00155996527878
C           48.75272995776252       -0.00564814720534        0.00500483047603
C           49.42510923909164       -1.24449392950055        0.57244674566229
C           48.91788511558973       -2.24108862741437        1.38405487097245
C           49.95438694739391       -3.18567349829646        1.58452679848008
C           51.06504562631391       -2.73817728705361        0.89139232412850
N           50.74497025344127       -1.51890006399149        0.34382506885026
C           52.44027621699464       -3.47535441256083        0.74605195335607
C           52.43952494405049       -4.95565881665443        0.82416764211653
C           52.85781374626268       -5.60866135523885        1.98317073144517
C           52.81612360011196       -6.99316707093835        2.00859393157602
N           52.39214131033843       -7.75630121269653        0.97898221103797
C           51.99323487678637       -7.09643907453271       -0.12938651716483
C           51.99613057942778       -5.71661239995832       -0.25582980557202
C           53.58456858416023       -2.77243170683551        0.51604601811915
C           54.87021832846215       -3.41033337021528        0.32273496188695
C           55.78053193558834       -2.45911105845545        0.11821279725749
N           53.78959436018846       -1.42355231467146        0.40461444829715
C           55.09518020073470       -1.18514211817574        0.17333377239348