      -----------------------------------------------------------      
     |                   =====================                   |     
     |                           x T B                           |     
     |                   =====================                   |     
     |                         S. Grimme                         |     
     |          Mulliken Center for Theoretical Chemistry        |     
     |                    University of Bonn                     |     
      -----------------------------------------------------------      

   * xtb version 6.5.1 (b24c23e) compiled by 'conda@728c89f4b128' on 2022-07-12

   xtb is free software: you can redistribute it and/or modify it under
   the terms of the GNU Lesser General Public License as published by
   the Free Software Foundation, either version 3 of the License, or
   (at your option) any later version.
   
   xtb is distributed in the hope that it will be useful,
   but WITHOUT ANY WARRANTY; without even the implied warranty of
   MERCHANTABILITY or FITNESS FOR A PARTICULAR PURPOSE.  See the
   GNU Lesser General Public License for more details.
   
   Cite this work as:
   * C. Bannwarth, E. Caldeweyher, S. Ehlert, A. Hansen, P. Pracht,
     J. Seibert, S. Spicher, S. Grimme, WIREs Comput. Mol. Sci., 2020, 11,
     e01493. DOI: 10.1002/wcms.1493
   
   for GFN2-xTB:
   * C. Bannwarth, S. Ehlert and S. Grimme., J. Chem. Theory Comput., 2019,
     15, 1652-1671. DOI: 10.1021/acs.jctc.8b01176
   for GFN1-xTB:
   * S. Grimme, C. Bannwarth, P. Shushkov, J. Chem. Theory Comput., 2017,
     13, 1989-2009. DOI: 10.1021/acs.jctc.7b00118
   for GFN0-xTB:
   * P. Pracht, E. Caldeweyher, S. Ehlert, S. Grimme, ChemRxiv, 2019, preprint.
     DOI: 10.26434/chemrxiv.8326202.v1
   for GFN-FF:
   * S. Spicher and S. Grimme, Angew. Chem. Int. Ed., 2020, 59, 15665-15673.
     DOI: 10.1002/anie.202004239
   
   for ALPB and GBSA implicit solvation:
   * S. Ehlert, M. Stahn, S. Spicher, S. Grimme, J. Chem. Theory Comput.,
     2021, 17, 4250-4261. DOI: 10.1021/acs.jctc.1c00471
   
   for DFT-D4:
   * E. Caldeweyher, C. Bannwarth and S. Grimme, J. Chem. Phys., 2017,
     147, 034112. DOI: 10.1063/1.4993215
   * E. Caldeweyher, S. Ehlert, A. Hansen, H. Neugebauer, S. Spicher,
     C. Bannwarth and S. Grimme, J. Chem. Phys., 2019, 150, 154122.
     DOI: 10.1063/1.5090222
   * E. Caldeweyher, J.-M. Mewes, S. Ehlert and S. Grimme, Phys. Chem. Chem. Phys.
     2020, 22, 8499-8512. DOI: 10.1039/D0CP00502A
   
   for sTDA-xTB:
   * S. Grimme and C. Bannwarth, J. Chem. Phys., 2016, 145, 054103.
     DOI: 10.1063/1.4959605
   
   in the mass-spec context:
   * V. Asgeirsson, C. Bauer and S. Grimme, Chem. Sci., 2017, 8, 4879.
     DOI: 10.1039/c7sc00601b
   * J. Koopman and S. Grimme, ACS Omega 2019, 4, 12, 15120-15133.
     DOI: 10.1021/acsomega.9b02011
   
   for metadynamics refer to:
   * S. Grimme, J. Chem. Theory Comput., 2019, 155, 2847-2862
     DOI: 10.1021/acs.jctc.9b00143
   
   for SPH calculations refer to:
   * S. Spicher and S. Grimme, J. Chem. Theory Comput., 2021, 17, 1701-1714
     DOI: 10.1021/acs.jctc.0c01306
   
   with help from (in alphabetical order)
   P. Atkinson, C. Bannwarth, F. Bohle, G. Brandenburg, E. Caldeweyher
   M. Checinski, S. Dohm, S. Ehlert, S. Ehrlich, I. Gerasimov, C. Hölzer
   A. Katbashev, J. Koopman, C. Lavigne, S. Lehtola, F. März, M. Müller,
   F. Musil, H. Neugebauer, J. Pisarek, C. Plett, P. Pracht, F. Pultar,
   J. Seibert, P. Shushkov, S. Spicher, M. Stahn, M. Steiner, T. Strunk,
   J. Stückrath, T. Rose, and J. Unsleber
   
 * started run on 2022/07/26 at 13:19:19.185     

           -------------------------------------------------
          |                Calculation Setup                |
           -------------------------------------------------

          program call               : xtb H_C2_5.xyz --gfn 1 --opt -T 48
          hostname                   : cx3-6-14.cx3.hpc.ic.ac.uk
          coordinate file            : H_C2_5.xyz
          omp threads                :                     1

   ID    Z sym.   atoms
    1    6 C      1-5, 7-10, 12-17, 19-23, 38-42, 44-47, 49-54, 56-60, 75-87,
                  89-92, 94-99, 101-105, 119-123, 125-128, 130-135, 137-141,
                  155-159, 161-164, 166-171, 173-177
    2    7 N      6, 11, 18, 24, 43, 48, 55, 61, 88, 93, 100, 106, 124, 129,
                  136, 142, 160, 165, 172, 178
    3    1 H      25-37, 62-74, 107-118, 143-154, 179-190

molecular fragmentation (1/2 indicates fragments):
111111111111111111111111111111111111122222222222222222222222222222222222
222222222222222222222222222222222222222222222222222222222222222222222222
2222222222222222222222222222222222222222222222
# atoms in fragment 1/2:    37   153
 fragment masses (1/2) :      309.34     1330.44
CMA distance (Bohr)    :  56.296
constraining FC (au)   :  0.0500
########################################################################
[WARNING] Please study the warnings concerning your input carefully
-1- prog_main_parseArguments: Unknown option '-T' provided
########################################################################

           -------------------------------------------------
          |                 G F N 1 - x T B                 |
           -------------------------------------------------

        Reference                      10.1021/acs.jctc.7b00118
      * Hamiltonian:
        H0-scaling (s, p, d)           1.850000    2.250000    2.000000
        zeta-weighting                 0.000000
      * Dispersion:
        s8                             2.400000
        a1                             0.630000
        a2                             5.000000
        s9                             0.000000
      * Repulsion:
        kExp                           1.500000
        rExp                           1.000000
      * Coulomb:
        alpha                          2.000000
        third order                    atomic
        anisotropic                    false
      * Halogen bond correction:
        rad-scale                      1.300000
        damping                        0.440000


          ...................................................
          :                      SETUP                      :
          :.................................................:
          :  # basis functions                 636          :
          :  # atomic orbitals                 636          :
          :  # shells                          380          :
          :  # electrons                       594          :
          :  # halogen bonds                     0          :
          :  max. iterations                   250          :
          :  Hamiltonian                  GFN1-xTB          :
          :  restarted?                      false          :
          :  GBSA solvation                  false          :
          :  PC potential                    false          :
          :  electronic temp.          300.0000000     K    :
          :  accuracy                    1.0000000          :
          :  -> integral cutoff          0.2500000E+02      :
          :  -> integral neglect         0.1000000E-07      :
          :  -> SCF convergence          0.1000000E-05 Eh   :
          :  -> wf. convergence          0.2000000E-04 e    :
          :  Broyden damping             0.4000000          :
          ...................................................

 iter      E             dE          RMSdq      gap      omega  full diag
   1   -328.7756712 -0.328776E+03  0.102E+01    0.00       0.0  T
   2   -322.8209906  0.595468E+01  0.676E+00    0.10       1.0  T
   3    465.5021680  0.788323E+03  0.148E+01    0.02       1.0  T
   4    635.6867918  0.170185E+03  0.158E+01    0.05       1.0  T
   5   -298.5693564 -0.934256E+03  0.577E+00    0.02       1.0  T
   6   -324.9094933 -0.263401E+02  0.277E+00    0.04       1.0  T
   7   -325.4698284 -0.560335E+00  0.189E+00    0.09       1.0  T
   8   -315.1944610  0.102754E+02  0.281E+00    0.17       1.0  T
   9   -327.6453211 -0.124509E+02  0.142E+00    0.04       1.0  T
  10   -327.1499815  0.495340E+00  0.126E+00    0.05       1.0  T
  11   -328.0834724 -0.933491E+00  0.904E-01    0.01       1.0  T
  12   -328.5746619 -0.491190E+00  0.840E-01    0.00       1.0  T
  13   -329.0715631 -0.496901E+00  0.660E-01    0.02       1.0  T
  14   -329.2228165 -0.151253E+00  0.639E-01    0.03       1.0  T
  15   -329.2381447 -0.153282E-01  0.669E-01    0.01       1.0  T
  16   -329.1389140  0.992307E-01  0.801E-01    0.01       1.0  T
  17   -329.1429703 -0.405632E-02  0.796E-01    0.01       1.0  T
  18   -329.3646912 -0.221721E+00  0.404E-01    0.08       1.0  T
  19   -329.2321272  0.132564E+00  0.618E-01    0.04       1.0  T
  20   -329.3758294 -0.143702E+00  0.372E-01    0.00       1.0  T
  21   -329.2284652  0.147364E+00  0.522E-01    0.08       1.0  T
  22   -329.4625948 -0.234130E+00  0.146E-01    0.06       1.0  T
  23   -329.3403261  0.122269E+00  0.356E-01    0.02       1.0  T
  24   -329.4131485 -0.728224E-01  0.233E-01    0.02       1.0  T
  25   -329.4537153 -0.405668E-01  0.143E-01    0.04       1.0  T
  26   -329.4576939 -0.397855E-02  0.126E-01    0.05       1.0  T
  27   -329.4681857 -0.104919E-01  0.724E-02    0.06       1.0  T
  28   -329.4685734 -0.387681E-03  0.662E-02    0.05       1.0  T
  29   -329.4704755 -0.190212E-02  0.534E-02    0.05       1.0  T
  30   -329.4643543  0.612121E-02  0.888E-02    0.05       1.0  T
  31   -329.4661700 -0.181566E-02  0.793E-02    0.05       1.0  T
  32   -329.4693805 -0.321053E-02  0.561E-02    0.06       1.0  T
  33   -329.4704907 -0.111016E-02  0.419E-02    0.06       1.0  T
  34   -329.4715695 -0.107886E-02  0.274E-02    0.06       1.0  T
  35   -329.4720177 -0.448173E-03  0.113E-02    0.06       1.0  T
  36   -329.4720928 -0.750441E-04  0.581E-03    0.06       1.2  T
  37   -329.4721054 -0.126535E-04  0.372E-03    0.06       2.0  T
  38   -329.4720984  0.698880E-05  0.494E-03    0.06       1.5  T
  39   -329.4721161 -0.177068E-04  0.212E-03    0.06       3.4  T
  40   -329.4721177 -0.158100E-05  0.153E-03    0.06       4.7  T
  41   -329.4721168  0.932330E-06  0.168E-03    0.06       4.3  T
  42   -329.4721190 -0.225769E-05  0.534E-04    0.06      13.6  T
  43   -329.4721192 -0.144117E-06  0.336E-04    0.06      21.6  T
  44   -329.4721192 -0.427070E-07  0.219E-04    0.06      33.2  T
  45   -329.4721191  0.803716E-07  0.351E-04    0.06      20.6  T
  46   -329.4721192 -0.688086E-07  0.209E-04    0.06      34.8  T
  47   -329.4721192 -0.215675E-07  0.145E-04    0.06      49.9  T
  48   -329.4721192 -0.124750E-07  0.871E-05    0.06      83.3  T

   *** convergence criteria satisfied after 48 iterations ***

         #    Occupation            Energy/Eh            Energy/eV
      -------------------------------------------------------------
         1        2.0000           -0.8054903             -21.9185
       ...           ...                  ...                  ...
       291        2.0000           -0.4062196             -11.0538
       292        2.0000           -0.4062171             -11.0537
       293        2.0000           -0.3962526             -10.7826
       294        1.9999           -0.3867303             -10.5235
       295        1.9515           -0.3805475             -10.3552
       296        1.9496           -0.3805115             -10.3542
       297        1.4163           -0.3778801             -10.2826 (HOMO)
       298        0.3415           -0.3755364             -10.2189 (LUMO)
       299        0.3412           -0.3755354             -10.2188
       300        0.0000           -0.3656055              -9.9486
       301                         -0.3570018              -9.7145
       302                         -0.3530454              -9.6069
       ...                                ...                  ...
       636                          1.2621687              34.3454
      -------------------------------------------------------------
                  HL-Gap            0.0023437 Eh            0.0638 eV
             Fermi-level           -0.3770379 Eh          -10.2597 eV

 SCC (total)                   0 d,  0 h,  0 min,  5.147 sec
 SCC setup                      ...        0 min,  0.011 sec (  0.211%)
 Dispersion                     ...        0 min,  0.007 sec (  0.127%)
 classical contributions        ...        0 min,  0.002 sec (  0.038%)
 integral evaluation            ...        0 min,  0.178 sec (  3.468%)
 iterations                     ...        0 min,  4.568 sec ( 88.744%)
 molecular gradient             ...        0 min,  0.354 sec (  6.881%)
 printout                       ...        0 min,  0.027 sec (  0.530%)

         :::::::::::::::::::::::::::::::::::::::::::::::::::::
         ::                     SUMMARY                     ::
         :::::::::::::::::::::::::::::::::::::::::::::::::::::
         :: total energy            -324.358127678453 Eh    ::
         :: gradient norm              0.599520783900 Eh/a0 ::
         :: HOMO-LUMO gap              0.063775801107 eV    ::
         ::.................................................::
         :: SCC energy              -329.472119247370 Eh    ::
         :: -> electrostatic           0.286079106386 Eh    ::
         :: repulsion energy           5.266147824901 Eh    ::
         :: dispersion energy         -0.152156255985 Eh    ::
         :: halogen bond corr.         0.000000000000 Eh    ::
         :: add. restraining           0.000000000000 Eh    ::
         :: total charge               0.000000000001 e     ::
         :::::::::::::::::::::::::::::::::::::::::::::::::::::

      ----------------------------------------------------------- 
     |                   =====================                   |
     |                        A N C O P T                        |
     |                   =====================                   |
     |               Approximate Normal Coordinate               |
     |                Rational Function Optimizer                |
      ----------------------------------------------------------- 

          ...................................................
          :                      SETUP                      :
          :.................................................:
          :   optimization level            normal          :
          :   max. optcycles                   570          :
          :   ANC micro-cycles                  20          :
          :   degrees of freedom               564          :
          :.................................................:
          :   RF solver                   davidson          :
          :   write xtbopt.log                true          :
          :   linear?                        false          :
          :   energy convergence         0.5000000E-05 Eh   :
          :   grad. convergence          0.1000000E-02 Eh/α :
          :   maximium RF displ.         1.0000000          :
          :   Hlow (freq-cutoff)         0.1000000E-01      :
          :   Hmax (freq-cutoff)         5.0000000          :
          :   S6 in model hess.         20.0000000          :
          ...................................................

generating ANC from model Hessian ...
Using Lindh-Hessian (1995)
 Shifting diagonal of input Hessian by    1.0043550016447047E-002
 Lowest  eigenvalues of input Hessian
    0.010000    0.010001    0.010007    0.010024    0.010027    0.010031
    0.010037    0.010039    0.000000    0.000000    0.000000    0.000000
    0.000000    0.000000    0.010045    0.010046    0.010048    0.010056
 Highest eigenvalues
    2.146451    2.146451    2.275801    2.275802    2.514411    2.514416


........................................................................
.............................. CYCLE    1 ..............................
........................................................................
   1   -329.4721193 -0.329472E+03  0.427E-05    0.06       0.0  T
   2   -329.4721176  0.163310E-05  0.120E-03    0.06       6.1  T
   3   -329.4721192 -0.161432E-05  0.136E-04    0.06      53.4  T
   4   -329.4721192 -0.156033E-07  0.661E-05    0.06     109.8  T
   5   -329.4721193 -0.234280E-08  0.477E-05    0.06     151.9  T
     SCC iter.                  ...        0 min,  0.477 sec
     gradient                   ...        0 min,  0.350 sec
 * total energy  :  -324.3581277 Eh     change       -0.4473065E-08 Eh
   gradient norm :     0.5995213 Eh/α   predicted     0.0000000E+00 (-100.00%)
   displ. norm   :     0.5065604 α      lambda       -0.2431789E+00
   maximum displ.:     0.1068590 α      in ANC's #164, #433, #503, ...

........................................................................
.............................. CYCLE    2 ..............................
........................................................................
   1   -329.4881867 -0.329488E+03  0.149E-01    0.09       0.0  T
   2   -329.2262220  0.261965E+00  0.695E-01    0.00       1.0  T
   3   -329.4597991 -0.233577E+00  0.228E-01    0.18       1.0  T
   4   -329.4515147  0.828440E-02  0.241E-01    0.00       1.0  T
   5   -329.4953733 -0.438587E-01  0.704E-02    0.08       1.0  T
   6   -329.4025519  0.928215E-01  0.309E-01    0.00       1.0  T
   7   -329.4955615 -0.930096E-01  0.662E-02    0.06       1.0  T
   8   -329.4990924 -0.353089E-02  0.272E-02    0.07       1.0  T
   9   -329.4995970 -0.504655E-03  0.174E-02    0.07       1.0  T
  10   -329.4988347  0.762307E-03  0.286E-02    0.06       1.0  T
  11   -329.4994769 -0.642209E-03  0.167E-02    0.06       1.0  T
  12   -329.4997471 -0.270182E-03  0.331E-03    0.07       2.2  T
  13   -329.4997426  0.452111E-05  0.387E-03    0.07       1.9  T
  14   -329.4997541 -0.115275E-04  0.146E-03    0.07       5.0  T
  15   -329.4997558 -0.164245E-05  0.792E-04    0.07       9.2  T
  16   -329.4997562 -0.447539E-06  0.449E-04    0.07      16.1  T
  17   -329.4997563 -0.121660E-06  0.259E-04    0.07      28.1  T
  18   -329.4997564 -0.439576E-07  0.108E-04    0.07      67.4  T
  19   -329.4997564 -0.868522E-08  0.489E-05    0.07     148.2  T
     SCC iter.                  ...        0 min,  1.782 sec
     gradient                   ...        0 min,  0.352 sec
 * total energy  :  -324.5603547 Eh     change       -0.2022270E+00 Eh
   gradient norm :     0.3827876 Eh/α   predicted    -0.1528193E+00 ( -24.43%)
   displ. norm   :     0.6373708 α      lambda       -0.2069236E+00
   maximum displ.:     0.1521248 α      in ANC's #158, #503, #85, ...

........................................................................
.............................. CYCLE    3 ..............................
........................................................................
   1   -329.5418068 -0.329542E+03  0.285E-01    0.17       0.0  T
   2   -328.7629321  0.778875E+00  0.115E+00    0.09       1.0  T
   3   -329.2705619 -0.507630E+00  0.763E-01    0.37       1.0  T
   4   -329.5605936 -0.290032E+00  0.220E-01    0.03       1.0  T
   5   -329.5822079 -0.216142E-01  0.716E-02    0.11       1.0  T
   6   -329.5737869  0.842092E-02  0.128E-01    0.03       1.0  T
   7   -329.4353168  0.138470E+00  0.399E-01    0.03       1.0  T
   8   -329.5754345 -0.140118E+00  0.135E-01    0.13       1.0  T
   9   -329.5846411 -0.920655E-02  0.564E-02    0.10       1.0  T
  10   -329.5867135 -0.207246E-02  0.234E-02    0.07       1.0  T
  11   -329.5868166 -0.103100E-03  0.234E-02    0.07       1.0  T
  12   -329.5872232 -0.406564E-03  0.634E-03    0.08       1.1  T
  13   -329.5871901  0.330953E-04  0.992E-03    0.08       1.0  T
  14   -329.5872493 -0.591403E-04  0.335E-03    0.08       2.2  T
  15   -329.5872592 -0.994396E-05  0.877E-04    0.08       8.3  T
  16   -329.5872599 -0.689408E-06  0.338E-04    0.08      21.5  T
  17   -329.5872600 -0.928465E-07  0.192E-04    0.08      37.7  T
  18   -329.5872600 -0.110165E-07  0.151E-04    0.08      47.9  T
     SCC iter.                  ...        0 min,  1.695 sec
     gradient                   ...        0 min,  0.354 sec
 * total energy  :  -324.6940795 Eh     change       -0.1337248E+00 Eh
   gradient norm :     0.1057978 Eh/α   predicted    -0.1455131E+00 (   8.82%)
   displ. norm   :     0.6643172 α      lambda       -0.5221868E-01
   maximum displ.:     0.3241476 α      in ANC's #85, #158, #68, ...

........................................................................
.............................. CYCLE    4 ..............................
........................................................................
   1   -329.7150243 -0.329715E+03  0.158E-01    0.13       0.0  T
   2   -329.2320361  0.482988E+00  0.896E-01    0.01       1.0  T
   3   -329.6553023 -0.423266E+00  0.358E-01    0.22       1.0  T
   4   -329.7256065 -0.703042E-01  0.836E-02    0.07       1.0  T
   5   -329.7264464 -0.839809E-03  0.527E-02    0.08       1.0  T
   6   -329.7143049  0.121415E-01  0.125E-01    0.06       1.0  T
   7   -329.7286933 -0.143885E-01  0.186E-02    0.08       1.0  T
   8   -329.7287233 -0.300010E-04  0.169E-02    0.09       1.0  T
   9   -329.7288262 -0.102864E-03  0.135E-02    0.08       1.0  T
  10   -329.7288353 -0.906837E-05  0.128E-02    0.08       1.0  T
  11   -329.7289655 -0.130255E-03  0.693E-04    0.08      10.5  T
  12   -329.7289648  0.742968E-06  0.121E-03    0.08       6.0  T
  13   -329.7289656 -0.837591E-06  0.565E-04    0.08      12.8  T
  14   -329.7289659 -0.287254E-06  0.140E-04    0.08      51.7  T
  15   -329.7289659 -0.176236E-07  0.445E-05    0.08     162.9  T
     SCC iter.                  ...        0 min,  1.420 sec
     gradient                   ...        0 min,  0.353 sec
 * total energy  :  -324.7335375 Eh     change       -0.3945804E-01 Eh
   gradient norm :     0.0639650 Eh/α   predicted    -0.3763188E-01 (  -4.63%)
   displ. norm   :     0.6954237 α      lambda       -0.2972639E-01
   maximum displ.:     0.4181409 α      in ANC's #85, #68, #6, ...

........................................................................
.............................. CYCLE    5 ..............................
........................................................................
   1   -329.8406135 -0.329841E+03  0.868E-02    0.11       0.0  T
   2   -329.5752008  0.265413E+00  0.637E-01    0.00       1.0  T
   3   -329.8314293 -0.256228E+00  0.137E-01    0.15       1.0  T
   4   -329.8445888 -0.131596E-01  0.139E-02    0.09       1.0  T
   5   -329.8442582  0.330591E-03  0.207E-02    0.09       1.0  T
   6   -329.8375777  0.668056E-02  0.864E-02    0.07       1.0  T
   7   -329.8445799 -0.700217E-02  0.819E-03    0.09       1.0  T
   8   -329.8445473  0.325313E-04  0.897E-03    0.09       1.0  T
   9   -329.8445698 -0.224663E-04  0.731E-03    0.09       1.0  T
  10   -329.8446214 -0.516524E-04  0.164E-03    0.09       4.4  T
  11   -329.8446230 -0.156475E-05  0.339E-04    0.09      21.4  T
  12   -329.8446228  0.171061E-06  0.655E-04    0.09      11.1  T
  13   -329.8446230 -0.126906E-06  0.424E-04    0.09      17.1  T
  14   -329.8446231 -0.122760E-06  0.112E-04    0.09      64.5  T
  15   -329.8446231 -0.107313E-07  0.518E-05    0.09     140.2  T
     SCC iter.                  ...        0 min,  1.418 sec
     gradient                   ...        0 min,  0.355 sec
 * total energy  :  -324.7563117 Eh     change       -0.2277418E-01 Eh
   gradient norm :     0.0316262 Eh/α   predicted    -0.2205178E-01 (  -3.17%)
   displ. norm   :     0.7067644 α      lambda       -0.1624197E-01
   maximum displ.:     0.4432345 α      in ANC's #85, #6, #53, ...

........................................................................
.............................. CYCLE    6 ..............................
........................................................................
   1   -329.9164493 -0.329916E+03  0.677E-02    0.13       0.0  T
   2   -329.6111732  0.305276E+00  0.622E-01    0.00       1.0  T
   3   -329.9181246 -0.306951E+00  0.423E-02    0.11       1.0  T
   4   -329.9192934 -0.116881E-02  0.197E-02    0.09       1.0  T
   5   -329.9142825  0.501092E-02  0.752E-02    0.07       1.0  T
   6   -329.9192588 -0.497627E-02  0.205E-02    0.10       1.0  T
   7   -329.9195515 -0.292743E-03  0.121E-02    0.10       1.0  T
   8   -329.9196458 -0.943192E-04  0.215E-03    0.09       3.4  T
   9   -329.9196477 -0.186820E-05  0.106E-03    0.09       6.9  T
  10   -329.9196466  0.108719E-05  0.138E-03    0.09       5.2  T
  11   -329.9196485 -0.193543E-05  0.209E-04    0.09      34.8  T
  12   -329.9196486 -0.214791E-07  0.920E-05    0.09      78.9  T
  13   -329.9196486  0.382312E-08  0.971E-05    0.09      74.7  T
     SCC iter.                  ...        0 min,  1.227 sec
     gradient                   ...        0 min,  0.355 sec
 * total energy  :  -324.7693084 Eh     change       -0.1299674E-01 Eh
   gradient norm :     0.0221664 Eh/α   predicted    -0.1217755E-01 (  -6.30%)
   displ. norm   :     0.7692895 α      lambda       -0.1147005E-01
   maximum displ.:     0.4271634 α      in ANC's #6, #85, #53, ...

........................................................................
.............................. CYCLE    7 ..............................
........................................................................
   1   -329.9544332 -0.329954E+03  0.907E-02    0.17       0.0  T
   2   -329.4712425  0.483191E+00  0.755E-01    0.01       1.0  T
   3   -329.9444161 -0.473174E+00  0.182E-01    0.16       1.0  T
   4   -329.9563578 -0.119417E-01  0.734E-02    0.15       1.0  T
   5   -329.9601775 -0.381978E-02  0.286E-02    0.11       1.0  T
   6   -329.9582937  0.188381E-02  0.499E-02    0.09       1.0  T
   7   -329.9604892 -0.219545E-02  0.130E-02    0.10       1.0  T
   8   -329.9604041  0.850951E-04  0.165E-02    0.09       1.0  T
   9   -329.9605267 -0.122657E-03  0.116E-02    0.10       1.0  T
  10   -329.9606496 -0.122914E-03  0.804E-04    0.10       9.0  T
  11   -329.9606499 -0.260185E-06  0.516E-04    0.10      14.1  T
  12   -329.9606501 -0.177597E-06  0.158E-04    0.10      45.8  T
  13   -329.9606501 -0.770200E-08  0.106E-04    0.10      68.3  T
     SCC iter.                  ...        0 min,  1.221 sec
     gradient                   ...        0 min,  0.354 sec
 * total energy  :  -324.7797138 Eh     change       -0.1040543E-01 Eh
   gradient norm :     0.0248230 Eh/α   predicted    -0.9129058E-02 ( -12.27%)
   displ. norm   :     0.9143177 α      lambda       -0.1275964E-01
   maximum displ.:     0.5597347 α      in ANC's #6, #85, #22, ...

........................................................................
.............................. CYCLE    8 ..............................
........................................................................
   1   -329.9720234 -0.329972E+03  0.108E-01    0.27       0.0  T
   2   -329.6633474  0.308676E+00  0.590E-01    0.00       1.0  T
   3   -329.9597737 -0.296426E+00  0.204E-01    0.29       1.0  T
   4   -329.9742440 -0.144703E-01  0.859E-02    0.24       1.0  T
   5   -329.9780171 -0.377313E-02  0.528E-02    0.18       1.0  T
   6   -329.9796024 -0.158532E-02  0.195E-02    0.12       1.0  T
   7   -329.9774228  0.217959E-02  0.495E-02    0.10       1.0  T
   8   -329.9777640 -0.341156E-03  0.457E-02    0.10       1.0  T
   9   -329.9797592 -0.199524E-02  0.859E-03    0.14       1.0  T
  10   -329.9798142 -0.549346E-04  0.403E-03    0.13       1.8  T
  11   -329.9798103  0.389848E-05  0.426E-03    0.13       1.7  T
  12   -329.9798227 -0.124697E-04  0.202E-03    0.13       3.6  T
  13   -329.9798264 -0.366246E-05  0.431E-04    0.13      16.8  T
  14   -329.9798265 -0.663806E-07  0.290E-04    0.13      25.0  T
  15   -329.9798265 -0.561978E-07  0.124E-04    0.13      58.4  T
  16   -329.9798265 -0.127371E-07  0.315E-05    0.13     230.6  T
     SCC iter.                  ...        0 min,  1.503 sec
     gradient                   ...        0 min,  0.351 sec
 * total energy  :  -324.7932336 Eh     change       -0.1351977E-01 Eh
   gradient norm :     0.0336729 Eh/α   predicted    -0.1171321E-01 ( -13.36%)
   displ. norm   :     0.8792281 α      lambda       -0.1532550E-01
   maximum displ.:     0.5533669 α      in ANC's #6, #22, #53, ...

........................................................................
.............................. CYCLE    9 ..............................
........................................................................
   1   -329.9863125 -0.329986E+03  0.842E-02    0.41       0.0  T
   2   -329.9673310  0.189815E-01  0.189E-01    0.09       1.0  T
   3   -329.9885832 -0.212522E-01  0.556E-02    0.32       1.0  T
   4   -329.9898481 -0.126490E-02  0.303E-02    0.27       1.0  T
   5   -329.9868813  0.296680E-02  0.615E-02    0.13       1.0  T
   6   -329.9902064 -0.332510E-02  0.127E-02    0.20       1.0  T
   7   -329.9901815  0.248613E-04  0.121E-02    0.20       1.0  T
   8   -329.9902797 -0.982198E-04  0.344E-03    0.21       2.1  T
   9   -329.9902880 -0.829591E-05  0.197E-03    0.20       3.7  T
  10   -329.9902881 -0.534357E-07  0.124E-03    0.20       5.8  T
  11   -329.9902891 -0.984642E-06  0.777E-04    0.20       9.3  T
  12   -329.9902895 -0.428093E-06  0.272E-04    0.21      26.7  T
  13   -329.9902895 -0.280501E-07  0.109E-04    0.20      66.6  T
  14   -329.9902895 -0.790476E-08  0.419E-05    0.20     173.1  T
     SCC iter.                  ...        0 min,  1.324 sec
     gradient                   ...        0 min,  0.357 sec
 * total energy  :  -324.8111233 Eh     change       -0.1788972E-01 Eh
   gradient norm :     0.0490782 Eh/α   predicted    -0.1358638E-01 ( -24.05%)
   displ. norm   :     0.8384882 α      lambda       -0.2209244E-01
   maximum displ.:     0.5171722 α      in ANC's #6, #22, #53, ...

........................................................................
.............................. CYCLE   10 ..............................
........................................................................
   1   -329.9902145 -0.329990E+03  0.628E-02    0.66       0.0  T
   2   -329.9892402  0.974319E-03  0.999E-02    0.55       1.0  T
   3   -329.9918858 -0.264568E-02  0.264E-02    0.57       1.0  T
   4   -329.9918511  0.347202E-04  0.174E-02    0.59       1.0  T
   5   -329.9919201 -0.690129E-04  0.851E-03    0.58       1.0  T
   6   -329.9919458 -0.256362E-04  0.134E-03    0.58       5.4  T
   7   -329.9919465 -0.756454E-06  0.431E-04    0.58      16.9  T
   8   -329.9919466 -0.586942E-07  0.179E-04    0.58      40.6  T
   9   -329.9919466 -0.441167E-08  0.104E-04    0.58      70.0  T
     SCC iter.                  ...        0 min,  0.851 sec
     gradient                   ...        0 min,  0.357 sec
 * total energy  :  -324.8369028 Eh     change       -0.2577945E-01 Eh
   gradient norm :     0.0642846 Eh/α   predicted    -0.1881244E-01 ( -27.03%)
   displ. norm   :     0.8221595 α      lambda       -0.3082474E-01
   maximum displ.:     0.4913875 α      in ANC's #6, #22, #53, ...

........................................................................
.............................. CYCLE   11 ..............................
........................................................................
   1   -329.9898713 -0.329990E+03  0.582E-02    0.76       0.0  T
   2   -329.9901437 -0.272468E-03  0.654E-02    0.76       1.0  T
   3   -329.9910707 -0.926949E-03  0.203E-02    0.76       1.0  T
   4   -329.9910249  0.458144E-04  0.108E-02    0.76       1.0  T
   5   -329.9910759 -0.510706E-04  0.696E-03    0.76       1.0  T
   6   -329.9910923 -0.163398E-04  0.906E-04    0.76       8.0  T
   7   -329.9910924 -0.114324E-06  0.558E-04    0.76      13.0  T
   8   -329.9910925 -0.118136E-06  0.286E-04    0.76      25.4  T
   9   -329.9910926 -0.372750E-07  0.123E-04    0.76      58.9  T
  10   -329.9910926 -0.799145E-08  0.431E-05    0.76     168.5  T
     SCC iter.                  ...        0 min,  0.944 sec
     gradient                   ...        0 min,  0.374 sec
 * total energy  :  -324.8713050 Eh     change       -0.3440219E-01 Eh
   gradient norm :     0.0768650 Eh/α   predicted    -0.2583032E-01 ( -24.92%)
   displ. norm   :     0.8227965 α      lambda       -0.3918818E-01
   maximum displ.:     0.4834351 α      in ANC's #6, #22, #53, ...

........................................................................
.............................. CYCLE   12 ..............................
........................................................................
   1   -329.9910591 -0.329991E+03  0.543E-02    0.75       0.0  T
   2   -329.9916123 -0.553189E-03  0.503E-02    0.75       1.0  T
   3   -329.9918995 -0.287191E-03  0.209E-02    0.75       1.0  T
   4   -329.9918493  0.502060E-04  0.936E-03    0.75       1.0  T
   5   -329.9918906 -0.412692E-04  0.562E-03    0.75       1.3  T
   6   -329.9919069 -0.163233E-04  0.115E-03    0.75       6.3  T
   7   -329.9919076 -0.743002E-06  0.604E-04    0.75      12.0  T
   8   -329.9919078 -0.215250E-06  0.266E-04    0.75      27.2  T
   9   -329.9919079 -0.143089E-07  0.113E-04    0.75      64.1  T
  10   -329.9919079 -0.475023E-08  0.502E-05    0.75     144.5  T
     SCC iter.                  ...        0 min,  0.938 sec
     gradient                   ...        0 min,  0.357 sec
 * total energy  :  -324.9127933 Eh     change       -0.4148834E-01 Eh
   gradient norm :     0.0831702 Eh/α   predicted    -0.3285917E-01 ( -20.80%)
   displ. norm   :     0.8316757 α      lambda       -0.4411697E-01
   maximum displ.:     0.4947616 α      in ANC's #6, #22, #53, ...

........................................................................
.............................. CYCLE   13 ..............................
........................................................................
   1   -329.9964979 -0.329996E+03  0.518E-02    0.74       0.0  T
   2   -329.9968590 -0.361106E-03  0.502E-02    0.74       1.0  T
   3   -329.9970471 -0.188094E-03  0.245E-02    0.74       1.0  T
   4   -329.9969422  0.104915E-03  0.154E-02    0.74       1.0  T
   5   -329.9970473 -0.105121E-03  0.336E-03    0.74       2.2  T
   6   -329.9970525 -0.521242E-05  0.152E-03    0.74       4.8  T
   7   -329.9970542 -0.173918E-05  0.580E-04    0.74      12.5  T
   8   -329.9970544 -0.150151E-06  0.203E-04    0.74      35.7  T
   9   -329.9970544 -0.177387E-07  0.102E-04    0.74      71.2  T
  10   -329.9970544 -0.381044E-08  0.368E-05    0.74     197.1  T
     SCC iter.                  ...        0 min,  0.946 sec
     gradient                   ...        0 min,  0.354 sec
 * total energy  :  -324.9567946 Eh     change       -0.4400128E-01 Eh
   gradient norm :     0.0791031 Eh/α   predicted    -0.3731599E-01 ( -15.19%)
   displ. norm   :     0.9258898 α      lambda       -0.5623291E-01
   maximum displ.:     0.4934589 α      in ANC's #6, #22, #53, ...

........................................................................
.............................. CYCLE   14 ..............................
........................................................................
   1   -329.9883154 -0.329988E+03  0.723E-02    0.71       0.0  T
   2   -329.9886829 -0.367474E-03  0.780E-02    0.71       1.0  T
   3   -329.9892328 -0.549930E-03  0.398E-02    0.71       1.0  T
   4   -329.9889043  0.328485E-03  0.279E-02    0.71       1.0  T
   5   -329.9892366 -0.332303E-03  0.442E-03    0.71       1.6  T
   6   -329.9892461 -0.947223E-05  0.143E-03    0.71       5.1  T
   7   -329.9892472 -0.107118E-05  0.705E-04    0.71      10.3  T
   8   -329.9892475 -0.303218E-06  0.245E-04    0.71      29.6  T
   9   -329.9892475 -0.238176E-07  0.101E-04    0.71      71.9  T
  10   -329.9892475 -0.520680E-08  0.330E-05    0.71     219.6  T
     SCC iter.                  ...        0 min,  0.938 sec
     gradient                   ...        0 min,  0.352 sec
 * total energy  :  -324.9956019 Eh     change       -0.3880735E-01 Eh
   gradient norm :     0.0674061 Eh/α   predicted    -0.5221990E-01 (  34.56%)
   displ. norm   :     0.7540069 α      lambda       -0.2804776E-01
   maximum displ.:     0.5162207 α      in ANC's #6, #22, #53, ...

........................................................................
.............................. CYCLE   15 ..............................
........................................................................
   1   -330.0068371 -0.330007E+03  0.190E-02    0.70       0.0  T
   2   -330.0068508 -0.136882E-04  0.149E-02    0.71       1.0  T
   3   -330.0068855 -0.347103E-04  0.647E-03    0.71       1.1  T
   4   -330.0068803  0.521497E-05  0.660E-03    0.71       1.1  T
   5   -330.0069004 -0.201589E-04  0.184E-03    0.71       3.9  T
   6   -330.0069012 -0.777182E-06  0.953E-04    0.71       7.6  T
   7   -330.0069018 -0.565178E-06  0.294E-04    0.71      24.7  T
   8   -330.0069018 -0.298571E-07  0.962E-05    0.71      75.4  T
   9   -330.0069018 -0.423336E-08  0.269E-05    0.71     269.8  T
     SCC iter.                  ...        0 min,  0.844 sec
     gradient                   ...        0 min,  0.356 sec
 * total energy  :  -325.0201622 Eh     change       -0.2456028E-01 Eh
   gradient norm :     0.0552933 Eh/α   predicted    -0.2199682E-01 ( -10.44%)
   displ. norm   :     0.8378986 α      lambda       -0.3241968E-01
   maximum displ.:     0.5165061 α      in ANC's #6, #22, #85, ...

........................................................................
.............................. CYCLE   16 ..............................
........................................................................
   1   -330.0385327 -0.330039E+03  0.324E-02    0.73       0.0  T
   2   -330.0385674 -0.347221E-04  0.321E-02    0.73       1.0  T
   3   -330.0388440 -0.276565E-03  0.143E-02    0.73       1.0  T
   4   -330.0387320  0.111985E-03  0.155E-02    0.73       1.0  T
   5   -330.0388621 -0.130093E-03  0.293E-03    0.73       2.5  T
   6   -330.0388640 -0.191682E-05  0.833E-04    0.73       8.7  T
   7   -330.0388644 -0.357476E-06  0.257E-04    0.73      28.2  T
   8   -330.0388644 -0.216344E-07  0.153E-04    0.73      47.4  T
   9   -330.0388644 -0.104873E-07  0.393E-05    0.73     184.6  T
     SCC iter.                  ...        0 min,  0.850 sec
     gradient                   ...        0 min,  0.358 sec
 * total energy  :  -325.0421137 Eh     change       -0.2195149E-01 Eh
   gradient norm :     0.0659497 Eh/α   predicted    -0.2759036E-01 (  25.69%)
   displ. norm   :     0.8349982 α      lambda       -0.2528676E-01
   maximum displ.:     0.6273935 α      in ANC's #6, #22, #53, ...

........................................................................
.............................. CYCLE   17 ..............................
........................................................................
   1   -330.0668444 -0.330067E+03  0.214E-02    0.71       0.0  T
   2   -330.0668424  0.202759E-05  0.205E-02    0.71       1.0  T
   3   -330.0669116 -0.691644E-04  0.993E-03    0.71       1.0  T
   4   -330.0668524  0.591372E-04  0.104E-02    0.71       1.0  T
   5   -330.0669168 -0.644029E-04  0.186E-03    0.71       3.9  T
   6   -330.0669184 -0.156510E-05  0.555E-04    0.71      13.1  T
   7   -330.0669186 -0.218868E-06  0.150E-04    0.71      48.4  T
   8   -330.0669186 -0.115136E-07  0.543E-05    0.71     133.5  T
     SCC iter.                  ...        0 min,  0.756 sec
     gradient                   ...        0 min,  0.380 sec
 * total energy  :  -325.0630041 Eh     change       -0.2089038E-01 Eh
   gradient norm :     0.0432163 Eh/α   predicted    -0.2145863E-01 (   2.72%)
   displ. norm   :     0.8898686 α      lambda       -0.2178496E-01
   maximum displ.:     0.6689337 α      in ANC's #6, #22, #50, ...

........................................................................
.............................. CYCLE   18 ..............................
........................................................................
   1   -330.0929950 -0.330093E+03  0.271E-02    0.68       0.0  T
   2   -330.0930472 -0.521857E-04  0.235E-02    0.68       1.0  T
   3   -330.0931089 -0.617880E-04  0.110E-02    0.68       1.0  T
   4   -330.0930370  0.719250E-04  0.115E-02    0.68       1.0  T
   5   -330.0931123 -0.753160E-04  0.248E-03    0.68       2.9  T
   6   -330.0931165 -0.420022E-05  0.598E-04    0.68      12.1  T
   7   -330.0931167 -0.184777E-06  0.266E-04    0.68      27.3  T
   8   -330.0931167 -0.311049E-07  0.119E-04    0.68      61.0  T
   9   -330.0931168 -0.655734E-08  0.361E-05    0.68     200.8  T
     SCC iter.                  ...        0 min,  0.847 sec
     gradient                   ...        0 min,  0.358 sec
 * total energy  :  -325.0775289 Eh     change       -0.1452485E-01 Eh
   gradient norm :     0.0554868 Eh/α   predicted    -0.1951786E-01 (  34.38%)
   displ. norm   :     0.7723661 α      lambda       -0.2034225E-01
   maximum displ.:     0.5947023 α      in ANC's #6, #22, #50, ...

........................................................................
.............................. CYCLE   19 ..............................
........................................................................
   1   -330.1320297 -0.330132E+03  0.241E-02    0.69       0.0  T
   2   -330.1320565 -0.267172E-04  0.251E-02    0.69       1.0  T
   3   -330.1321808 -0.124327E-03  0.970E-03    0.69       1.0  T
   4   -330.1321167  0.640782E-04  0.112E-02    0.69       1.0  T
   5   -330.1321832 -0.664543E-04  0.247E-03    0.69       2.9  T
   6   -330.1321850 -0.184892E-05  0.624E-04    0.69      11.6  T
   7   -330.1321853 -0.264047E-06  0.246E-04    0.69      29.5  T
   8   -330.1321853 -0.319197E-07  0.691E-05    0.69     105.0  T
   9   -330.1321853 -0.822467E-09  0.259E-05    0.69     279.7  T
     SCC iter.                  ...        0 min,  0.846 sec
     gradient                   ...        0 min,  0.355 sec
 * total energy  :  -325.0931474 Eh     change       -0.1561842E-01 Eh
   gradient norm :     0.0229584 Eh/α   predicted    -0.1623871E-01 (   3.97%)
   displ. norm   :     0.8578297 α      lambda       -0.1360380E-01
   maximum displ.:     0.7162637 α      in ANC's #6, #22, #85, ...

........................................................................
.............................. CYCLE   20 ..............................
........................................................................
   1   -330.1604046 -0.330160E+03  0.115E-02    0.68       0.0  T
   2   -330.1604073 -0.272411E-05  0.901E-03    0.68       1.0  T
   3   -330.1604171 -0.981768E-05  0.433E-03    0.68       1.7  T
   4   -330.1604135  0.364167E-05  0.449E-03    0.68       1.6  T
   5   -330.1604252 -0.116978E-04  0.666E-04    0.68      10.9  T
   6   -330.1604255 -0.246189E-06  0.244E-04    0.68      29.8  T
   7   -330.1604255 -0.345657E-07  0.683E-05    0.68     106.2  T
   8   -330.1604255 -0.229039E-08  0.257E-05    0.68     282.4  T
     SCC iter.                  ...        0 min,  0.757 sec
     gradient                   ...        0 min,  0.382 sec
 * total energy  :  -325.1053483 Eh     change       -0.1220099E-01 Eh
   gradient norm :     0.0223327 Eh/α   predicted    -0.1180723E-01 (  -3.23%)
   displ. norm   :     0.8798033 α      lambda       -0.1193509E-01
   maximum displ.:     0.7546540 α      in ANC's #6, #22, #53, ...
 * RMSD in coord.:     0.8908183 α      energy gain  -0.7472207E+00 Eh

generating ANC from model Hessian ...
Using Lindh-Hessian (1995)
 Shifting diagonal of input Hessian by    1.0037767037355681E-002
 Lowest  eigenvalues of input Hessian
    0.010000    0.010004    0.000000    0.000000    0.000000    0.000000
    0.000000    0.000000    0.010038    0.010041    0.010045    0.010049
    0.010053    0.010059    0.010062    0.010063    0.010070    0.010073
 Highest eigenvalues
    2.222065    2.222227    2.451943    2.455891    2.522714    2.522741


........................................................................
.............................. CYCLE   21 ..............................
........................................................................
   1   -330.1878618 -0.330188E+03  0.942E-03    0.68       0.0  T
   2   -330.1878675 -0.573549E-05  0.599E-03    0.68       1.2  T
   3   -330.1878716 -0.409842E-05  0.331E-03    0.68       2.2  T
   4   -330.1878714  0.219233E-06  0.248E-03    0.68       2.9  T
   5   -330.1878741 -0.267278E-05  0.697E-04    0.68      10.4  T
   6   -330.1878745 -0.444820E-06  0.253E-04    0.68      28.6  T
   7   -330.1878746 -0.447433E-07  0.705E-05    0.68     102.9  T
   8   -330.1878746 -0.198156E-08  0.285E-05    0.68     254.4  T
     SCC iter.                  ...        0 min,  0.756 sec
     gradient                   ...        0 min,  0.379 sec
 * total energy  :  -325.1162139 Eh     change       -0.1086557E-01 Eh
   gradient norm :     0.0195429 Eh/α   predicted     0.0000000E+00 (-100.00%)
   displ. norm   :     0.5877394 α      lambda       -0.7032630E-02
   maximum displ.:     0.4340408 α      in ANC's #43, #17, #37, ...

........................................................................
.............................. CYCLE   22 ..............................
........................................................................
   1   -330.1975815 -0.330198E+03  0.547E-03    0.68       0.0  T
   2   -330.1975821 -0.599346E-06  0.414E-03    0.68       1.8  T
   3   -330.1975847 -0.265262E-05  0.213E-03    0.68       3.4  T
   4   -330.1975845  0.192999E-06  0.204E-03    0.68       3.6  T
   5   -330.1975868 -0.229763E-05  0.417E-04    0.68      17.4  T
   6   -330.1975869 -0.505363E-07  0.198E-04    0.68      36.7  T
   7   -330.1975869 -0.244685E-07  0.672E-05    0.68     107.9  T
     SCC iter.                  ...        0 min,  0.659 sec
     gradient                   ...        0 min,  0.355 sec
 * total energy  :  -325.1228753 Eh     change       -0.6661370E-02 Eh
   gradient norm :     0.0138319 Eh/α   predicted    -0.4749446E-02 ( -28.70%)
   displ. norm   :     0.8218730 α      lambda       -0.8893043E-02
   maximum displ.:     0.5958816 α      in ANC's #43, #17, #37, ...

........................................................................
.............................. CYCLE   23 ..............................
........................................................................
   1   -330.2124980 -0.330212E+03  0.753E-03    0.68       0.0  T
   2   -330.2125009 -0.284084E-05  0.553E-03    0.68       1.3  T
   3   -330.2125045 -0.358451E-05  0.295E-03    0.68       2.5  T
   4   -330.2125034  0.106480E-05  0.286E-03    0.68       2.5  T
   5   -330.2125080 -0.464303E-05  0.627E-04    0.68      11.6  T
   6   -330.2125081 -0.111441E-06  0.284E-04    0.68      25.5  T
   7   -330.2125082 -0.499753E-07  0.939E-05    0.68      77.3  T
   8   -330.2125082 -0.276088E-08  0.394E-05    0.68     184.1  T
     SCC iter.                  ...        0 min,  0.753 sec
     gradient                   ...        0 min,  0.380 sec
 * total energy  :  -325.1311018 Eh     change       -0.8226478E-02 Eh
   gradient norm :     0.0114002 Eh/α   predicted    -0.7450036E-02 (  -9.44%)
   displ. norm   :     0.8783232 α      lambda       -0.8349009E-02
   maximum displ.:     0.6073091 α      in ANC's #43, #17, #37, ...

........................................................................
.............................. CYCLE   24 ..............................
........................................................................
   1   -330.2322539 -0.330232E+03  0.775E-03    0.68       0.0  T
   2   -330.2322578 -0.387529E-05  0.534E-03    0.68       1.4  T
   3   -330.2322602 -0.242274E-05  0.300E-03    0.68       2.4  T
   4   -330.2322609 -0.768339E-06  0.275E-03    0.68       2.6  T
   5   -330.2322650 -0.404089E-05  0.683E-04    0.68      10.6  T
   6   -330.2322651 -0.123904E-06  0.296E-04    0.68      24.5  T
   7   -330.2322651 -0.427193E-07  0.105E-04    0.68      69.0  T
   8   -330.2322652 -0.327577E-08  0.418E-05    0.68     173.4  T
     SCC iter.                  ...        0 min,  0.756 sec
     gradient                   ...        0 min,  0.362 sec
 * total energy  :  -325.1386913 Eh     change       -0.7589555E-02 Eh
   gradient norm :     0.0121914 Eh/α   predicted    -0.7394933E-02 (  -2.56%)
   displ. norm   :     0.8979345 α      lambda       -0.7727423E-02
   maximum displ.:     0.6255652 α      in ANC's #17, #43, #37, ...

........................................................................
.............................. CYCLE   25 ..............................
........................................................................
   1   -330.2527265 -0.330253E+03  0.814E-03    0.68       0.0  T
   2   -330.2527304 -0.385635E-05  0.542E-03    0.68       1.3  T
   3   -330.2527332 -0.285143E-05  0.307E-03    0.68       2.4  T
   4   -330.2527358 -0.256586E-05  0.261E-03    0.68       2.8  T
   5   -330.2527392 -0.341518E-05  0.757E-04    0.68       9.6  T
   6   -330.2527394 -0.147842E-06  0.296E-04    0.68      24.5  T
   7   -330.2527394 -0.336670E-07  0.117E-04    0.68      62.0  T
   8   -330.2527394 -0.331187E-08  0.565E-05    0.68     128.5  T
     SCC iter.                  ...        0 min,  0.759 sec
     gradient                   ...        0 min,  0.360 sec
 * total energy  :  -325.1453752 Eh     change       -0.6683872E-02 Eh
   gradient norm :     0.0125210 Eh/α   predicted    -0.6978971E-02 (   4.42%)
   displ. norm   :     0.8623712 α      lambda       -0.6710718E-02
   maximum displ.:     0.6351542 α      in ANC's #17, #43, #37, ...

........................................................................
.............................. CYCLE   26 ..............................
........................................................................
   1   -330.2721638 -0.330272E+03  0.821E-03    0.68       0.0  T
   2   -330.2721658 -0.200112E-05  0.569E-03    0.68       1.3  T
   3   -330.2721711 -0.525258E-05  0.311E-03    0.68       2.3  T
   4   -330.2721750 -0.388324E-05  0.246E-03    0.68       3.0  T
   5   -330.2721779 -0.286701E-05  0.787E-04    0.68       9.2  T
   6   -330.2721780 -0.147737E-06  0.277E-04    0.68      26.1  T
   7   -330.2721780 -0.235872E-07  0.121E-04    0.68      59.7  T
   8   -330.2721780 -0.393317E-08  0.564E-05    0.68     128.7  T
     SCC iter.                  ...        0 min,  0.757 sec
     gradient                   ...        0 min,  0.361 sec
 * total energy  :  -325.1512011 Eh     change       -0.5825925E-02 Eh
   gradient norm :     0.0110279 Eh/α   predicted    -0.5850687E-02 (   0.43%)
   displ. norm   :     0.8305597 α      lambda       -0.5669297E-02
   maximum displ.:     0.6479265 α      in ANC's #17, #43, #37, ...

........................................................................
.............................. CYCLE   27 ..............................
........................................................................
   1   -330.2883783 -0.330288E+03  0.780E-03    0.68       0.0  T
   2   -330.2883808 -0.249055E-05  0.529E-03    0.68       1.4  T
   3   -330.2883865 -0.567044E-05  0.281E-03    0.68       2.6  T
   4   -330.2883898 -0.337735E-05  0.222E-03    0.68       3.3  T
   5   -330.2883922 -0.236478E-05  0.747E-04    0.68       9.7  T
   6   -330.2883923 -0.116448E-06  0.259E-04    0.68      28.0  T
   7   -330.2883923 -0.184007E-07  0.114E-04    0.68      63.4  T
   8   -330.2883923 -0.294693E-08  0.562E-05    0.68     129.1  T
     SCC iter.                  ...        0 min,  0.757 sec
     gradient                   ...        0 min,  0.360 sec
 * total energy  :  -325.1561184 Eh     change       -0.4917327E-02 Eh
   gradient norm :     0.0085381 Eh/α   predicted    -0.4790074E-02 (  -2.59%)
   displ. norm   :     0.7718491 α      lambda       -0.4658234E-02
   maximum displ.:     0.6349535 α      in ANC's #17, #43, #37, ...

........................................................................
.............................. CYCLE   28 ..............................
........................................................................
   1   -330.3024430 -0.330302E+03  0.682E-03    0.68       0.0  T
   2   -330.3024447 -0.174990E-05  0.474E-03    0.68       1.5  T
   3   -330.3024504 -0.565561E-05  0.242E-03    0.68       3.0  T
   4   -330.3024528 -0.235830E-05  0.191E-03    0.68       3.8  T
   5   -330.3024545 -0.174373E-05  0.674E-04    0.68      10.8  T
   6   -330.3024546 -0.964164E-07  0.222E-04    0.68      32.6  T
   7   -330.3024546 -0.115225E-07  0.102E-04    0.68      71.1  T
   8   -330.3024546 -0.229500E-08  0.509E-05    0.68     142.6  T
     SCC iter.                  ...        0 min,  0.756 sec
     gradient                   ...        0 min,  0.359 sec
 * total energy  :  -325.1603054 Eh     change       -0.4186978E-02 Eh
   gradient norm :     0.0081679 Eh/α   predicted    -0.3716699E-02 ( -11.23%)
   displ. norm   :     0.7103061 α      lambda       -0.4007044E-02
   maximum displ.:     0.6071119 α      in ANC's #17, #43, #96, ...

........................................................................
.............................. CYCLE   29 ..............................
........................................................................
   1   -330.3132585 -0.330313E+03  0.538E-03    0.68       0.0  T
   2   -330.3132604 -0.187049E-05  0.359E-03    0.68       2.0  T
   3   -330.3132634 -0.295194E-05  0.190E-03    0.68       3.8  T
   4   -330.3132647 -0.131803E-05  0.145E-03    0.68       5.0  T
   5   -330.3132657 -0.102506E-05  0.538E-04    0.68      13.5  T
   6   -330.3132658 -0.692621E-07  0.177E-04    0.68      40.9  T
   7   -330.3132658 -0.680728E-08  0.830E-05    0.68      87.4  T
     SCC iter.                  ...        0 min,  0.661 sec
     gradient                   ...        0 min,  0.359 sec
 * total energy  :  -325.1636300 Eh     change       -0.3324605E-02 Eh
   gradient norm :     0.0103463 Eh/α   predicted    -0.3014364E-02 (  -9.33%)
   displ. norm   :     0.6050815 α      lambda       -0.3436658E-02
   maximum displ.:     0.5420745 α      in ANC's #17, #43, #96, ...

........................................................................
.............................. CYCLE   30 ..............................
........................................................................
   1   -330.3239943 -0.330324E+03  0.392E-03    0.68       0.0  T
   2   -330.3239959 -0.153381E-05  0.247E-03    0.68       2.9  T
   3   -330.3239966 -0.719712E-06  0.133E-03    0.68       5.4  T
   4   -330.3239966 -0.112259E-07  0.109E-03    0.68       6.7  T
   5   -330.3239972 -0.563428E-06  0.443E-04    0.68      16.4  T
   6   -330.3239973 -0.965957E-07  0.135E-04    0.68      53.9  T
   7   -330.3239973 -0.627762E-08  0.653E-05    0.68     111.0  T
     SCC iter.                  ...        0 min,  0.665 sec
     gradient                   ...        0 min,  0.366 sec
 * total energy  :  -325.1667113 Eh     change       -0.3081323E-02 Eh
   gradient norm :     0.0073370 Eh/α   predicted    -0.2347461E-02 ( -23.82%)
   displ. norm   :     0.5533570 α      lambda       -0.2808694E-02
   maximum displ.:     0.5211713 α      in ANC's #17, #43, #96, ...

........................................................................
.............................. CYCLE   31 ..............................
........................................................................
   1   -330.3320316 -0.330332E+03  0.258E-03    0.68       0.0  T
   2   -330.3320325 -0.937869E-06  0.154E-03    0.68       4.7  T
   3   -330.3320328 -0.205697E-06  0.828E-04    0.68       8.8  T
   4   -330.3320327  0.260395E-07  0.569E-04    0.68      12.8  T
   5   -330.3320328 -0.875111E-07  0.200E-04    0.68      36.2  T
   6   -330.3320328 -0.174601E-07  0.865E-05    0.68      83.9  T
   7   -330.3320328 -0.303885E-08  0.417E-05    0.68     174.2  T
     SCC iter.                  ...        0 min,  0.664 sec
     gradient                   ...        0 min,  0.361 sec
 * total energy  :  -325.1693588 Eh     change       -0.2647465E-02 Eh
   gradient norm :     0.0067485 Eh/α   predicted    -0.1834367E-02 ( -30.71%)
   displ. norm   :     0.4866155 α      lambda       -0.2379299E-02
   maximum displ.:     0.4719434 α      in ANC's #17, #43, #96, ...

........................................................................
.............................. CYCLE   32 ..............................
........................................................................
   1   -330.3391790 -0.330339E+03  0.203E-03    0.68       0.0  T
   2   -330.3391793 -0.255561E-06  0.141E-03    0.68       5.1  T
   3   -330.3391795 -0.247261E-06  0.861E-04    0.68       8.4  T
   4   -330.3391797 -0.186882E-06  0.611E-04    0.68      11.9  T
   5   -330.3391799 -0.186780E-06  0.176E-04    0.68      41.1  T
   6   -330.3391799 -0.982919E-08  0.642E-05    0.68     113.0  T
     SCC iter.                  ...        0 min,  0.567 sec
     gradient                   ...        0 min,  0.363 sec
 * total energy  :  -325.1716752 Eh     change       -0.2316431E-02 Eh
   gradient norm :     0.0065304 Eh/α   predicted    -0.1471356E-02 ( -36.48%)
   displ. norm   :     0.4436671 α      lambda       -0.2192203E-02
   maximum displ.:     0.4354424 α      in ANC's #17, #37, #36, ...

........................................................................
.............................. CYCLE   33 ..............................
........................................................................
   1   -330.3457666 -0.330346E+03  0.212E-03    0.68       0.0  T
   2   -330.3457665  0.883944E-07  0.162E-03    0.68       4.5  T
   3   -330.3457674 -0.885725E-06  0.864E-04    0.68       8.4  T
   4   -330.3457677 -0.298536E-06  0.562E-04    0.68      12.9  T
   5   -330.3457679 -0.126792E-06  0.190E-04    0.68      38.3  T
   6   -330.3457679 -0.800657E-08  0.580E-05    0.68     125.1  T
     SCC iter.                  ...        0 min,  0.567 sec
     gradient                   ...        0 min,  0.364 sec
 * total energy  :  -325.1737871 Eh     change       -0.2111881E-02 Eh
   gradient norm :     0.0064816 Eh/α   predicted    -0.1311860E-02 ( -37.88%)
   displ. norm   :     0.4296640 α      lambda       -0.2173325E-02
   maximum displ.:     0.4219199 α      in ANC's #17, #27, #37, ...

........................................................................
.............................. CYCLE   34 ..............................
........................................................................
   1   -330.3522145 -0.330352E+03  0.248E-03    0.68       0.0  T
   2   -330.3522144  0.139072E-06  0.190E-03    0.68       3.8  T
   3   -330.3522158 -0.138525E-05  0.955E-04    0.68       7.6  T
   4   -330.3522162 -0.380100E-06  0.629E-04    0.68      11.5  T
   5   -330.3522163 -0.159394E-06  0.242E-04    0.68      30.0  T
   6   -330.3522163 -0.129361E-07  0.668E-05    0.68     108.6  T
   7   -330.3522163 -0.772616E-09  0.276E-05    0.68     262.9  T
     SCC iter.                  ...        0 min,  0.661 sec
     gradient                   ...        0 min,  0.362 sec
 * total energy  :  -325.1758363 Eh     change       -0.2049134E-02 Eh
   gradient norm :     0.0059027 Eh/α   predicted    -0.1287275E-02 ( -37.18%)
   displ. norm   :     0.4208793 α      lambda       -0.2003500E-02
   maximum displ.:     0.4144178 α      in ANC's #17, #43, #16, ...

........................................................................
.............................. CYCLE   35 ..............................
........................................................................
   1   -330.3582846 -0.330358E+03  0.261E-03    0.68       0.0  T
   2   -330.3582851 -0.427032E-06  0.170E-03    0.68       4.3  T
   3   -330.3582858 -0.697112E-06  0.983E-04    0.68       7.4  T
   4   -330.3582861 -0.367998E-06  0.621E-04    0.68      11.7  T
   5   -330.3582863 -0.169154E-06  0.263E-04    0.68      27.5  T
   6   -330.3582863 -0.207601E-07  0.756E-05    0.68      96.0  T
   7   -330.3582863 -0.116472E-08  0.330E-05    0.68     219.9  T
     SCC iter.                  ...        0 min,  0.666 sec
     gradient                   ...        0 min,  0.364 sec
 * total energy  :  -325.1777953 Eh     change       -0.1959024E-02 Eh
   gradient norm :     0.0053681 Eh/α   predicted    -0.1179198E-02 ( -39.81%)
   displ. norm   :     0.4154387 α      lambda       -0.1921665E-02
   maximum displ.:     0.4076083 α      in ANC's #17, #43, #96, ...

........................................................................
.............................. CYCLE   36 ..............................
........................................................................
   1   -330.3645734 -0.330365E+03  0.251E-03    0.68       0.0  T
   2   -330.3645740 -0.651294E-06  0.152E-03    0.68       4.8  T
   3   -330.3645744 -0.367662E-06  0.881E-04    0.68       8.2  T
   4   -330.3645745 -0.114363E-06  0.605E-04    0.68      12.0  T
   5   -330.3645747 -0.164341E-06  0.282E-04    0.68      25.7  T
   6   -330.3645747 -0.380356E-07  0.775E-05    0.68      93.6  T
   7   -330.3645747 -0.164266E-08  0.368E-05    0.68     197.0  T
     SCC iter.                  ...        0 min,  0.663 sec
     gradient                   ...        0 min,  0.363 sec
 * total energy  :  -325.1796744 Eh     change       -0.1879132E-02 Eh
   gradient norm :     0.0048391 Eh/α   predicted    -0.1126663E-02 ( -40.04%)
   displ. norm   :     0.4085632 α      lambda       -0.1815946E-02
   maximum displ.:     0.4012217 α      in ANC's #17, #43, #96, ...

........................................................................
.............................. CYCLE   37 ..............................
........................................................................
   1   -330.3704088 -0.330370E+03  0.225E-03    0.68       0.0  T
   2   -330.3704094 -0.639461E-06  0.130E-03    0.68       5.6  T
   3   -330.3704096 -0.224820E-06  0.719E-04    0.68      10.1  T
   4   -330.3704097 -0.305936E-07  0.476E-04    0.68      15.2  T
   5   -330.3704097 -0.547866E-07  0.238E-04    0.68      30.5  T
   6   -330.3704098 -0.337965E-07  0.786E-05    0.68      92.3  T
   7   -330.3704098 -0.282313E-08  0.365E-05    0.68     198.5  T
     SCC iter.                  ...        0 min,  0.661 sec
     gradient                   ...        0 min,  0.360 sec
 * total energy  :  -325.1814533 Eh     change       -0.1778875E-02 Eh
   gradient norm :     0.0046352 Eh/α   predicted    -0.1059536E-02 ( -40.44%)
   displ. norm   :     0.3960058 α      lambda       -0.1700838E-02
   maximum displ.:     0.3902394 α      in ANC's #17, #43, #96, ...

........................................................................
.............................. CYCLE   38 ..............................
........................................................................
   1   -330.3759742 -0.330376E+03  0.194E-03    0.68       0.0  T
   2   -330.3759747 -0.462570E-06  0.111E-03    0.68       6.5  T
   3   -330.3759748 -0.141426E-06  0.629E-04    0.68      11.5  T
   4   -330.3759748 -0.317895E-07  0.408E-04    0.68      17.8  T
   5   -330.3759749 -0.439922E-07  0.163E-04    0.68      44.6  T
   6   -330.3759749 -0.121595E-07  0.594E-05    0.68     122.1  T
     SCC iter.                  ...        0 min,  0.567 sec
     gradient                   ...        0 min,  0.361 sec
 * total energy  :  -325.1831240 Eh     change       -0.1670712E-02 Eh
   gradient norm :     0.0045531 Eh/α   predicted    -0.9837828E-03 ( -41.12%)
   displ. norm   :     0.3822079 α      lambda       -0.1598251E-02
   maximum displ.:     0.3781978 α      in ANC's #17, #43, #16, ...

........................................................................
.............................. CYCLE   39 ..............................
........................................................................
   1   -330.3813262 -0.330381E+03  0.168E-03    0.68       0.0  T
   2   -330.3813265 -0.297502E-06  0.975E-04    0.68       7.4  T
   3   -330.3813266 -0.743630E-07  0.612E-04    0.68      11.9  T
   4   -330.3813266 -0.453267E-07  0.400E-04    0.68      18.1  T
   5   -330.3813267 -0.663954E-07  0.172E-04    0.68      42.2  T
   6   -330.3813267 -0.160912E-07  0.607E-05    0.68     119.5  T
     SCC iter.                  ...        0 min,  0.567 sec
     gradient                   ...        0 min,  0.362 sec
 * total energy  :  -325.1846974 Eh     change       -0.1573378E-02 Eh
   gradient norm :     0.0044342 Eh/α   predicted    -0.9158646E-03 ( -41.79%)
   displ. norm   :     0.3709249 α      lambda       -0.1516294E-02
   maximum displ.:     0.3681425 α      in ANC's #17, #43, #59, ...

........................................................................
.............................. CYCLE   40 ..............................
........................................................................
   1   -330.3864380 -0.330386E+03  0.155E-03    0.68       0.0  T
   2   -330.3864383 -0.231460E-06  0.888E-04    0.68       8.2  T
   3   -330.3864383 -0.438291E-07  0.595E-04    0.68      12.2  T
   4   -330.3864384 -0.633008E-07  0.366E-04    0.68      19.8  T
   5   -330.3864384 -0.631735E-07  0.158E-04    0.68      45.8  T
   6   -330.3864385 -0.130925E-07  0.534E-05    0.68     136.0  T
     SCC iter.                  ...        0 min,  0.572 sec
     gradient                   ...        0 min,  0.365 sec
 * total energy  :  -325.1861918 Eh     change       -0.1494466E-02 Eh
   gradient norm :     0.0042720 Eh/α   predicted    -0.8624569E-03 ( -42.29%)
   displ. norm   :     0.3633034 α      lambda       -0.1452251E-02
   maximum displ.:     0.3609425 α      in ANC's #17, #16, #59, ...

........................................................................
.............................. CYCLE   41 ..............................
........................................................................
   1   -330.3914460 -0.330391E+03  0.152E-03    0.68       0.0  T
   2   -330.3914462 -0.222380E-06  0.856E-04    0.68       8.5  T
   3   -330.3914462 -0.426065E-07  0.575E-04    0.68      12.6  T
   4   -330.3914463 -0.548691E-07  0.346E-04    0.68      21.0  T
   5   -330.3914463 -0.572111E-07  0.164E-04    0.68      44.2  T
   6   -330.3914464 -0.146861E-07  0.477E-05    0.68     152.2  T
     SCC iter.                  ...        0 min,  0.571 sec
     gradient                   ...        0 min,  0.364 sec
 * total energy  :  -325.1876237 Eh     change       -0.1431870E-02 Eh
   gradient norm :     0.0040891 Eh/α   predicted    -0.8219675E-03 ( -42.59%)
   displ. norm   :     0.3584032 α      lambda       -0.1398661E-02
   maximum displ.:     0.3558224 α      in ANC's #17, #16, #12, ...

........................................................................
.............................. CYCLE   42 ..............................
........................................................................
   1   -330.3963308 -0.330396E+03  0.152E-03    0.68       0.0  T
   2   -330.3963311 -0.244519E-06  0.836E-04    0.68       8.7  T
   3   -330.3963311 -0.493999E-07  0.539E-04    0.68      13.5  T
   4   -330.3963312 -0.276250E-07  0.331E-04    0.68      21.9  T
   5   -330.3963312 -0.473800E-07  0.175E-04    0.68      41.5  T
   6   -330.3963312 -0.188538E-07  0.446E-05    0.68     162.8  T
     SCC iter.                  ...        0 min,  0.567 sec
     gradient                   ...        0 min,  0.362 sec
 * total energy  :  -325.1890024 Eh     change       -0.1378686E-02 Eh
   gradient norm :     0.0039249 Eh/α   predicted    -0.7891623E-03 ( -42.76%)
   displ. norm   :     0.3546958 α      lambda       -0.1348891E-02
   maximum displ.:     0.3515064 α      in ANC's #17, #43, #99, ...
 * RMSD in coord.:     0.8272617 α      energy gain  -0.8365405E-01 Eh

generating ANC from model Hessian ...
Using Lindh-Hessian (1995)
 Shifting diagonal of input Hessian by    1.0016406702476461E-002
 Lowest  eigenvalues of input Hessian
    0.010000    0.010008    0.010015    0.000000    0.000000    0.000000
    0.000000    0.000000    0.000000    0.010017    0.010021    0.010023
    0.010024    0.010036    0.010037    0.010047    0.010090    0.010107
 Highest eigenvalues
    2.220429    2.220502    2.551134    2.551164    2.583416    2.583720


........................................................................
.............................. CYCLE   43 ..............................
........................................................................
   1   -330.4011367 -0.330401E+03  0.149E-03    0.68       0.0  T
   2   -330.4011369 -0.256308E-06  0.806E-04    0.68       9.0  T
   3   -330.4011370 -0.505122E-07  0.493E-04    0.68      14.7  T
   4   -330.4011370 -0.846279E-08  0.303E-04    0.68      23.9  T
   5   -330.4011370 -0.285509E-07  0.175E-04    0.68      41.5  T
   6   -330.4011370 -0.217111E-07  0.436E-05    0.68     166.3  T
     SCC iter.                  ...        0 min,  0.567 sec
     gradient                   ...        0 min,  0.361 sec
 * total energy  :  -325.1903310 Eh     change       -0.1328619E-02 Eh
   gradient norm :     0.0037984 Eh/α   predicted     0.0000000E+00 (-100.00%)
   displ. norm   :     0.3194819 α      lambda       -0.1188562E-02
   maximum displ.:     0.3182538 α      in ANC's #16, #15, #17, ...

........................................................................
.............................. CYCLE   44 ..............................
........................................................................
   1   -330.4062046 -0.330406E+03  0.113E-03    0.68       0.0  T
   2   -330.4062048 -0.125410E-06  0.576E-04    0.68      12.6  T
   3   -330.4062048 -0.100136E-07  0.389E-04    0.68      18.6  T
   4   -330.4062048 -0.144080E-07  0.228E-04    0.68      31.8  T
   5   -330.4062048 -0.186385E-07  0.104E-04    0.68      69.4  T
   6   -330.4062048 -0.851094E-08  0.324E-05    0.68     223.9  T
     SCC iter.                  ...        0 min,  0.567 sec
     gradient                   ...        0 min,  0.364 sec
 * total energy  :  -325.1915025 Eh     change       -0.1171454E-02 Eh
   gradient norm :     0.0038094 Eh/α   predicted    -0.6550084E-03 ( -44.09%)
   displ. norm   :     0.3317039 α      lambda       -0.1202353E-02
   maximum displ.:     0.3273559 α      in ANC's #16, #15, #17, ...

........................................................................
.............................. CYCLE   45 ..............................
........................................................................
   1   -330.4107841 -0.330411E+03  0.112E-03    0.67       0.0  T
   2   -330.4107842 -0.129538E-06  0.609E-04    0.67      11.9  T
   3   -330.4107842  0.500580E-08  0.418E-04    0.67      17.3  T
   4   -330.4107842 -0.136305E-07  0.295E-04    0.67      24.6  T
   5   -330.4107842 -0.513082E-07  0.789E-05    0.67      92.0  T
   6   -330.4107842 -0.338423E-08  0.305E-05    0.67     238.2  T
     SCC iter.                  ...        0 min,  0.574 sec
     gradient                   ...        0 min,  0.369 sec
 * total energy  :  -325.1926854 Eh     change       -0.1182935E-02 Eh
   gradient norm :     0.0036872 Eh/α   predicted    -0.6673316E-03 ( -43.59%)
   displ. norm   :     0.3353606 α      lambda       -0.1185454E-02
   maximum displ.:     0.3279068 α      in ANC's #16, #15, #17, ...

........................................................................
.............................. CYCLE   46 ..............................
........................................................................
   1   -330.4149121 -0.330415E+03  0.114E-03    0.67       0.0  T
   2   -330.4149122 -0.121485E-06  0.657E-04    0.67      11.0  T
   3   -330.4149122  0.344261E-08  0.433E-04    0.67      16.7  T
   4   -330.4149122 -0.335257E-08  0.324E-04    0.67      22.4  T
   5   -330.4149123 -0.659843E-07  0.859E-05    0.67      84.4  T
   6   -330.4149123 -0.356181E-08  0.282E-05    0.67     257.3  T
     SCC iter.                  ...        0 min,  0.572 sec
     gradient                   ...        0 min,  0.367 sec
 * total energy  :  -325.1938453 Eh     change       -0.1159853E-02 Eh
   gradient norm :     0.0036320 Eh/α   predicted    -0.6593895E-03 ( -43.15%)
   displ. norm   :     0.3391094 α      lambda       -0.1161607E-02
   maximum displ.:     0.3283735 α      in ANC's #16, #15, #17, ...

........................................................................
.............................. CYCLE   47 ..............................
........................................................................
   1   -330.4190659 -0.330419E+03  0.115E-03    0.67       0.0  T
   2   -330.4190661 -0.126339E-06  0.669E-04    0.67      10.8  T
   3   -330.4190661 -0.314895E-08  0.410E-04    0.67      17.7  T
   4   -330.4190661  0.112635E-07  0.321E-04    0.67      22.6  T
   5   -330.4190661 -0.639226E-07  0.104E-04    0.67      69.6  T
   6   -330.4190661 -0.546390E-08  0.316E-05    0.67     229.5  T
     SCC iter.                  ...        0 min,  0.568 sec
     gradient                   ...        0 min,  0.364 sec
 * total energy  :  -325.1949820 Eh     change       -0.1136751E-02 Eh
   gradient norm :     0.0034672 Eh/α   predicted    -0.6475933E-03 ( -43.03%)
   displ. norm   :     0.3394651 α      lambda       -0.1125203E-02
   maximum displ.:     0.3273723 α      in ANC's #16, #15, #17, ...

........................................................................
.............................. CYCLE   48 ..............................
........................................................................
   1   -330.4231721 -0.330423E+03  0.120E-03    0.67       0.0  T
   2   -330.4231723 -0.151604E-06  0.630E-04    0.67      11.5  T
   3   -330.4231723 -0.988950E-08  0.353E-04    0.67      20.5  T
   4   -330.4231723  0.134680E-07  0.269E-04    0.67      26.9  T
   5   -330.4231723 -0.341968E-07  0.104E-04    0.67      69.6  T
   6   -330.4231723 -0.645957E-08  0.374E-05    0.67     194.1  T
     SCC iter.                  ...        0 min,  0.568 sec
     gradient                   ...        0 min,  0.361 sec
 * total energy  :  -325.1960842 Eh     change       -0.1102154E-02 Eh
   gradient norm :     0.0033937 Eh/α   predicted    -0.6274379E-03 ( -43.07%)
   displ. norm   :     0.3373055 α      lambda       -0.1081251E-02
   maximum displ.:     0.3241140 α      in ANC's #16, #15, #17, ...

........................................................................
.............................. CYCLE   49 ..............................
........................................................................
   1   -330.4269706 -0.330427E+03  0.126E-03    0.67       0.0  T
   2   -330.4269708 -0.185947E-06  0.645E-04    0.67      11.2  T
   3   -330.4269708 -0.182361E-07  0.369E-04    0.67      19.7  T
   4   -330.4269708  0.612738E-08  0.269E-04    0.67      27.0  T
   5   -330.4269709 -0.296134E-07  0.943E-05    0.67      76.9  T
   6   -330.4269709 -0.400109E-08  0.394E-05    0.67     183.9  T
     SCC iter.                  ...        0 min,  0.568 sec
     gradient                   ...        0 min,  0.364 sec
 * total energy  :  -325.1971451 Eh     change       -0.1060956E-02 Eh
   gradient norm :     0.0032641 Eh/α   predicted    -0.6021371E-03 ( -43.25%)
   displ. norm   :     0.3314010 α      lambda       -0.1034150E-02
   maximum displ.:     0.3187710 α      in ANC's #16, #15, #17, ...

........................................................................
.............................. CYCLE   50 ..............................
........................................................................
   1   -330.4310543 -0.330431E+03  0.123E-03    0.67       0.0  T
   2   -330.4310545 -0.169720E-06  0.659E-04    0.67      11.0  T
   3   -330.4310545 -0.208987E-07  0.380E-04    0.67      19.1  T
   4   -330.4310545 -0.110759E-08  0.276E-04    0.67      26.3  T
   5   -330.4310545 -0.296682E-07  0.979E-05    0.67      74.1  T
   6   -330.4310545 -0.443504E-08  0.417E-05    0.67     173.8  T
     SCC iter.                  ...        0 min,  0.567 sec
     gradient                   ...        0 min,  0.366 sec
 * total energy  :  -325.1981574 Eh     change       -0.1012330E-02 Eh
   gradient norm :     0.0032135 Eh/α   predicted    -0.5738681E-03 ( -43.31%)
   displ. norm   :     0.3253558 α      lambda       -0.9864577E-03
   maximum displ.:     0.3120787 α      in ANC's #16, #15, #17, ...

........................................................................
.............................. CYCLE   51 ..............................
........................................................................
   1   -330.4351193 -0.330435E+03  0.116E-03    0.67       0.0  T
   2   -330.4351195 -0.146891E-06  0.642E-04    0.67      11.3  T
   3   -330.4351195 -0.196430E-07  0.372E-04    0.67      19.5  T
   4   -330.4351195 -0.486983E-08  0.267E-04    0.67      27.1  T
   5   -330.4351195 -0.289067E-07  0.893E-05    0.67      81.2  T
   6   -330.4351195 -0.322871E-08  0.379E-05    0.67     191.2  T
     SCC iter.                  ...        0 min,  0.589 sec
     gradient                   ...        0 min,  0.372 sec
 * total energy  :  -325.1991231 Eh     change       -0.9656516E-03 Eh
   gradient norm :     0.0031124 Eh/α   predicted    -0.5454416E-03 ( -43.52%)
   displ. norm   :     0.3152170 α      lambda       -0.9309624E-03
   maximum displ.:     0.3038776 α      in ANC's #16, #15, #17, ...

........................................................................
.............................. CYCLE   52 ..............................
........................................................................
   1   -330.4390039 -0.330439E+03  0.108E-03    0.67       0.0  T
   2   -330.4390040 -0.125883E-06  0.601E-04    0.67      12.1  T
   3   -330.4390040 -0.154437E-07  0.360E-04    0.67      20.2  T
   4   -330.4390040 -0.479696E-08  0.259E-04    0.67      28.1  T
   5   -330.4390041 -0.306710E-07  0.886E-05    0.67      81.9  T
   6   -330.4390041 -0.346967E-08  0.397E-05    0.67     182.9  T
     SCC iter.                  ...        0 min,  0.570 sec
     gradient                   ...        0 min,  0.367 sec
 * total energy  :  -325.2000373 Eh     change       -0.9141860E-03 Eh
   gradient norm :     0.0030274 Eh/α   predicted    -0.5117334E-03 ( -44.02%)
   displ. norm   :     0.3057676 α      lambda       -0.8778253E-03
   maximum displ.:     0.2951707 α      in ANC's #16, #15, #11, ...

........................................................................
.............................. CYCLE   53 ..............................
........................................................................
   1   -330.4424034 -0.330442E+03  0.995E-04    0.67       0.0  T
   2   -330.4424036 -0.115919E-06  0.543E-04    0.67      13.4  T
   3   -330.4424036 -0.121048E-07  0.329E-04    0.67      22.1  T
   4   -330.4424036  0.328072E-08  0.232E-04    0.67      31.2  T
   5   -330.4424036 -0.261480E-07  0.785E-05    0.67      92.4  T
   6   -330.4424036 -0.295711E-08  0.342E-05    0.67     211.9  T
     SCC iter.                  ...        0 min,  0.566 sec
     gradient                   ...        0 min,  0.386 sec
 * total energy  :  -325.2009014 Eh     change       -0.8641590E-03 Eh
   gradient norm :     0.0029226 Eh/α   predicted    -0.4799507E-03 ( -44.46%)
   displ. norm   :     0.2958371 α      lambda       -0.8275869E-03
   maximum displ.:     0.2866007 α      in ANC's #16, #15, #11, ...

........................................................................
.............................. CYCLE   54 ..............................
[...]
   152   1 H    1.002 --   137 C    0.970
   153   1 H    0.998 --   139 C    0.976
   154   1 H    1.006 --   140 C    0.968
   155   6 C    3.928 --   177 C    1.250   156 C    1.249    80 C    1.194
   156   6 C    3.889 --   157 C    1.251   155 C    1.249   160 N    1.193
   157   6 C    3.956 --   158 C    1.581   156 C    1.251   179 H    0.968
   158   6 C    3.953 --   157 C    1.581   159 C    1.238   180 H    0.977
   159   6 C    3.895 --   161 C    1.339   158 C    1.238   160 N    1.164
   160   7 N    3.471 --   156 C    1.193   159 C    1.164   181 H    0.872
   161   6 C    3.929 --   162 C    1.381   159 C    1.339   182 H    0.970
   162   6 C    3.918 --   161 C    1.381   165 N    1.277   163 C    1.119
   163   6 C    3.966 --   164 C    1.715   162 C    1.119   183 H    0.976
   164   6 C    3.964 --   163 C    1.715   166 C    1.126   184 H    0.970
   165   7 N    3.011 --   166 C    1.350   162 C    1.277
   166   6 C    3.914 --   165 N    1.350   167 C    1.256   164 C    1.126
   167   6 C    3.927 --   166 C    1.256   168 C    1.251    81 C    1.186
   168   6 C    3.890 --   167 C    1.251   169 C    1.251   172 N    1.192
   169   6 C    3.956 --   170 C    1.581   168 C    1.251   185 H    0.971
   170   6 C    3.954 --   169 C    1.581   171 C    1.239   186 H    0.977
   171   6 C    3.894 --   173 C    1.336   170 C    1.239   172 N    1.165
   172   7 N    3.471 --   168 C    1.192   171 C    1.165   187 H    0.872
   173   6 C    3.931 --   174 C    1.383   171 C    1.336   188 H    0.970
   174   6 C    3.918 --   173 C    1.383   178 N    1.273   175 C    1.120
   175   6 C    3.965 --   176 C    1.714   174 C    1.120   189 H    0.976
   176   6 C    3.963 --   175 C    1.714   177 C    1.127   190 H    0.967
   177   6 C    3.913 --   178 N    1.355   155 C    1.250   176 C    1.127
   178   7 N    3.012 --   177 C    1.355   174 C    1.273
   179   1 H    1.007 --   157 C    0.968
   180   1 H    0.998 --   158 C    0.977
   181   1 H    0.986 --   160 N    0.872
   182   1 H    1.002 --   161 C    0.970
   183   1 H    0.998 --   163 C    0.976
   184   1 H    1.005 --   164 C    0.970
   185   1 H    1.005 --   169 C    0.971
   186   1 H    0.998 --   170 C    0.977
   187   1 H    0.986 --   172 N    0.872
   188   1 H    1.002 --   173 C    0.970
   189   1 H    0.998 --   175 C    0.976
   190   1 H    1.007 --   176 C    0.967
 ---------------------------------------------------------------------------

Topologies differ in total number of bonds
Writing topology from bond orders to xtbtopo.mol

 dipole moment from electron density (au)
     X       Y       Z   
  -0.0005  -0.0031  -0.0743  total (Debye):    0.189

           -------------------------------------------------
          |                Geometry Summary                 |
           -------------------------------------------------

      molecular mass/u    :     1639.7858679
   center of mass at/Å    :       58.9256158      -0.0000247       0.0009527
  moments of inertia/u·Å² :        0.9333736E+04   0.4032543E+06   0.4121367E+06
rotational constants/cm⁻¹ :        0.1806097E-02   0.4180397E-04   0.4090301E-04

 * 202 selected distances

     #   Z          #   Z                                           value/Å
     1   6 C        2   6 C                                       1.3889092
     2   6 C        3   6 C                                       1.4246702
     3   6 C        4   6 C                                       1.3664344
     4   6 C        5   6 C                                       1.4248478
     2   6 C        6   7 N                                       1.3659009
     5   6 C        6   7 N                                       1.3648850
     5   6 C        7   6 C                                       1.3895990
     7   6 C        8   6 C                                       1.3877781
     8   6 C        9   6 C                                       1.4518731
     9   6 C       10   6 C                                       1.3489094
     8   6 C       11   7 N                                       1.3606726
    10   6 C       12   6 C                                       1.4513068
    11   7 N       12   6 C                                       1.3477841
    12   6 C       13   6 C                                       1.4103785
    13   6 C       14   6 C                                       1.4083382
    14   6 C       15   6 C                                       1.4205383
    15   6 C       16   6 C                                       1.3676707
    16   6 C       17   6 C                                       1.4223766
    14   6 C       18   7 N                                       1.3627457
    17   6 C       18   7 N                                       1.3688135
    17   6 C       19   6 C                                       1.3896931
    19   6 C       20   6 C                                       1.3888143
    21   6 C       22   6 C                                       1.3481610
     1   6 C       23   6 C                                       1.3900503
    20   6 C       24   7 N                                       1.3538530
    23   6 C       24   7 N                                       1.3540196
     1   6 C       25   1 H                                       1.0847771
     3   6 C       26   1 H                                       1.0784504
     4   6 C       27   1 H                                       1.0785109
     6   7 N       28   1 H                                       1.0144853
     7   6 C       29   1 H                                       1.0854055
     9   6 C       30   1 H                                       1.0787160
    10   6 C       31   1 H                                       1.0777646
    15   6 C       32   1 H                                       1.0776894
    16   6 C       33   1 H                                       1.0783436
    18   7 N       34   1 H                                       1.0147645
    19   6 C       35   1 H                                       1.0853506
    21   6 C       36   1 H                                       1.0789299
    22   6 C       37   1 H                                       1.0788787
    38   6 C       39   6 C                                       1.3890451
    39   6 C       40   6 C                                       1.4245899
    40   6 C       41   6 C                                       1.3665110
    41   6 C       42   6 C                                       1.4247699
    39   6 C       43   7 N                                       1.3658745
    42   6 C       43   7 N                                       1.3649664
    42   6 C       44   6 C                                       1.3897359
    44   6 C       45   6 C                                       1.3877426
    45   6 C       46   6 C                                       1.4519871
    46   6 C       47   6 C                                       1.3489906
    45   6 C       48   7 N                                       1.3606975
    47   6 C       49   6 C                                       1.4515393
    48   7 N       49   6 C                                       1.3476235
    49   6 C       50   6 C                                       1.4101582
    50   6 C       51   6 C                                       1.4078831
    51   6 C       52   6 C                                       1.4207990
    52   6 C       53   6 C                                       1.3676461
    53   6 C       54   6 C                                       1.4225925
    51   6 C       55   7 N                                       1.3627057
    54   6 C       55   7 N                                       1.3687630
    54   6 C       56   6 C                                       1.3895872
    56   6 C       57   6 C                                       1.3890145
    58   6 C       59   6 C                                       1.3481629
    38   6 C       60   6 C                                       1.3899088
    57   6 C       61   7 N                                       1.3536576
    60   6 C       61   7 N                                       1.3542385
    38   6 C       62   1 H                                       1.0848063
    40   6 C       63   1 H                                       1.0784543
    41   6 C       64   1 H                                       1.0785124
    43   7 N       65   1 H                                       1.0144670 (min)
    44   6 C       66   1 H                                       1.0854172
    46   6 C       67   1 H                                       1.0787327
    47   6 C       68   1 H                                       1.0779944
    52   6 C       69   1 H                                       1.0778921
    53   6 C       70   1 H                                       1.0783511
    55   7 N       71   1 H                                       1.0147506
    56   6 C       72   1 H                                       1.0853278
    58   6 C       73   1 H                                       1.0789262
    59   6 C       74   1 H                                       1.0788948
    75   6 C       76   6 C                                       1.2178997
    77   6 C       78   6 C                                       1.2188899
    79   6 C       80   6 C                                       1.2190374
    81   6 C       82   6 C                                       1.2176234
    83   6 C       84   6 C                                       1.4088502
    84   6 C       85   6 C                                       1.4193245
    85   6 C       86   6 C                                       1.3685844
    86   6 C       87   6 C                                       1.4214657
    84   6 C       88   7 N                                       1.3627602
    87   6 C       88   7 N                                       1.3677416
    87   6 C       89   6 C                                       1.3910377
    89   6 C       90   6 C                                       1.3860030
    90   6 C       91   6 C                                       1.4516459
    91   6 C       92   6 C                                       1.3491053
    90   6 C       93   7 N                                       1.3614275
    92   6 C       94   6 C                                       1.4503203
    93   7 N       94   6 C                                       1.3470799
    94   6 C       95   6 C                                       1.4117784
    95   6 C       96   6 C                                       1.4093626
    96   6 C       97   6 C                                       1.4193875
    97   6 C       98   6 C                                       1.3681780
    98   6 C       99   6 C                                       1.4216780
    96   6 C      100   7 N                                       1.3628726
    99   6 C      100   7 N                                       1.3680964
    99   6 C      101   6 C                                       1.3906474
   101   6 C      102   6 C                                       1.3864456
   102   6 C      103   6 C                                       1.4519855
   103   6 C      104   6 C                                       1.3490615
    83   6 C      105   6 C                                       1.4101942
   104   6 C      105   6 C                                       1.4505831
   102   6 C      106   7 N                                       1.3604468
   105   6 C      106   7 N                                       1.3478631
    85   6 C      107   1 H                                       1.0776584
    86   6 C      108   1 H                                       1.0783439
    88   7 N      109   1 H                                       1.0149388
    89   6 C      110   1 H                                       1.0857817
    91   6 C      111   1 H                                       1.0787580
    92   6 C      112   1 H                                       1.0776438
    97   6 C      113   1 H                                       1.0772373
    98   6 C      114   1 H                                       1.0783286
   100   7 N      115   1 H                                       1.0149510
   101   6 C      116   1 H                                       1.0857853
   103   6 C      117   1 H                                       1.0787252
   104   6 C      118   1 H                                       1.0777676
   119   6 C      120   6 C                                       1.4095227
   120   6 C      121   6 C                                       1.4190843
   121   6 C      122   6 C                                       1.3684175
   122   6 C      123   6 C                                       1.4215180
   120   6 C      124   7 N                                       1.3628954
   123   6 C      124   7 N                                       1.3678355
   123   6 C      125   6 C                                       1.3909386
   125   6 C      126   6 C                                       1.3861535
   126   6 C      127   6 C                                       1.4515936
   127   6 C      128   6 C                                       1.3491233
   126   6 C      129   7 N                                       1.3612241
   128   6 C      130   6 C                                       1.4500319
   129   7 N      130   6 C                                       1.3474027
   130   6 C      131   6 C                                       1.4119333
   131   6 C      132   6 C                                       1.4096957
   132   6 C      133   6 C                                       1.4190280
   133   6 C      134   6 C                                       1.3683535
   134   6 C      135   6 C                                       1.4214835
   132   6 C      136   7 N                                       1.3630173
   135   6 C      136   7 N                                       1.3679008
   135   6 C      137   6 C                                       1.3909661
   137   6 C      138   6 C                                       1.3861216
   138   6 C      139   6 C                                       1.4517029
   139   6 C      140   6 C                                       1.3491762
   119   6 C      141   6 C                                       1.4116440
   140   6 C      141   6 C                                       1.4501467
   138   6 C      142   7 N                                       1.3610642
   141   6 C      142   7 N                                       1.3473130
   121   6 C      143   1 H                                       1.0772596
   122   6 C      144   1 H                                       1.0783247
   124   7 N      145   1 H                                       1.0150101
   125   6 C      146   1 H                                       1.0858612
   127   6 C      147   1 H                                       1.0787360
   128   6 C      148   1 H                                       1.0774903
   133   6 C      149   1 H                                       1.0771695
   134   6 C      150   1 H                                       1.0783130
   136   7 N      151   1 H                                       1.0150314
   137   6 C      152   1 H                                       1.0858554
   139   6 C      153   1 H                                       1.0787421
   140   6 C      154   1 H                                       1.0776561
   155   6 C      156   6 C                                       1.4096736
   156   6 C      157   6 C                                       1.4192169
   157   6 C      158   6 C                                       1.3681169
   158   6 C      159   6 C                                       1.4215938
   156   6 C      160   7 N                                       1.3630100
   159   6 C      160   7 N                                       1.3681660
   159   6 C      161   6 C                                       1.3907503
   161   6 C      162   6 C                                       1.3863902
   162   6 C      163   6 C                                       1.4521679 (max)
   163   6 C      164   6 C                                       1.3491281
   162   6 C      165   7 N                                       1.3602732
   164   6 C      166   6 C                                       1.4507834
   165   7 N      166   6 C                                       1.3477628
   166   6 C      167   6 C                                       1.4098512
   167   6 C      168   6 C                                       1.4084873
   168   6 C      169   6 C                                       1.4194729
   169   6 C      170   6 C                                       1.3686416
   170   6 C      171   6 C                                       1.4216774
   168   6 C      172   7 N                                       1.3627683
   171   6 C      172   7 N                                       1.3676390
   171   6 C      173   6 C                                       1.3910448
   173   6 C      174   6 C                                       1.3861956
   174   6 C      175   6 C                                       1.4516799
   175   6 C      176   6 C                                       1.3491143
   155   6 C      177   6 C                                       1.4119190
   176   6 C      177   6 C                                       1.4502114
   174   6 C      178   7 N                                       1.3613473
   177   6 C      178   7 N                                       1.3473213
   157   6 C      179   1 H                                       1.0770799
   158   6 C      180   1 H                                       1.0782998
   160   7 N      181   1 H                                       1.0149555
   161   6 C      182   1 H                                       1.0857859
   163   6 C      183   1 H                                       1.0787298
   164   6 C      184   1 H                                       1.0779994
   169   6 C      185   1 H                                       1.0778658
   170   6 C      186   1 H                                       1.0783565
   172   7 N      187   1 H                                       1.0149340
   173   6 C      188   1 H                                       1.0858088
   175   6 C      189   1 H                                       1.0787590
   176   6 C      190   1 H                                       1.0775801

 * 4 distinct bonds (by element types)

   Z      Z             #   av. dist./Å        max./Å        min./Å
   1 H    6 C          52     1.0798813     1.0858612     1.0770799
   6 C    6 C         100     1.3958285     1.4521679     1.2176234
   1 H    7 N          10     1.0148288     1.0150314     1.0144670
   6 C    7 N          40     1.3598108     1.3688135     1.3470799


optimized geometry written to: xtbopt.xyz


           -------------------------------------------------
          | TOTAL ENERGY             -325.218998387504 Eh   |
          | GRADIENT NORM               0.000744856786 Eh/α |
          | HOMO-LUMO GAP               0.687609925111 eV   |
           -------------------------------------------------

------------------------------------------------------------------------
 * finished run on 2022/07/26 at 13:21:55.931     
------------------------------------------------------------------------
 total:
 * wall-time:     0 d,  0 h,  2 min, 36.746 sec
 *  cpu-time:     0 d,  0 h,  2 min, 36.057 sec
 * ratio c/w:     0.996 speedup
 SCF:
 * wall-time:     0 d,  0 h,  0 min,  5.149 sec
 *  cpu-time:     0 d,  0 h,  0 min,  5.125 sec
 * ratio c/w:     0.995 speedup
 ANC optimizer:
 * wall-time:     0 d,  0 h,  2 min, 31.428 sec
 *  cpu-time:     0 d,  0 h,  2 min, 30.770 sec
 * ratio c/w:     0.996 speedup

