372
 energy: -712.219557285226 gnorm: 0.000534867872 xtb: 6.5.1 (b24c23e)
C           84.49398256695471       -0.03167501766685       -0.03133408587395
C           85.08405972724287       -1.25920307467730        0.23874514710376
C           84.41337083991709       -2.49039207621215        0.48449822154650
C           85.36111240395110       -3.44992357459068        0.70033670502342
C           86.64179852325756       -2.83275250810585        0.60425530829724
N           86.42386028507278       -1.51580027610040        0.31872145984163
C           87.89728239432871       -3.43855980440547        0.73005675852534
C           87.90409915679429       -4.88759674240003        1.04118249879253
C           88.48112521489185       -5.79751718715658        0.15000467951569
C           88.48218633168105       -7.15172047055363        0.43030916592397
C           87.90492153784309       -7.60031839850499        1.61479518378571
N           87.90127025923294       -9.02203340616535        1.91302401857027
O           88.41334828928602       -9.76062760773273        1.11160136919985
O           87.38512770535473       -9.37400733749878        2.94233846900824
C           87.32881418225746       -6.71097559761998        2.51722190532603
C           87.32857699712436       -5.35912095522976        2.22496182920288
C           89.12570083572821       -2.78852133221109        0.58305537719320
C           90.41136640634711       -3.43848602695126        0.76549984365543
C           91.34938250196795       -2.49324771507654        0.55347101312899
N           89.30502402775370       -1.47291405456657        0.28478755139711
C           90.63803814672347       -1.26512621965415        0.25597940034762
C           91.29630707318529       -0.05283148575295       -0.02999443907328
C           90.67867293871699        1.17798581085471       -0.32140147100447
C           91.33878994455064        2.40057894961514       -0.61411752528237
C           90.38567484645908        3.35575098993424       -0.83283389194886
C           89.11078594598145        2.74777268290568       -0.66487789115865
N           89.33945156990455        1.43161023690069       -0.36357461080031
C           87.85664502204727        3.35174065466825       -0.81016281523534
C           87.84650980155740        4.79600709808122       -1.13927604687367
C           87.25688610825024        5.24393537754655       -2.32560332462301
C           87.24389513332325        6.59058863872205       -2.63976472269224
C           87.82152777586484        7.49912257027433       -1.75744133851966
N           87.80908628116167        8.91511068932075       -2.08099318439423
O           87.27412714763007        9.24759350835471       -3.10715245199601
O           88.33565861481141        9.66876313330858       -1.30317265446094
C           88.41102553187844        7.07462316666291       -0.57014165388262
C           88.42316417262124        5.72516729105320       -0.26778537182419
C           86.62717440300322        2.70025981327259       -0.66366793428809
C           85.33358642494676        3.36032734426546       -0.75968693684201
C           84.40350296018998        2.41038812933566       -0.53956287431559
C           85.12741288840593        1.17411268366370       -0.29908167233713
N           86.46425475958701        1.38806732700890       -0.37562958672643
H           83.40882367905635       -0.02326390477352       -0.03122500434373
H           83.34228180705838       -2.61354317432818        0.48533757176465
H           85.19379433322672       -4.49595170243262        0.89921071411608
H           87.15884563870804       -0.83063269197377        0.17901518256625
H           88.91505694942501       -5.43686366504252       -0.77522795537309
H           88.92072411838916       -7.86500211135416       -0.25713692377066
H           86.89067312931483       -7.08506249510604        3.43471635463085
H           86.89485586442883       -4.65556688425197        2.92603896677105
H           90.55624076667469       -4.47276981653404        1.03182166839696
H           92.42153240545103       -2.59473388776680        0.58949407498702
H           92.40821112856139        2.52729922712264       -0.65038118922339
H           90.54981007520423        4.38812629939645       -1.09480663782336
H           88.60789934730836        0.74748145099854       -0.20054783977866
H           86.82205160959164        4.52519503425538       -3.01025807159743
H           86.79509470352069        6.94629468009377       -3.55941180792897
H           88.84868954219517        7.80249624653061        0.10243128089811
H           88.86538747695184        5.38435967567223        0.66114994190293
H           85.18313486621469        4.40990510319642       -0.95410916458447
H           83.32942020530633        2.50681162147710       -0.52569740979249
C          145.83535731049716        0.06215423581542       -0.05019988231096
C          145.21884556953862        1.24839870006206       -0.42565201585270
C          145.86262406801393        2.44895264949895       -0.83811005950867
C          144.89469594238162        3.37483170040141       -1.10570733268584
C          143.62820299833822        2.77208089081839       -0.85518774162056
N          143.87416033997465        1.48929870797299       -0.45857431830443
C          142.36015337184514        3.34674578780456       -1.00193646358115
C          142.32107123753929        4.76732053898072       -1.42107329270607
C          141.68979259002452        5.13408892394504       -2.61364919920776
C          141.65862309354634        6.45728207968508       -3.01460523227685
C          142.25920967622983        7.42382494282975       -2.21301000593876
N          142.23078314728073        8.81529409833876       -2.62955967855181
O          141.67680120133693        9.07526372190071       -3.66632795084687
O          142.76408785819928        9.62224199429831       -1.91224226490716
C          142.88828426938323        7.08069321218940       -1.01981004757755
C          142.91902305405159        5.75388545548546       -0.63091163070067
C          141.14682704239760        2.68899007085087       -0.78215287672230
C          139.84867294778977        3.33403167204511       -0.86938736998344
C          138.93214753572462        2.38570633283570       -0.58723650431580
N          140.99712827920462        1.38230919430023       -0.43278479673879
C          139.67030574770183        1.16572696531034       -0.32162503950127
C          139.03931990609107       -0.05029932688447        0.00782282735956
C          139.68206571520088       -1.25559733829375        0.34659970487556
C          139.04813394205107       -2.49126235503172        0.64293466463834
C          140.02126765516320       -3.41031413287530        0.92166720726993
C          141.28179376486750       -2.76084140846314        0.80863140767886
N          141.02535148181803       -1.46394790500878        0.45193509729101
C          142.54903579096177       -3.32869425295910        0.98314603822545
C          142.59203952594819       -4.75061994062495        1.39473870226207
C          143.21869731108492       -5.70035731067408        0.58154626685850
C          143.26462508614452       -7.02958841927626        0.95978199681287
C          142.68370600801509       -7.41284451920555        2.16530363118865
N          142.73205525026361       -8.80728647570482        2.56914779922037
O          143.28578720967749       -9.58186781508813        1.83194245783049
O          142.21617948953741       -9.10214998957652        3.61641912986429
C          142.05683300209449       -6.48341731676047        2.99031411956880
C          142.01062954286002       -5.15754298094334        2.59965259453122
C          143.76352677661700       -2.65951854231127        0.79481127592804
C          145.07127140307097       -3.25103616661826        1.03605608707582
C          145.97987035800634       -2.29951355204976        0.74442268735856
C          145.22874697459807       -1.12496377182706        0.33652226203965
N          143.89697157034311       -1.37546339753674        0.38912361408430
H          146.92043961316392        0.07419832664651       -0.06169819379920
H          146.93043612641853        2.57284515335054       -0.92078248000587
H          145.03931232006698        4.38410033241657       -1.45525101955867
H          143.15408117228364        0.81346194482913       -0.22634141180907
H          141.23738814647723        4.37019205644270       -3.23513967629954
H          141.17854202317747        6.75022970870100       -3.94057389486637
H          143.34328075381435        7.85277642138497       -0.41106649959970
H          143.39415365091048        5.47615776026009        0.30277002444048
H          139.68296337810116        4.37447650606580       -1.09697977279621
H          137.85978147261159        2.48340942987944       -0.54002771015651
H          137.98245887859312       -2.65228366532640        0.63082919479383
H          139.88103540726016       -4.44967173346570        1.16977679437484
H          141.74224757760402       -0.76712529938824        0.27808541806231
H          143.65632033463626       -5.39119989645018       -0.36043275361243
H          143.74229803584507       -7.77333723768836        0.33340348459232
H          141.61695196153488       -6.80654961904621        3.92616813827991
H          141.53819967330386       -4.42223173686522        3.24059812644337
H          145.24507434286917       -4.25286641379034        1.39407523391386
H          147.05567636202559       -2.35353055780208        0.79806254990253
C           92.70707056968442       -0.05646493300704       -0.03090112118690
C           93.92430702437456       -0.05497085327079       -0.03300773547947
C          103.63385853801248       -0.04112799216041       -0.10837613881742
C          104.85213864054859       -0.04040624448759       -0.11679350114077
C          114.56203351752681       -0.02153332040037       -0.05516124537141
C          115.78055006879819       -0.02526781984727       -0.05008288190198
C          125.49260647581947       -0.09231599388857       -0.07483561424413
C          126.71097276508857       -0.09852953124154       -0.08033077791986
C          136.41303053763858       -0.09753413313688       -0.01629775058074
C          137.62984245749809       -0.07594670338358        0.00003338711137
C           95.33407774226558       -0.05178455794190       -0.04073797699787
C           95.95537584040329        0.90595969424258       -0.86468122002244
C           95.30605457938464        1.87648859387951       -1.66987863377875
C           96.26780714609477        2.58518194341696       -2.33601833756331
C           97.53444153986025        2.05465209651999       -1.96900378421785
N           97.29607310673637        1.05334168796329       -1.06725763625760
C           98.79124524439341        2.46382125346996       -2.43374539912366
C           98.79732302307349        3.54787865337235       -3.44478381065675
C           99.44617412448778        4.75648433778274       -3.17321826922780
C           99.44911510723024        5.77807465046570       -4.10533379096342
C           98.80194691542513        5.58759703960616       -5.32274228281729
N           98.79960495302755        6.65824808051968       -6.30532107309131
O           98.21432549904496        6.46312222115948       -7.33924306948274
O           99.38186289961695        7.67344388706513       -6.02366087736871
C           98.15594857885880        4.39015721514066       -5.61564134611443
C           98.15448805745569        3.37662268656146       -4.67455017560990
C          100.02166603286125        1.93962981154608       -2.03365972308035
C          101.29109739074418        2.32314192266126       -2.62543102771643
C          102.24077728175547        1.61502954097503       -1.98068730787289
N          100.22019767776249        1.00088896560114       -1.06814275751992
C          101.55241170362228        0.80198389136781       -0.99830640652430
C          102.22635094477714       -0.04507416826846       -0.09507587925738
C          101.60401781132730       -0.90264469317094        0.83332808046123
C          102.24974799694856       -1.71857323243079        1.79718531885103
C          101.28757210397571       -2.42018116846825        2.47001471411381
C          100.02351501510584       -2.05432150072320        1.93241108423338
N          100.26427396081644       -1.12356617112174        0.95801440558494
C           98.76751430418578       -2.53055872429921        2.32850265221954
C           98.76542560063614       -3.58992944987990        3.36562155424816
C           99.39380381029542       -4.81542093132576        3.12411855410745
C           99.38859271330779       -5.80978753302727        4.08547587898762
C           98.75502208724978       -5.57404155973443        5.30199252113008
N           98.74826984890531       -6.61450620933305        6.31663405198681
O           98.18474083151263       -6.37671984948276        7.35360561722154
O           99.30570305305281       -7.64915321891515        6.05636360230788
C           98.12789942854343       -4.35956142086227        5.56434272250647
C           98.13388555587011       -3.37392681891271        4.59425375388785
C           97.53462284963584       -2.09494539559705        1.83798910419103
C           96.25944145839590       -2.66011921761276        2.24267213460080
C           95.30917996987714       -1.96699574075989        1.58319256835258
C           96.00335842027282       -0.99112202371882        0.76707487823035
N           97.33892281537169       -1.10046938075625        0.93044530850185
H           94.23870699393179        2.01089373387702       -1.72963683698315
H           96.11314586147581        3.40640791536920       -3.01637481062536
H           98.01671669296604        0.49974194877651       -0.61612933234912
H           99.93569835654671        4.89606028698261       -2.21646214715731
H           99.94250398120326        6.72070274283571       -3.90104829696753
H           97.66529091682898        4.26487117059472       -6.57337357272619
H           97.66691292813483        2.43458207181032       -4.89686122021681
H          101.41565143106222        3.02211349365657       -3.43640337674741
H          103.30532135520404        1.61412846286707       -2.14779555111995
H          103.31387578586757       -1.75059726748985        1.96111135061338
H          101.43841830751361       -3.11888343010428        3.27647814334242
H           99.54501574795964       -0.66169280009132        0.41169872875606
H           99.87214213860098       -4.99173288992238        2.16767877281404
H           99.86589995646746       -6.76540284649102        3.90462670982444
H           97.64575459743953       -4.19978887748667        6.52125218584168
H           97.65939284742521       -2.41957355202281        4.79034764942963
H           96.12963174742988       -3.48207350599783        2.92756222990291
H           94.23937148017578       -2.08685680069287        1.62928651294168
C          106.25936873028941       -0.03782910088682       -0.11943938854357
C          106.89462509998579        1.01315702405057       -0.80988030226242
C          106.26684947269554        2.10818511268357       -1.45598737489841
C          107.24010406137151        2.85796890511258       -2.05822253132915
C          108.49237310265822        2.23722583428833       -1.80013723879229
N          108.23547095072276        1.14049910636385       -1.02316382454940
C          109.75254496352071        2.64643353790675       -2.25611604705072
C          109.77532308479795        3.80740030184131       -3.17609698531485
C          110.49377133593659        4.95843177900639       -2.83703521402115
C          110.51835359633012        6.04830593996115       -3.68778063568102
C          109.82376091738561        5.98478998418973       -4.89222044595824
N          109.84905198520319        7.12602049440993       -5.79173597752852
O          109.23861789066615        7.03333949588847       -6.82513458041958
O          110.47831740172279        8.09245530611539       -5.44662191343185
C          109.10576407153306        4.84770820810569       -5.25073945365095
C          109.08171534240066        3.76571706482485       -4.38962929947992
C          110.97342278323966        2.05840794088696       -1.91850482766691
C          112.24469651955242        2.44225880563014       -2.50582333443700
C          113.18647237964569        1.69073340255736       -1.89918377735952
N          111.16144196151859        1.07046291263415       -1.00148016539922
C          112.49127947816208        0.85069310926105       -0.94525796035500
C          113.15498877473807       -0.02502363554449       -0.06166561143887
C          112.51643618351039       -0.91406921397574        0.82592987226875
C          113.14024091971751       -1.75636923053513        1.78085589312205
C          112.16691023173748       -2.50603588789764        2.38311128430973
C          110.91864938823656       -2.14508766887148        1.80741889696666
N          111.17731053805326       -1.16240411869124        0.89066187654095
C          109.66111858367196       -2.69078888954459        2.09698535822635
C          109.63814237078897       -3.82814910516491        3.04571894481140
C          110.35458848847142       -4.99696739370331        2.76976841308708
C          110.32892548150566       -6.06213400695456        3.65150846027832
C          109.58608338364499       -5.95533500522742        4.82358732490722
N          109.55817815627771       -7.07076628051849        5.75491639772140
O          108.90676731442545       -6.94091655685253        6.75881623342417
O          110.18722434259915       -8.05476760938795        5.46318043933983
C          108.86886997326674       -4.79978938455899        5.11930087012365
C          108.89552516862938       -3.74302645791755        4.22780483577244
C          108.44258258003897       -2.25673013664317        1.57041044416415
C          107.17564203129329       -2.92526091706798        1.80718520438364
C          106.23402013529680       -2.18805914176309        1.18288184551666
C          106.92539195429853       -1.07442803948719        0.56596576000571
N          108.25339525982504       -1.15975146664406        0.78758095969608
H          105.20695693583326        2.30056419523732       -1.44851966698425
H          107.10378075905231        3.76714971453631       -2.62047959405506
H          108.94404693593042        0.51383860736949       -0.65674897536847
H          111.02095267414671        4.99897495003858       -1.89103033155060
H          111.06632124319650        6.94677852554805       -3.43053158198373
H          108.57809208359413        4.82177241950826       -6.19658444847383
H          108.53762006122969        2.86949968502299       -4.66427323079018
H          112.37549501638004        3.17099775259368       -3.28915722723686
H          114.24941098674329        1.67725836953016       -2.07543670207044
H          114.19735195131699       -1.77404450028655        1.98694011185216
H          112.30038611628581       -3.23492171836983        3.16556310770774
H          110.47110698213146       -0.68796285081616        0.33818967659003
H          110.91770783501434       -5.07385506291180        1.84691146646342
H          110.87411790698945       -6.97469803456802        3.44243662870151
H          108.30175898602917       -4.74061183385635        6.04048694513231
H          108.35066815766818       -2.83326009118195        4.45128767801351
H          107.04752972609697       -3.84322746416392        2.35734778767804
H          105.17421306316207       -2.37121130658545        1.11679235316171
C          117.18757141103140       -0.02909037394658       -0.05124324184989
C          117.82715281942210        1.01670446815446       -0.74629627431126
C          117.20470589681855        2.11891592273026       -1.38513054645056
C          118.17948156347356        2.85733865642717       -1.99884861097883
C          119.42726666143440        2.22167767808410       -1.75593706688874
N          119.16682524651824        1.12924433518338       -0.97383135838948
C          120.68565350586174        2.61220484305584       -2.23244419263257
C          120.70970103042873        3.76627465529226       -3.16077621509928
C          121.45253173722195        4.90819835254210       -2.84418681436811
C          121.47908921002181        5.99073513478087       -3.70421140785331
C          120.76162661554471        5.92898808209278       -4.89525502042220
N          120.78915856931212        7.06225397894837       -5.80477320638543
O          120.15963177618346        6.97057461567739       -6.82674202479925
O          121.43996989562730        8.02110873153154       -5.47914999531892
C          120.01883965756483        4.80100629604492       -5.23128033644026
C          119.99331174313093        3.72637332141957       -4.36112109195876
C          121.90370334295233        2.00957809762506       -1.91007048653448
C          123.17079588493712        2.37162634718910       -2.51972048855750
C          124.11181569006163        1.61303505881844       -1.92063637038660
N          122.09234789778915        1.02637766430321       -0.98833969288025
C          123.42014118640333        0.79027439257209       -0.94938344211657
C          124.08537333264425       -0.08559153980855       -0.06727904811557
C          123.44831686016359       -0.96191247053495        0.83366025754150
C          124.07401151297421       -1.80401359277215        1.78754786234795
C          123.09922953945990       -2.53661540121586        2.40831144591510
C          121.84818798451133       -2.16539880262976        1.84519072742117
N          122.10715327929488       -1.19419170723389        0.91658903444666
C          120.58763145585546       -2.69298078623482        2.15524768488592
C          120.56241222812864       -3.81807161760358        3.11863932527660
C          121.25986991812289       -4.99988079602027        2.84964966520595
C          121.23278476679874       -6.05200631389297        3.74692760238303
C          120.50782313405480       -5.91891263181387        4.92749103497207
N          120.47916724286016       -7.02010005014378        5.87550942463573
O          119.84510371517108       -6.86672823907551        6.88720546455154
O          121.09249598984418       -8.01582665577794        5.59010080550946
C          119.80922548472500       -4.75023255152318        5.21613554621459
C          119.83685318819752       -3.70681470945179        4.30912713302510
C          119.36791688796735       -2.25153886291465        1.63777724096869
C          118.09741085565393       -2.90613733629321        1.89419149165380
C          117.15627095600904       -2.16773962142557        1.27064983526375
C          117.85103464644205       -1.06622339640224        0.63601574210409
N          119.18029037109692       -1.16059644831783        0.84603890334587
H          116.14748726669450        2.32427715051055       -1.36434902182964
H          118.04715983135819        3.76829250781731       -2.55918065148861
H          119.87209248176494        0.49410548900566       -0.61573780620851
H          121.99748002858585        4.94770173151249       -1.90826216341831
H          122.04620960014431        6.88212928091170       -3.46444497090574
H          119.47348599877006        4.77618755098522       -6.16706551435273
H          119.43016703005631        2.83684442488104       -4.61859149624286
H          123.29926388900533        3.09159666650056       -3.31148942645060
H          125.17162671778725        1.58356947103282       -2.11315363643387
H          125.13347067735386       -1.83312519586376        1.98024554587010
H          123.23376805332387       -3.26063413840921        3.19509478402335
H          121.39987395882687       -0.71521784868055        0.36943596724941
H          121.80925553317607       -5.09713567313219        1.92046298316329
H          121.76334133139804       -6.97444912129050        3.54360606545761
H          119.25570251464057       -4.67063540022700        6.14402238214778
H          119.30637306798818       -2.78715018870738        4.52661848812624
H          117.96680503006453       -3.81690884797071        2.45563603769063
H          116.09415822543721       -2.34146547654653        1.21781515159440
C          128.11853177483766       -0.10337855420456       -0.08487773637080
C          128.75532422750007        0.95769616502846       -0.75841888023627
C          128.12547526471499        2.06051336733654       -1.38979703792296
C          129.09789108721560        2.82610716830312       -1.97248343294574
C          130.35249860460789        2.20966810350834       -1.71476748275574
N          130.09664006808671        1.09599035634245       -0.96118567845608
C          131.61345651845707        2.64738796974386       -2.13978345018670
C          131.63303679730836        3.82845839619564       -3.03437812585035
C          132.31807767657321        4.98837517292672       -2.65921210711733
C          132.34345720511422        6.09086830509137       -3.49378248962110
C          131.68282872288157        6.03131116157693       -4.71735546652664
N          131.71214526549392        7.18424820752832       -5.60169554967032
O          131.13690075033244        7.09184693325801       -6.65521316034892
O          132.31068256364060        8.15865594185786       -5.22596071357389
C          130.99562716292147        4.88657998581537       -5.11018977462821
C          130.97064319215153        3.79191914295980       -4.26540729853923
C          132.83719717435173        2.06822546252755       -1.79655454277690
C          134.11685974521723        2.50416490259660       -2.32753121492354
C          135.05589632051513        1.73651511189079       -1.73748668366292
N          133.01764662679739        1.03554759255385       -0.92956788331210
C          134.34919592676653        0.82913638141977       -0.85541465945511
C          135.00453935497842       -0.11037467226521       -0.03607152988079
C          134.37020303693993       -1.07204348643483        0.77266505922888
C          135.00300404727807       -1.99353316943451        1.64580583419221
C          134.03115180228963       -2.76954385863781        2.21624252180982
C          132.77557327748534       -2.34747655473815        1.70037311969039
N          133.02936391508428       -1.30924833901578        0.84623291459452
C          131.51307790633751       -2.87805628562063        1.99722276507800
C          131.48799170834360       -4.05146339395069        2.90155419966241
C          132.15871979291813       -5.22925918960112        2.55786639406514
C          132.13668744186083       -6.32328225372469        3.40377716248569
C          131.44310599833392       -6.23699646667695        4.60733701063648
N          131.42309693079579       -7.38101454687279        5.50320725668610
O          130.80992676409994       -7.27037579094164        6.53327947821556
O          132.02242140217308       -8.36704914699811        5.15997966333092
C          130.76942865161260       -5.07394744227451        4.96889452178255
C          130.79237420251852       -3.98796329116103        4.11320933571270
C          130.29232557131132       -2.39505964302180        1.52147347918205
C          129.01669373766319       -3.04284286339461        1.77004227733596
C          128.07789927561021       -2.27229546455624        1.18330315615969
C          128.77922128102443       -1.15846254211722        0.57725634422848
N          130.10893595301482       -1.27315028378242        0.77274174060733
H          127.06450831171634        2.24668371725777       -1.38604832810259
H          128.96013492002152        3.74392683915214       -2.52019091710932
H          130.80701237365508        0.46613826546464       -0.60373819870863
H          132.81930438330340        5.02554769780531       -1.69910322577704
H          132.86714731830219        6.99572846808320       -3.20974161840083
H          130.49295589540947        4.86443128283831       -6.06963511487125
H          130.45095622731336        2.88965277562914       -4.56630068348787
H          134.25584701003297        3.27854867770506       -3.06419335680649
H          136.12376676836871        1.75241397974468       -1.88266400782649
H          136.06544331622661       -2.04406473910512        1.81984912073876
H          134.17069674599213       -3.55594499578110        2.93974208511775
H          132.31788614475801       -0.78633725948165        0.34670327579818
H          132.68393468038624       -5.28923505225146        1.61171184194112
H          132.64767803660496       -7.24234691565191        3.14313784876365
H          130.23967402113536       -5.03148671606583        5.91295620702664
H          130.28232265161645       -3.07212684196866        4.38814207678849
H          128.88102066190064       -3.97045851488507        2.30192081170895
H          127.01316469780569       -2.43166296676557        1.13703430679739
