116
 energy: -208.017947944842 gnorm: 1.051360450836 xtb: 6.5.1 (b24c23e)
Ni           9.94158500000000        0.00785800000000        0.00013300000000
C            6.57555000000000       -0.10629400000000       -0.03180400000000
C            7.23848900000000       -1.26472000000000        0.02574900000000
C            6.58685300000000       -2.56765000000000        0.08456100000000
C            7.52671100000000       -3.48802200000000        0.19148700000000
C            8.83287300000000       -2.81524800000000        0.20543900000000
N            8.65671400000000       -1.40233400000000        0.09550400000000
C           10.02176800000000       -3.43317900000000        0.35898100000000
C           10.05754400000000       -4.90437200000000        0.50932500000000
C           10.26281700000000       -5.48083200000000        1.76986300000000
C           10.29148600000000       -6.87213400000000        1.89086200000000
N           10.11882400000000       -7.65596200000000        0.79313700000000
C            9.91688400000000       -7.12101100000000       -0.44061900000000
C            9.88354500000000       -5.73434100000000       -0.60638700000000
C           11.31601000000000       -2.70242900000000        0.39887100000000
C           12.60602600000000       -3.34012200000000        0.68833500000000
C           13.54065500000000       -2.41588000000000        0.60455600000000
N           11.45786700000000       -1.43826800000000        0.13972200000000
C           12.85702900000000       -1.17815000000000        0.25158000000000
C           13.45341600000000       -0.00098100000000       -0.00068600000000
C           12.69555200000000        1.21488500000000       -0.37398600000000
C           13.23884600000000        2.28833700000000       -0.93384900000000
C           12.19617400000000        3.28791000000000       -1.05194400000000
C           11.08451900000000        2.76113900000000       -0.55291500000000
N           11.30926900000000        1.42408300000000       -0.10245000000000
C            9.79941200000000        3.49439300000000       -0.41600600000000
C            9.82226000000000        4.97703400000000       -0.46320100000000
C            9.16054700000000        5.67096600000000       -1.48674700000000
C            9.20475700000000        7.06687300000000       -1.50953600000000
N            9.89139200000000        7.74405900000000       -0.55078400000000
C           10.55059400000000        7.09617600000000        0.44575000000000
C           10.53169300000000        5.70084100000000        0.50620700000000
C            8.63252100000000        2.84561400000000       -0.23868600000000
C            7.32031500000000        3.46191000000000       -0.04882200000000
C            6.45807400000000        2.46837900000000        0.04498500000000
C            7.21046600000000        1.22043200000000       -0.07039200000000
N            8.47882900000000        1.42760100000000       -0.23587700000000
H            5.49240000000000       -0.13427600000000       -0.03199900000000
H            5.52246800000000       -2.76218700000000        0.05941200000000
H            7.33817500000000       -4.55100400000000        0.26908100000000
H           10.39921800000000       -4.85942100000000        2.64630700000000
H           10.45030000000000       -7.32927900000000        2.85832200000000
H            9.78171200000000       -7.77257300000000       -1.29354600000000
H            9.72211000000000       -5.31135000000000       -1.59011800000000
H           12.78412100000000       -4.38084400000000        0.92307300000000
H           14.59841300000000       -2.57900500000000        0.75859400000000
H           14.27202500000000        2.41344200000000       -1.22750600000000
H           12.31415900000000        4.28702300000000       -1.44972000000000
H            8.61990400000000        5.13629300000000       -2.25701800000000
H            8.69409800000000        7.61233800000000       -2.29185900000000
H           11.08885100000000        7.66442700000000        1.19289000000000
H           11.05718700000000        5.18974100000000        1.30344200000000
H            7.07579000000000        4.51425000000000        0.01200500000000
H            5.39095400000000        2.57288900000000        0.19123000000000
Ni          28.25699400000000       -0.00920000000000        0.00266700000000
C           31.62302800000000        0.09073600000000       -0.06107800000000
C           30.96009000000000        1.21585500000000       -0.34280600000000
C           31.61172500000000        2.47960100000000       -0.66534300000000
C           30.67186700000000        3.39130400000000       -0.83062000000000
C           29.36570500000000        2.75164700000000       -0.62167100000000
N           29.54186400000000        1.36780400000000       -0.31607400000000
C           28.17681000000000        3.38752600000000       -0.65441700000000
C           28.14103400000000        4.83887900000000       -0.93829400000000
C           27.93576200000000        5.75692100000000        0.10019600000000
C           27.90709200000000        7.12330200000000       -0.18853300000000
N           28.07975400000000        7.55412400000000       -1.46672600000000
C           28.28169400000000        6.68358500000000       -2.49165900000000
C           28.31503300000000        5.30862000000000       -2.24711200000000
C           26.88256800000000        2.69993900000000       -0.40379500000000
C           25.59255200000000        3.39424300000000       -0.31223500000000
C           24.65792300000000        2.48556900000000       -0.12368500000000
N           26.74071100000000        1.41504200000000       -0.28421300000000
C           25.34154900000000        1.19868100000000       -0.10156200000000
C           24.74516200000000       -0.00098100000000       -0.00068600000000
C           25.50302600000000       -1.27285700000000       -0.00436600000000
C           24.95973200000000       -2.46271200000000       -0.22795400000000
C           26.00240400000000       -3.45344200000000       -0.05033700000000
C           27.11405900000000       -2.80433900000000        0.27398500000000
N           26.88930900000000       -1.39407400000000        0.31626300000000
C           28.39916600000000       -3.46611500000000        0.61816200000000
C           28.37631800000000       -4.89843300000000        1.00406200000000
C           29.03803100000000       -5.85997100000000        0.22648000000000
C           28.99382100000000       -7.20220500000000        0.61051500000000
N           28.30718600000000       -7.57139500000000        1.72473400000000
C           27.64798400000000       -6.66177100000000        2.48985900000000
C           27.66688500000000       -5.30913300000000        2.14203100000000
C           29.56605700000000       -2.79380800000000        0.59920000000000
C           30.87826400000000       -3.32828200000000        0.96004200000000
C           31.74050400000000       -2.35039500000000        0.76094200000000
C           30.98811300000000       -1.18990000000000        0.28772700000000
N           29.71974900000000       -1.43623100000000        0.18962100000000
H           32.70617800000000        0.11745200000000       -0.06940000000000
H           32.67611100000000        2.65842300000000       -0.74596400000000
H           30.86040300000000        4.43092800000000       -1.06542300000000
H           27.79936000000000        5.41716500000000        1.11944700000000
H           27.74827800000000        7.84197500000000        0.60422900000000
H           28.41686700000000        7.05902600000000       -3.49717500000000
H           28.47646800000000        4.61789500000000       -3.06537200000000
H           25.41445700000000        4.45825600000000       -0.39021100000000
H           23.60016600000000        2.68643100000000       -0.02372700000000
H           23.92655299999999       -2.66778900000000       -0.47255400000000
H           25.88442000000000       -4.52504400000000       -0.14045300000000
H           29.57867500000000       -5.57233800000000       -0.66596600000000
H           29.50448000000000       -7.95155700000000        0.02057100000000
H           27.10972700000000       -6.98825600000000        3.36993600000000
H           27.14139100000000       -4.58832600000000        2.75623400000000
H           31.12278800000000       -4.31748000000000        1.32419300000000
H           32.80762400000000       -2.40787200000000        0.93125400000000
C           14.60480900000000        0.01324500000000        0.00926500000000
C           16.06303500000000       -0.00859200000000       -0.00860900000000
C           17.19696400000000       -0.02934600000000       -0.01010000000000
C           18.55834500000000       -0.04193500000000       -0.01229100000000
C           19.83256400000000       -0.03162900000000       -0.01705600000000
C           21.02102600000000       -0.01283100000000       -0.02321200000000
C           22.37338700000000        0.01195400000000       -0.00734400000000
C           23.47365500000000        0.01324500000000        0.00926500000000
116
 energy: -208.277192144208 gnorm: 0.393021116300 xtb: 6.5.1 (b24c23e)
Ni           9.94497628744907        0.00449430981672       -0.00576067365799
C            6.57608307532525       -0.08930548924869       -0.03215389097476
C            7.24627020769752       -1.26491646734756        0.02548377798810
C            6.58743421825667       -2.56004204190094        0.08371964988773
C            7.53750761120877       -3.48893907103957        0.19173015870564
C            8.83207504455779       -2.80694225823957        0.20335973110200
N            8.64360763661120       -1.41266783310557        0.09923178638209
C           10.03616905534250       -3.42986426058087        0.35979092827784
C           10.06103174468038       -4.90453462239794        0.50976748763973
C           10.26353949979451       -5.48343027920624        1.76514518936984
C           10.28881304950278       -6.86996341089663        1.87481894098968
N           10.11879792700825       -7.65526297784026        0.79304385741223
C            9.91907560664733       -7.11514353765705       -0.42521138235795
C            9.88362922053454       -5.73524369138242       -0.60064762359899
C           11.30446936772231       -2.72496345186035        0.40195686313851
C           12.58689828352694       -3.35394898775808        0.68738971060458
C           13.53171208900304       -2.40712178616295        0.60185315607435
N           11.45423811550214       -1.43486273901619        0.14665482184188
C           12.82622707407218       -1.19744343054030        0.25822039900494
C           13.41150195980445        0.01327826817493       -0.00516307561202
C           12.66535050367964        1.21745909246256       -0.36959942104154
C           13.23620005273456        2.30945404756101       -0.93936992276298
C           12.21440847394485        3.29183938038335       -1.05376199871497
C           11.07197662301152        2.75316354904583       -0.54293965903476
N           11.30047947778655        1.42498132540250       -0.11183665001326
C            9.81231156676993        3.48593452492696       -0.41532624328802
C            9.82909190729398        4.97242791005372       -0.46612550026885
C            9.16297235350861        5.67101629781044       -1.48098508310200
C            9.21368094039637        7.06205501445588       -1.49588898656481
N            9.89130288283771        7.74302423811170       -0.55098215948097
C           10.54088617220610        7.09109553601875        0.43291252883033
C           10.53011181985509        5.70120316662170        0.50116272611860
C            8.63311996004309        2.84160839157937       -0.23734855034282
C            7.32887086522315        3.45939612826897       -0.05008210552252
C            6.44991550207154        2.45567490171394        0.04427985563241
C            7.19402674497508        1.21024195961638       -0.06975232811533
N            8.48528276377719        1.43068615743663       -0.22727152269942
H            5.49286436045229       -0.12851723942326       -0.03161469206387
H            5.52329557181426       -2.75371620222002        0.05849151929489
H            7.34877403484715       -4.55108953284710        0.26918108910311
H           10.39884812179868       -4.86059436044181        2.64394160766975
H           10.44851675742636       -7.33204110561714        2.84810737514515
H            9.78352868324761       -7.77288063833713       -1.28293048059629
H            9.72283045893650       -5.31173710818994       -1.58734098133755
H           12.77517369261882       -4.38689301530627        0.92327135762437
H           14.59353245137790       -2.56663754942735        0.75574859641366
H           14.27094512048681        2.41658141467164       -1.22890851809541
H           12.31954433202164        4.28774371614604       -1.45156914814312
H            8.62145661049582        5.13669650158544       -2.25501549350041
H            8.70031954978373        7.61354272794885       -2.28300955438628
H           11.08268959844282        7.66539783111951        1.18389273476947
H           11.05603392373711        5.19021677565247        1.30134423447819
H            7.08567194097389        4.51237378491871        0.01055327303001
H            5.38760558089604        2.56543687638470        0.19121911097484
Ni          28.25406884837819       -0.00792353246344       -0.00388468422966
C           31.62236546490555        0.07453946716641       -0.05650347408410
C           30.95237599260006        1.21577149701226       -0.34309272572265
C           31.61115272552636        2.47222530817730       -0.66398608378325
C           30.66132514106096        3.39221482746709       -0.83060255063575
C           29.36634317267373        2.74265735781609       -0.62115390618941
N           29.55480676250239        1.37902400135763       -0.31540429993846
C           28.16249644235439        3.38452667632422       -0.65281883751246
C           28.13746732349227        4.83928129332373       -0.93798133840103
C           27.93501592935420        5.75807019257228        0.09491821953221
C           27.90975521629850        7.11660333659475       -0.20324883307366
N           28.07976184948716        7.55341535784576       -1.46660745216203
C           28.27952612786437        6.68249145164427       -2.47523236559148
C           28.31493961057831        5.31120400398840       -2.24190661777427
C           26.89525305148123        2.72057732967056       -0.40731441623354
C           25.60891161551838        3.40589487425112       -0.31661371923723
C           24.66613580434842        2.47717305060089       -0.12385515052738
N           26.74903966205480        1.41547719817136       -0.27644174496009
C           25.37451282939427        1.21165644319257       -0.10090073759631
C           24.81668183151040       -0.01336324710073       -0.00184221296442
C           25.53330511288396       -1.26864322035434        0.00095303517525
C           24.96175243523451       -2.48431230857931       -0.22595943018558
C           25.98260521201347       -3.45696530277879       -0.05119842108945
C           27.12684274470438       -2.79309487368020        0.28123971049852
N           26.89940631813993       -1.39784207867079        0.30644443260531
C           28.38568696242892       -3.45766320120678        0.61634685873624
C           28.36939441273191       -4.89490802317095        0.99986489780485
C           29.03559394333974       -5.85833754215289        0.23199783719912
C           28.98489918114951       -7.19363547972855        0.62217387969324
N           28.30727871293293       -7.57043873174298        1.72424060224462
C           27.65769737271552       -6.66065506198413        2.47609844910301
C           27.66847684994079       -5.31093619615584        2.13730234212608
C           29.56540704664761       -2.78932934973848        0.59938822554338
C           30.86963605089143       -3.32620284376606        0.95803984310835
C           31.74866187956698       -2.33838830201739        0.75654289456301
C           31.00458648851424       -1.17994960547895        0.28534390644454
N           29.71323897871310       -1.43678845247104        0.19882307635793
H           32.70565286110080        0.11209532554812       -0.06736716979115
H           32.67529295467164        2.65011360160686       -0.74440010050440
H           30.84985110212920        4.43102734112961       -1.06535717275923
H           27.79974510442992        5.41760541809833        1.11684462880647
H           27.75006570245944        7.84166567166760        0.59365679048528
H           28.41505041131000        7.06242628068988       -3.48711747998060
H           28.47575024766524        4.61908047897661       -3.06282152298206
H           25.42279744591927        4.46362706432568       -0.39171123102918
H           23.60482373477242        2.67467144142135       -0.02287583358667
H           23.92764511129436       -2.67155606171129       -0.47300446310705
H           25.87872994076587       -4.52597334352292       -0.14213677273982
H           29.57711896914810       -5.57214069063234       -0.66393712947941
H           29.49825831469623       -7.95013728802632        0.02939021837580
H           27.11588885810027       -6.99180059675634        3.36160394809002
H           27.14255016130367       -4.58938984587099        2.75436441717198
H           31.11286570182926       -4.31607259721537        1.32223907446467
H           32.81096338928144       -2.40073707713060        0.92907630644678
C           14.70077270070722        0.02901557063348        0.00540324079769
C           15.99838442923303       -0.00486784637227       -0.00802135989319
C           17.24733002298129       -0.02983196293620       -0.00917461206816
C           18.52517667989283       -0.04293239855583       -0.01263141153070
C           19.79601100260916       -0.03164533874716       -0.01736138855817
C           21.01404081091807       -0.01013844844109       -0.02385541903735
C           22.30202543407281        0.00620864794819       -0.00749047706353
C           23.50813433105545       -0.00390139995955        0.01364188840145
116
 energy: -208.351050765365 gnorm: 0.164685973552 xtb: 6.5.1 (b24c23e)
Ni           9.95041487954816        0.00005624331248       -0.01241247355171
C            6.57888668027578       -0.07072621583349       -0.03168601755750
C            7.25464221193495       -1.26312539418538        0.02532639225098
C            6.59307731247209       -2.54901722512970        0.08230934732269
C            7.55306752978760       -3.48489702880454        0.19090046590999
C            8.83223115180062       -2.79519790283969        0.20064265334735
N            8.62836058703332       -1.42335136687070        0.10394288391363
C           10.05201604952384       -3.42160438557849        0.36020140115826
C           10.06575059484081       -4.90007364642612        0.50999948204778
C           10.26559386457168       -5.48476130406834        1.75888384031193
C           10.28581378764958       -6.86824922688040        1.85621892692759
N           10.11887225757564       -7.65720566824007        0.79326803273868
C            9.92115722710752       -7.10838538844936       -0.40676520695208
C            9.88401512639956       -5.73388070194742       -0.59297866945595
C           11.29008313659762       -2.74264304310086        0.40638243320129
C           12.56473234987052       -3.36348362779699        0.68340093656069
C           13.51264679688198       -2.39813560893718        0.59871291916760
N           11.45248838850980       -1.42496180291703        0.16262183055648
C           12.80811613039209       -1.19507272198499        0.26206665030544
C           13.39602063592354        0.03229770165425       -0.01383275645858
C           12.64821337996889        1.21215351772712       -0.36072974786789
C           13.23305915121685        2.33549460988179       -0.93780805086260
C           12.23798118272160        3.29426486221689       -1.04692341091883
C           11.06397827845352        2.74231713116868       -0.53205234724840
N           11.29548876695284        1.41899184124540       -0.13992452125070
C            9.83378844679155        3.46767539399382       -0.41316849171242
C            9.84376466753836        4.95828624942898       -0.47317814303282
C            9.16847287256111        5.66543449156593       -1.47351727219667
C            9.22369295646206        7.05342260884937       -1.47864593453282
N            9.89131890691222        7.74213699461369       -0.55126660532451
C           10.52930012917582        7.08332589458695        0.41768094888882
C           10.53100351081562        5.69710477067045        0.49253540133415
C            8.63634039104749        2.82714212806968       -0.22953217345387
C            7.34110168225591        3.44609357804246       -0.05192440574802
C            6.44464290530673        2.43931325643260        0.04044645510198
C            7.17748166613579        1.19810079098117       -0.06696759741949
N            8.49300937794288        1.43023930271511       -0.20976028808131
H            5.49528969565941       -0.11867112462740       -0.02955073618869
H            5.52825253715207       -2.73586871695176        0.05636037761891
H            7.37256872263778       -4.54795992520487        0.26871160445254
H           10.39883528055261       -4.86355730395558        2.63946697307453
H           10.44480545496335       -7.33757912923470        2.82849831095630
H            9.78680977740419       -7.77289898297039       -1.26228594492607
H            9.72430554968427       -5.31262642547574       -1.58126804910150
H           12.75637629562548       -4.39541631855939        0.92118204825660
H           14.57632206864418       -2.54669443022683        0.75037867082518
H           14.26731106824110        2.42467520384175       -1.23081524592249
H           12.32770407583682        4.28833159537566       -1.45214847756929
H            8.62505028487182        5.13617089401093       -2.25042060605288
H            8.71211742465879        7.61303907120026       -2.26491194759635
H           11.06993531839278        7.66571627734007        1.16668809591427
H           11.05521277563833        5.19064898593599        1.29687695297916
H            7.10779921753748        4.50196399977808        0.00683474102977
H            5.38342773946118        2.55099584136961        0.18909486985951
Ni          28.25137361721952       -0.00525707685329       -0.01159345169095
C           31.61979246958334        0.05684093437903       -0.05063942438777
C           30.94448640566737        1.21420580144424       -0.34277646591262
C           31.60614300077014        2.46128003887797       -0.66219197428002
C           30.64671770080085        3.38843084985801       -0.83042452651747
C           29.36754403917696        2.73175728317367       -0.62052215762367
N           29.57076239145461        1.39134823703418       -0.31419097488808
C           28.14982386666379        3.38011752953120       -0.65042226454378
C           28.13422717581048        4.83677911759784       -0.93668848784508
C           27.93320162856106        5.75822043196830        0.08858239654280
C           27.91268092868285        7.11004043226779       -0.22055620804245
N           28.07967781257480        7.55571099887280       -1.46703828969110
C           28.27739001823659        6.68188238487471       -2.45586559971449
C           28.31483396222195        5.31281504389708       -2.23455202539943
C           26.91424728965551        2.74560507904803       -0.40912697099622
C           25.63435392525593        3.41721555693576       -0.32386701097239
C           24.69083480609129        2.46829474742952       -0.12419071187805
N           26.76209938112255        1.41812047861595       -0.26021331916820
C           25.41002357440023        1.22132657632080       -0.09611468622785
C           24.86159434538635       -0.03656259034863       -0.00476641955123
C           25.56597121411409       -1.26931219860691        0.00523748379874
C           24.97012854568320       -2.50983954937263       -0.21692132423779
C           25.96135319561893       -3.45947437172383       -0.04325041051584
C           27.13824432797583       -2.78395649539951        0.28838419034959
N           26.91483209740989       -1.40610355633419        0.27849192360933
C           28.36650211684485       -3.44159004298233        0.61324247473520
C           28.35556531618755       -4.88435796295933        0.98945031881734
C           29.03037028379938       -5.85135895911424        0.23752401820818
C           28.97494033422263       -7.18072696504546        0.63617343875034
N           28.30723708720452       -7.56988031767343        1.72375236066815
C           27.66924925249743       -6.65786058767072        2.45934631970214
C           27.66769360364346       -5.30981732913270        2.12797687873023
C           29.56304859556493       -2.77392852063396        0.60266848970605
C           30.85801093549470       -3.31415949563515        0.95259085614345
C           31.75424758175079       -2.32387503803805        0.74819406640991
C           31.02138558855294       -1.16762065820931        0.28453882998882
N           29.70592262299534       -1.43169732521776        0.21542438141552
H           32.70338355365114        0.10316291321475       -0.06251678965379
H           32.67086600533817        2.63228166503742       -0.74124892225095
H           30.82661305732380        4.42817778951054       -1.06498862649885
H           27.79985060101269        5.41932910614212        1.11160160307217
H           27.75370779625827        7.84158117514918        0.57333606402782
H           28.41174567614526        7.06878087070441       -3.46758509640179
H           28.47435777622007        4.62193589796531       -3.05734108599843
H           25.44190228495441        4.47311888067472       -0.39643964585023
H           23.62550257280228        2.65070032134882       -0.02218997060784
H           23.93422291025040       -2.67697411972461       -0.47166256797033
H           25.87050216056895       -4.52790505174439       -0.14219453086936
H           29.57361283944536       -5.57051594786622       -0.65970686368531
H           29.48648947879308       -7.94466011093857        0.04653859965669
H           27.12859086077976       -6.99721333715279        3.34530367782643
H           27.14347044131671       -4.59118384099628        2.75015340779256
H           31.09114234681810       -4.30731532935152        1.31576254595093
H           32.81539012995319       -2.38748714559149        0.92285480011480
C           14.75477455656545        0.04913929527397       -0.00515325066623
C           15.93497047839197        0.00233471316642       -0.00903512084947
C           17.24217506387675       -0.02765133888720       -0.00684011883337
C           18.46101907240667       -0.04255298936067       -0.01346995698083
C           19.76413800116977       -0.03037386278472       -0.01715630928669
C           20.99838970963581       -0.00563805871506       -0.02431607833660
C           22.29259077723657       -0.00719804526174       -0.00773244531382
C           23.50833955227115       -0.03767554979950        0.01900543309246
116
 energy: -208.377531983362 gnorm: 0.095324625965 xtb: 6.5.1 (b24c23e)
Ni           9.94463250339409       -0.00237303167710       -0.01552537625085
C            6.57814530396379       -0.06118983378699       -0.02835423619587
C            7.25669180613308       -1.26283427115102        0.02592464385664
C            6.59665474222090       -2.54040069736921        0.07968496436672
C            7.56227930821985       -3.48022158850383        0.18774457474330
C            8.82602578189851       -2.78825195233511        0.19891741491738
N            8.61591660727638       -1.43030594941004        0.10616167339247
C           10.04970357600324       -3.42122432996419        0.36327493792636
C           10.06402341897168       -4.89845979473575        0.51163656002690
C           10.26719484889839       -5.48728707061048        1.75518250467026
C           10.28446276809173       -6.86966027383385        1.84462818864295
N           10.11895104065899       -7.66263723044230        0.79389801056931
C            9.92229286547548       -7.10552175572322       -0.39426773543559
C            9.88336947217559       -5.73369958833460       -0.58666648944494
C           11.26265044727350       -2.75702719051780        0.41606042089140
C           12.53627631987395       -3.36662292970844        0.67837381593338
C           13.47183646132689       -2.38141901758802        0.59394056167104
N           11.41331480265220       -1.42218478420266        0.18297904260190
C           12.75098388984586       -1.18351741254162        0.27056154448824
C           13.31754873058536        0.05483181155476       -0.02232881036613
C           12.60341233228864        1.21428864470576       -0.36791364302250
C           13.21954220468941        2.35884608216751       -0.93022204213033
C           12.25159046993159        3.30849869951533       -1.03487726535122
C           11.05193421598895        2.74334877430145       -0.53277423739935
N           11.26427623840756        1.42142495439499       -0.17751278945325
C            9.84571897214797        3.45195500971621       -0.41179371723513
C            9.85742321302721        4.94161667766284       -0.48057022147874
C            9.17557144058762        5.65461848180967       -1.46921388487331
C            9.23048930802095        7.04137637870901       -1.46673062585317
N            9.89092482693611        7.73843286664878       -0.55124679335561
C           10.52312535509564        7.07312818655582        0.40655268547499
C           10.53682118385122        5.68822443870781        0.48261584415603