177
 energy: -301.144907425567 gnorm: 0.537140481079 xtb: 6.5.1 (b24c23e)
Ni          31.04059900000000        0.36747100000000        0.27330600000000
C           27.70605600000000        0.24130600000000        0.23164700000000
C           28.36694800000000       -0.92009400000000        0.23241500000000
C           27.71506300000000       -2.22277500000000        0.28281100000000
C           28.65375700000000       -3.14966500000000        0.22795600000000
C           29.95864200000000       -2.48165700000000        0.12870300000000
N           29.78304300000000       -1.06427100000000        0.14308100000000
C           31.14908000000000       -3.10786300000000        0.01384000000000
C           31.20032200000000       -4.58851100000000       -0.03544000000000
C           30.72962000000000       -5.24916600000000       -1.10425300000000
C           30.71876000000000       -6.75480600000000       -1.17844500000000
N           31.52242200000000       -7.37226800000000       -0.12031900000000
C           31.96917500000000       -6.64398500000000        1.02800900000000
C           31.81999200000000       -5.32263500000000        1.08464000000000
C           32.43947100000000       -2.37331800000000       -0.06334700000000
C           33.71975100000000       -3.00285200000000       -0.41082200000000
C           34.65425500000000       -2.07538400000000       -0.35054400000000
N           32.58524000000000       -1.11021300000000        0.19590200000000
C           33.97825700000000       -0.84318200000000        0.03526700000000
C           34.57426799999999        0.33649700000000        0.27485900000000
C           33.81024500000000        1.54577700000000        0.65019800000000
C           34.33437700000000        2.60738400000000        1.25012800000000
C           33.29226900000000        3.61323400000000        1.33345500000000
C           32.20233800000000        3.09949600000000        0.77370200000000
N           32.44048400000000        1.76765300000000        0.31613900000000
C           30.93121200000000        3.84025500000000        0.57308800000000
C           30.97043300000000        5.32414900000000        0.57841900000000
C           30.29376600000000        6.02258800000000        1.50543300000000
C           30.26933700000000        7.52964400000000        1.51671100000000
N           31.27612600000000        8.11276900000000        0.62612100000000
C           31.95240900000000        7.34437800000000       -0.37493600000000
C           31.81384900000000        6.02104900000000       -0.41282800000000
C           29.76986900000000        3.19185900000000        0.35953600000000
C           28.46843000000000        3.80485100000000        0.09807200000000
C           27.60512300000000        2.81060000000000        0.01368000000000
C           28.34702300000000        1.56566600000000        0.20577900000000
N           29.60903500000000        1.77574200000000        0.40805000000000
H           26.62283000000000        0.21631500000000        0.24646100000000
H           26.65216700000000       -2.41380500000000        0.35593700000000
H           28.46442600000000       -4.21440800000000        0.25075800000000
H           30.28259300000000       -4.69909100000000       -1.92449300000000
H           31.11606300000000       -7.07089400000000       -2.16670100000000
H           29.67024300000000       -7.10884200000000       -1.08984600000000
H           31.67323700000000       -8.40516200000000       -0.14707500000000
H           32.45091800000000       -7.16879500000000        1.84353600000000
H           32.17918900000000       -4.78061400000000        1.95168500000000
H           33.88715300000000       -4.03947100000000       -0.67296600000000
H           35.70540300000000       -2.23044300000000       -0.55187600000000
H           35.35580800000000        2.72090500000000        1.58843200000000
H           33.39625700000000        4.60846200000000        1.74659900000000
H           29.69415600000000        5.50050000000000        2.24207900000000
H           30.45428700000000        7.88303100000000        2.55280400000000
H           29.26167700000000        7.87319400000000        1.20120300000000
H           31.41880400000000        9.14657300000000        0.64228100000000
H           32.59322600000000        7.84151500000000       -1.09245900000000
H           32.34227900000000        5.45040300000000       -1.16710500000000
H           28.23028000000000        4.85471200000000       -0.00959600000000
H           26.54269900000000        2.91300200000000       -0.16784500000000
Ni          51.53085800000000        0.30657800000000        0.26669300000000
C           54.86540100000000        0.43874400000000        0.25308600000000
C           54.20450900000000        1.57291000000000        0.50311800000000
C           54.85639400000000        2.83441400000000        0.83194800000000
C           53.91770000000000        3.75147400000000        0.97731900000000
C           52.61281500000000        3.12033900000000        0.73699800000000
N           52.78841400000000        1.73290200000000        0.44681300000000
C           51.42237699999999        3.75660400000000        0.75922100000000
C           51.37113399999999        5.21332100000000        1.02889600000000
C           51.84183600000000        6.08798800000000        0.12679600000000
C           51.85269700000000        7.57446100000000        0.37750400000000
N           51.04903500000000        7.95041600000000        1.54350100000000
C           50.60228200000000        6.99263000000000        2.50874700000000
C           50.75146500000000        5.68992100000000        2.28044300000000
C           50.13198600000000        3.05574800000000        0.52617000000000
C           48.85170600000000        3.74519100000000        0.32191700000000
C           47.91720099999999        2.82640000000000        0.18171800000000
N           49.98621599999999        1.76643600000000        0.50826400000000
C           48.59320000000000        1.54010700000000        0.29405700000000
C           47.99718900000000        0.33649700000000        0.27485900000000
C           48.76121200000000       -0.92516200000000        0.38189000000000
C           48.23707900000000       -2.09079500000000        0.73997400000000
C           49.27918800000000       -3.09108800000000        0.60546400000000
C           50.36911900000000       -2.46917800000000        0.16902500000000
N           50.13097300000000       -1.07016400000000        0.00799400000000
C           51.64024400000000       -3.14961200000000       -0.18591000000000
C           51.60102400000000       -4.60006600000000       -0.49920600000000
C           52.27769100000000       -5.48120000000000        0.25629000000000
C           52.30212000000000       -6.95555300000000       -0.05617000000000
N           51.29533099999999       -7.33393000000000       -1.05116500000000
C           50.61904800000000       -6.36858100000000       -1.86396300000000
C           50.75760800000000       -5.06796200000000       -1.61693300000000
C           52.80158800000000       -2.47049100000000       -0.25531300000000
C           54.10302699999999       -3.01307600000000       -0.64225600000000
C           54.96633400000000       -2.02388300000000       -0.51127400000000
C           54.22443400000000       -0.84919700000000       -0.05644000000000
N           52.96242199999999       -1.09779200000000        0.09602600000000
H           55.94862700000000        0.45997300000000        0.27291900000000
H           55.91928999999999        3.00529500000000        0.94437200000000
H           54.10703100000000        4.78650700000000        1.22812700000000
H           52.28886400000000        5.72679000000000       -0.79239400000000
H           51.45539400000000        8.09530200000000       -0.51987400000000
H           52.90121400000000        7.90122900000000        0.54002900000000
H           50.89822000000000        8.96497900000000        1.73906900000000
H           50.12053900000000        7.33016300000000        3.41791100000000
H           50.39226800000000        4.97443000000000        3.01094000000000
H           48.68430399999999        4.81391600000000        0.28838200000000
H           46.86605300000000        3.02106000000000        0.01836000000000
H           47.21564900000000       -2.27428400000000        1.04602800000000
H           49.17520000000000       -4.15179700000000        0.79536200000000
H           52.87730100000000       -5.12939500000000        1.08782800000000
H           52.11717000000000       -7.52309000000000        0.87992400000000
H           53.30978000000000       -7.22337500000000       -0.43806400000000
H           51.15265300000000       -8.34710800000000       -1.25727700000000
H           49.97823000000000       -6.70012300000000       -2.67146900000000
H           50.22917800000000       -4.34871800000000       -2.23114700000000
H           54.34117699999999       -4.01535800000000       -0.97275700000000
H           56.02875800000000       -2.08493600000000       -0.71054800000000
C           35.95181200000000        0.33649700000000        0.27485900000000
C           37.17372999999999        0.33649700000000        0.27485900000000
C           45.39772700000000        0.33649700000000        0.27485900000000
C           46.61964400000000        0.33649700000000        0.27485900000000
Ni          40.99709399999999       -0.14859400000000       -0.41324000000000
C           38.16344400000000       -0.70841400000000       -0.57865100000000
C           38.48267200000000        0.33690700000000       -1.34364800000000
C           38.27851099999999        1.73741000000000       -0.96904800000000
C           39.08766399999999        2.48915200000000       -1.69679700000000
C           39.95263800000000        1.59871600000000       -2.47446300000000
N           39.53786300000000        0.24731500000000       -2.29374200000000
C           41.18517400000000        1.93652900000000       -2.89237200000000
C           41.52983999999999        3.35253100000000       -3.19050600000000
C           40.73628700000000        4.08520900000000       -3.99016000000000
C           41.04483400000000        5.51535600000000       -4.35181100000000
N           42.17318800000000        6.05593800000000       -3.58784800000000
C           43.03135500000000        5.23511700000000       -2.79369800000000
C           42.74134300000000        3.95397000000000       -2.59695200000000
C           42.28583600000000        0.96971600000000       -2.69945100000000
C           43.41579100000000        0.77024800000000       -3.60866600000000
C           44.31281600000000        0.03223000000000       -2.97142700000000
N           42.49652600000000        0.41535100000000       -1.54839900000000
C           43.77340999999999       -0.20302900000000       -1.63394000000000
C           44.43689800000000       -0.70841400000000       -0.57865100000000
C           43.83463199999999       -0.75699800000000        0.77681100000000
C           44.51287100000000       -0.76257800000000        1.92107200000000
C           43.53865800000000       -0.81956600000000        3.00309800000000
C           42.33066100000000       -0.85534400000000        2.44584600000000
N           42.43342100000000       -0.81400900000000        1.02097000000000
C           41.04220800000000       -0.99917200000000        3.18557900000000
C           41.05648600000000       -1.43152700000000        4.60609000000000
C           41.63541700000000       -2.59259100000000        4.95051900000000
C           41.70551300000000       -3.05466400000000        6.38279400000000
N           40.76323300000000       -2.33647500000000        7.23947900000000
C           40.23636799999999       -1.05624700000000        6.87439800000000
C           40.37725300000000       -0.61001100000000        5.62595700000000
C           39.86741800000000       -0.83243200000000        2.54588200000000
C           38.53684500000000       -1.22879600000000        3.01322300000000
C           37.73642400000000       -1.15587400000000        1.95804800000000
C           38.53292900000000       -0.66242100000000        0.83606000000000
N           39.76573399999999       -0.48675000000000        1.17590400000000
H           37.59918700000000        2.10613700000000       -0.21262400000000
H           39.18876399999999        3.55981600000000       -1.58910700000000
H           39.86047800000000        3.63353800000000       -4.43868400000000
H           41.27878700000000        5.56784400000000       -5.43818100000000
H           40.14420899999999        6.13669100000000       -4.15411900000000
H           42.41465500000000        7.06119200000000       -3.70390500000000
H           43.91122400000000        5.66300900000000       -2.33688800000000
H           43.39404699999999        3.35753200000000       -1.97300200000000
H           43.52123599999999        1.16936300000000       -4.60974300000000
H           45.27098800000000       -0.27361000000000       -3.36986100000000
H           45.58715500000000       -0.71763100000000        2.03360900000000
H           43.76072800000000       -0.85050800000000        4.06301100000000
H           42.12186300000000       -3.19708500000000        4.19969600000000
H           42.73501000000000       -2.89556800000000        6.76197100000000
H           41.47531100000000       -4.14032800000000        6.42104400000000
H           40.60233800000000       -2.68658700000000        8.21074600000000
H           39.69397300000000       -0.47207700000000        7.59953400000000
H           39.95900899999999        0.35538300000000        5.35943900000000
H           38.25801600000000       -1.59659300000000        3.99071600000000
H           36.69609400000000       -1.44094200000000        1.93594900000000
177
 energy: -301.328623300689 gnorm: 0.350458704131 xtb: 6.5.1 (b24c23e)
Ni          31.04996886552234        0.35724704298128        0.27360193573166
C           27.70602884262763        0.26078457512680        0.23081486730764
C           28.37444762666306       -0.91860969957807        0.23345742445813
C           27.71726927718614       -2.21356788000456        0.28290977429864
C           28.66762724544112       -3.14945885767472        0.22723614949486
C           29.96027445349823       -2.47192145113753        0.13166262555535
N           29.76699410900032       -1.07528702126570        0.14205988761316
C           31.16602218491614       -3.10410907632357        0.01593265975493
C           31.20858858586038       -4.58630769775411       -0.03486615029156
C           30.72968831725007       -5.25058729483918       -1.09581440247400
C           30.72172363705757       -6.75714927988754       -1.17267104008826
N           31.53173497903361       -7.36804928255416       -0.11029899344667
C           31.96219468583129       -6.64868936404973        1.01271898107088
C           31.81924011818528       -5.31699112198103        1.07827402566356
C           32.42653316291423       -2.39347131680219       -0.06396044455911
C           33.69949836495507       -3.01780183555268       -0.40741529790409
C           34.64351665360811       -2.06799036345917       -0.34688039577137
N           32.57981411716925       -1.10310329011288        0.17876102675168
C           33.95654884445452       -0.84975834798621        0.03011893065108
C           34.54026606512367        0.35138028638915        0.27790939349464
C           33.78804705774520        1.54314738813246        0.63839086850356
C           34.33380957303893        2.63268788668386        1.25374444234361
C           33.31550315638096        3.61738944581800        1.33420306482315
C           32.19277265310474        3.08894245029890        0.76115549312934
N           32.42968498998484        1.76397679151813        0.33433448651833
C           30.94972945341497        3.82874738490241        0.56831974509661
C           30.98228055322160        5.31570820394638        0.58035155108071
C           30.29644852554359        6.02027447916970        1.49549293576008
C           30.27417082987974        7.52979296651980        1.51148166876760
N           31.28710413670339        8.10739643387122        0.61831976000936
C           31.94132435074089        7.34824113472458       -0.36173783089331
C           31.81149313448527        6.01399160131372       -0.40662466091773
C           29.77330978129270        3.18554441130211        0.35652323035720
C           28.47917095955778        3.79869851594310        0.10041361608779
C           27.59508747473295        2.79463930643336        0.01618388845143
C           28.32766258053506        1.55405032198470        0.20645926489333
N           29.61660651167081        1.77663991010239        0.39590273797288
H           26.62303401148408        0.22596384643902        0.24437902908821
H           26.65402309356151       -2.40069782034656        0.35579837929571
H           28.48176308881291       -4.21445562714317        0.24984250130411
H           30.28516004144234       -4.70681167625759       -1.92417711496555
H           31.11328927373333       -7.07359654289213       -2.15816785708660
H           29.67452677498410       -7.11187019571767       -1.09376801302451
H           31.66957198295997       -8.38193120557995       -0.14180320907228
H           32.44499901800620       -7.18166986955382        1.82701728970299
H           32.17649223377355       -4.77757308690569        1.94742869953133
H           33.87292745002868       -4.04802200910305       -0.67147586496190
H           35.69862593854316       -2.21424609835909       -0.54802761520556
H           35.35465620615716        2.72845592257614        1.59154748679076
H           33.40549054576039        4.60862291477293        1.74956798041863
H           29.69666475837670        5.50744603516940        2.24153751511008
H           30.45322179289565        7.88517320104619        2.54389094398171
H           29.26585230884778        7.87527745172591        1.20547833328323
H           31.41605183295820        9.12274356132522        0.63749992709814
H           32.58366852604830        7.85408492289825       -1.07759397199105
H           32.33927247304736        5.44699507871785       -1.16355160861978
H           28.24655147575764        4.85045930940646       -0.00711421184337
H           26.53759025969189        2.90086477143001       -0.16775199842737
Ni          51.52107556514966        0.31642634834880        0.26927326937961
C           54.86553939827820        0.41966684148971        0.24816762957585
C           54.19679591315209        1.57114668988176        0.50400562322384
C           54.85411413691423        2.82532027745769        0.83010999184632
C           53.90380670526653        3.75149426407731        0.97675532251342
C           52.61116592687313        3.11067186648587        0.73768957468968
N           52.80458107147530        1.74372985531071        0.44784643761742
C           51.40601064125264        3.75255506356291        0.76060299230888
C           51.36296126815929        5.21093036447958        1.02906507450210
C           51.84164843149975        6.08757843678908        0.13541043803005
C           51.84977476736366        7.57550490657868        0.38370049089525
N           51.03968900208865        7.94430259426166        1.55225034254963
C           50.60918934287142        7.00034045578722        2.49499397405248
C           50.75225381267713        5.68583441963228        2.27300471156753
C           50.14454843486112        3.07536640874501        0.53078229079946
C           48.87267625262007        3.75805588616392        0.32864003485870
C           47.92923611847344        2.81553580596489        0.18352383626340
N           49.99183496869678        1.76289585044040        0.49012243608380
C           48.61642496027760        1.54342600457187        0.28594966907391
C           48.02716413040758        0.31335441072009        0.26854278076894
C           48.78014167435304       -0.92328739113570        0.37296237359152
C           48.23632728198748       -2.11887384936853        0.73844757457111
C           49.25607339452138       -3.09608696169587        0.60571860552070
C           50.37787045697456       -2.45595150820089        0.15905707511405
N           50.13903209388807       -1.07005336073203        0.02615081487551
C           51.62168900569404       -3.13699216223076       -0.18798633540214
C           51.58905140527833       -4.59207222606220       -0.49530720025524
C           52.27486978033596       -5.47676106334016        0.24718076878798
C           52.29730828597659       -6.95454554197484       -0.06127370074335
N           51.28443272593817       -7.32707557199616       -1.05754449614320
C           50.63008908976983       -6.37509287638098       -1.85189279071197
C           50.76003760588784       -5.06239968255151       -1.60927090371260
C           52.79805559947261       -2.46365937005993       -0.25679667636764
C           54.09228272737188       -3.00758233535291       -0.63862052844798
C           54.97636420978171       -2.00883545937577       -0.50535719195850
C           54.24386563715127       -0.83784646656848       -0.05314101092805
N           52.95482098431590       -1.09603041539152        0.08424955985184
H           55.94852703449510        0.45093670200534        0.26879609814464
H           55.91743612166674        2.99246687570584        0.94148623655555
H           54.08980029086653        4.78683463623880        1.22735841978912
H           52.28635078499752        5.73429890074610       -0.79030527391534
H           51.45820734929988        8.09620373352025       -0.51094126915601
H           52.89695976757806        7.90513103308161        0.53692589780089
H           50.90199028035165        8.94125334123150        1.73930122835386
H           50.12643500018672        7.34628903844985        3.40468315998720
H           50.39498644715869        4.97242087709099        3.00612956216929
H           48.69860377131172        4.82130597445626        0.29152874616759
H           46.87388424769204        3.00276840397414        0.01938263707798
H           47.21601902601039       -2.28419192131308        1.04760740568442
H           49.16638821357970       -4.15317017745780        0.79844452362416
H           52.87479421855259       -5.13607739515522        1.08584240424263
H           52.11824760063114       -7.52330816868338        0.87080774828959
H           53.30564238077717       -7.22641038984677       -0.43428839712920
H           51.15540500276472       -8.32284190962848       -1.25676790624674
H           49.98777159260846       -6.71558831999313       -2.65962316686801
H           50.23220655071072       -4.34617640936247       -2.22686678790083
H           54.32493341316874       -4.01178479300238       -0.96938582307537
H           56.03391204191781       -2.07314992043206       -0.70779050752532
C           35.91845942653238        0.33440597121507        0.28615350003773
C           37.13953386051638        0.29218941201412        0.29890220883489
C           45.42021699593045        0.32809939792119        0.22124183804017
C           46.64875551922437        0.33417719249976        0.24730136651770
Ni          41.02829953342535       -0.16024318854241       -0.38591153865810
C           38.11739646848387       -0.67334036106579       -0.55479296330509
C           38.53124382806379        0.36197348017620       -1.34447541847015
C           38.27488927833936        1.75552534870385       -1.00031632183539
C           39.09535673746984        2.50693254946107       -1.72272729054480
C           39.95620535222271        1.60009022432915       -2.47118970295462
N           39.57513364073809        0.26603989186430       -2.25530019470739
C           41.20232319008936        1.94519875141332       -2.89564062332305
C           41.53739995821338        3.34947127108649       -3.19139612630343
C           40.74152012882607        4.08638670999015       -3.98605129271022
C           41.05032894062942        5.51651187654962       -4.34785465949704
N           42.18068405799092        6.05226412571363       -3.57813044727613
C           43.01878657427076        5.24071529589506       -2.80455808111824
C           42.73812701610416        3.94686528254838       -2.60235011499652
C           42.28781009241911        0.98602100567021       -2.72726763489717
C           43.40656901546144        0.78301844037225       -3.61785458962613
C           44.31471321909657        0.03801756595366       -2.95660267753901
N           42.47838739107101        0.37250359958921       -1.57580048686533
C           43.77037633706745       -0.19349923858584       -1.63675276473605
C           44.42255663309855       -0.64398289811536       -0.52066938228283
C           43.79368330590806       -0.76653623199236        0.77982776026085
C           44.50444142907710       -0.78010612682842        1.96023012959581
C           43.55530301153963       -0.82003848435025        3.00839325736770
C           42.31200049423569       -0.85374251174383        2.43438326503057
N           42.41794639204231       -0.81865344356477        1.03225520628892
C           41.05343461134071       -0.99416275840142        3.17676752118103
C           41.06288785881699       -1.42332004841366        4.60018738989189
C           41.63749221988670       -2.58330625192103        4.95299601072983
C           41.70155662365759       -3.05040190694846        6.38570591140231
N           40.75179513883572       -2.32724100248701        7.23741053807317
C           40.24460186883496       -1.07252692191754        6.87142599055114
C           40.38013909311880       -0.61386442923476        5.61655747730597
C           39.86867293844086       -0.83376469143019        2.53990869084835
C           38.54794533131990       -1.23012969715247        3.01813434157576
C           37.73043012279902       -1.18541064036667        1.96331439828227
C           38.51267497620155       -0.69837511364437        0.83764751768441
N           39.76838404165066       -0.48486882376708        1.17827359316697
H           37.60804723098156        2.11574252528711       -0.22972050128085
H           39.20248788893557        3.57004431666253       -1.60347682046711
H           39.86230069188052        3.64016753726883       -4.43969394015456
H           41.27558455888008        5.57209295537071       -5.43290409286903
H           40.15281925613137        6.13646817289408       -4.15718753877244
H           42.41357563938318        7.03949056654144       -3.70148682321491
H           43.89987885734749        5.67819038272605       -2.34697986221732
H           43.39047393684160        3.35276585421071       -1.97540457829263
H           43.51162122588794        1.17425812650647       -4.61556497240795
H           45.26976723626643       -0.27911713643121       -3.35285216879653
H           45.57612842303907       -0.74020649426709        2.06124417212228
H           43.76853920885750       -0.84922329330904        4.06440899289612
H           42.12166665784602       -3.20029231855874        4.20535805868739
H           42.73256807086376       -2.90128789348888        6.76314199255771
H           41.47635630999803       -4.13213100165431        6.42634569014608
H           40.60659046397357       -2.67305884815930        8.19041742778635
H           39.70064520507390       -0.48975011569318        7.60686913594985
H           39.96263904514599        0.35181384787987        5.35417511444889
H           38.27330565005427       -1.58854351489948        3.99780194470057
H           36.68935690103805       -1.44918315118739        1.93871853414384
177
 energy: -301.486828468701 gnorm: 0.153958699917 xtb: 6.5.1 (b24c23e)
Ni          31.06763649450956        0.35061281519561        0.26677055517943
C           27.71049332426359        0.28519575813446        0.22920086524127
C           28.38689376411440       -0.92150356157064        0.23504459533276
C           27.72036098387953       -2.20249273155750        0.28316804818163
C           28.68362065030577       -3.14808752330709        0.22694806610484
C           29.95751481717517       -2.45855353158264        0.13437324847086
N           29.74667261968533       -1.09102691474302        0.14556824339429
C           31.18891181789083       -3.09609814801711        0.01605189779883
C           31.21543867124372       -4.58359226020414       -0.03268596270130
C           30.72889411887563       -5.25040745849312       -1.08815304329918
C           30.72429830827981       -6.75818851639570       -1.16774476793277
N           31.54107919066533       -7.36206016074809       -0.09633996196856
C           31.95357209490243       -6.65338700328520        0.99287907110193
C           31.81800571768839       -5.31025347022283        1.07229434270943
C           32.41170789990654       -2.41866440514972       -0.06539582298051
C           33.67736688604619       -3.02722792369976       -0.40088527328390
C           34.62964516536910       -2.05403296660269       -0.34185581938978
N           32.57997953755159       -1.08795597097310        0.16464007167122
C           33.93023446442080       -0.85463855390252        0.02834227169385
C           34.49990695609343        0.38427869117405        0.31380653411765
C           33.75953556561762        1.54083575825548        0.62908476807050
C           34.32808595631523        2.66931994585271        1.25636642890388
C           33.34584527861893        3.61886593691492        1.33132375797268
C           32.17653295322049        3.07615231395871        0.74646156118677
N           32.42323939088710        1.76530391189130        0.36009333819511
C           30.97527445670397        3.81349985976800        0.56630433788398
C           30.99558938708017        5.30688201081752        0.58311306870584