244
 energy: -431.608789693157 gnorm: 0.000587962512 xtb: 6.5.1 (b24c23e)
Zn          51.81510738991882       -0.00834563096289       -0.01120301756042
C           48.40243276353210        0.01646378236386       -0.06960492417050
C           49.02805926332145        1.24638299484586        0.09350390622333
C           48.34961978861400        2.49788776693947        0.28410480569343
C           49.30504850973377        3.45218191319565        0.41002536456150
C           50.57995041178071        2.79585330194762        0.28447302210646
N           50.37680141509333        1.45920354625753        0.10621857811918
C           51.83056640787844        3.42230690228091        0.35025024027580
C           51.84461353162243        4.89352825656658        0.52784133756118
C           52.45387550867996        5.46015187084868        1.65234185464334
C           52.46471727859750        6.83030145621690        1.82579213158539
C           51.87192565344070        7.66861442490127        0.87545308261575
C           51.89947821587201        9.12751479915419        1.08196593240196
O           52.40639282555253        9.65898481628484        2.03687200901527
C           51.26624439149003        7.10491323192466       -0.25029880794804
C           51.25064071624187        5.73193816116192       -0.41999192492566
C           53.07229041585325        2.78040942962501        0.26704187051053
C           54.34454141373019        3.44638856874591        0.23957575729844
C           55.29579505044747        2.48340211431602        0.14255634160273
N           53.27524784357493        1.43011639202622        0.16951324420804
C           54.61927027477382        1.22091663705772        0.11044137853668
C           55.26026726024599       -0.03286683702495        0.03456699293532
C           54.60544127489304       -1.27850369564935       -0.05459721469401
C           55.26885675781002       -2.54592480371516       -0.13428959141731
C           54.30735031774786       -3.49620623208907       -0.25097807501007
C           53.04087862206391       -2.81901555981486       -0.22765248483064
N           53.25903720506518       -1.47253928302820       -0.10738682709656
C           51.79293248804290       -3.43974155099502       -0.35464670041814
C           51.78273721717895       -4.91552729049156       -0.50319429571672
C           51.28611722092303       -5.50145966283283       -1.67096635693888
C           51.27790972751026       -6.87716713681835       -1.81712140663510
C           51.76011263130322       -7.69626457204329       -0.79328365056278
C           51.75872813132932       -9.16455580796206       -0.92190080257317
O           52.15446628571145       -9.91209089622047       -0.06423314166326
C           52.25286345094696       -7.11054799926225        0.37767734076834
C           52.26707066470847       -5.73642886839484        0.51971732747761
C           50.55147150838708       -2.79260832369381       -0.35228288879444
C           49.26963716129201       -3.44249255984373       -0.43221999716146
C           48.32411683259247       -2.47364199151093       -0.35140256931655
C           49.01542183214185       -1.22215099689108       -0.21345990309661
N           50.36189483854693       -1.44891187198541       -0.21803857188493
H           47.31689118935342        0.02238177924506       -0.07256286458263
H           47.27831754586990        2.61773928105384        0.32356238580786
H           49.16334350287249        4.50653964638258        0.58556942936516
H           52.90351440973075        4.81248260783152        2.39661834231352
H           52.92961872340579        7.27608456243442        2.69862252191282
H           51.40779490628015        9.71184466705906        0.27508141566753
H           50.80833573881429        7.74810870163417       -0.99483881261311
H           50.79210834566368        5.29910732611283       -1.30204130012748
H           54.49010444851810        4.51410985707229        0.26950971530387
H           56.36327303325871        2.61454605260894        0.08137539929280
H           56.33621027988654       -2.68785931194674       -0.10369705814209
H           54.44391535188662       -4.56058325853237       -0.35322617175949
H           50.92151591789352       -4.86765072637319       -2.47159737044852
H           50.89704519658166       -7.32294942504171       -2.73031304157085
H           51.35612172600200       -9.53720267557799       -1.88799248027245
H           52.62095988023305       -7.75451028112449        1.16918475863336
H           52.63877303481725       -5.28608019644905        1.43322392946177
H           49.11756483459608       -4.50601426449183       -0.52401089975678
H           47.25143941520089       -2.58522001476276       -0.37393087682794
Zn          84.61654149430815       -0.06223321759689       -0.02776722565528
C           88.02733534642145       -0.09457791247471       -0.07275644856821
C           87.39672778523280       -1.33243197976273       -0.09916797518067
C           88.07046252684636       -2.60088882904664       -0.10691831998541
C           87.11133713572958       -3.55972674951865       -0.10590916186284
C           85.83853174297425       -2.88747524774179       -0.10739639898016
N           86.04705057306853       -1.53981664516389       -0.09798918835935
C           84.58684527518700       -3.51460824700984       -0.07526054451346
C           84.57247401618646       -4.99706267116363       -0.09118839304259
C           84.02940924459108       -5.71309976275734        0.98032012381709
C           84.01366876961629       -7.09423290614902        0.96118296049742
C           84.53679035916984       -7.79319297806361       -0.13200994398892
C           84.50128523461706       -9.26636390742631       -0.13225386746339
O           84.03999047185418       -9.92540539100931        0.76456106112607
C           85.08071187571755       -7.07950744899373       -1.20287288192316
C           85.10020801308823       -5.69640903193962       -1.18048030375414
C           83.34749212860936       -2.86536190903146       -0.02784099732713
C           82.06861136842215       -3.51995713184159       -0.02840626761945
C           81.12265872335547       -2.54721974376383       -0.00176463722711
N           83.15276139477253       -1.51027174920855       -0.01419816673797
C           81.80994012962545       -1.28968904052356        0.00025597923735
C           81.17746814113242       -0.03019377270013        0.00186133518730
C           81.83309241522926        1.21724475671565        0.00057763214950
C           81.17081670110659        2.48749996412902       -0.04482559880739
C           82.13569093685996        3.44182166789941       -0.03040549375505
C           83.40049338398258        2.76263809418863        0.02619617871347
N           83.17966746059689        1.41166234912386        0.03117916131968
C           84.65233283255959        3.38917555441805        0.03778659568218
C           84.66563839133320        4.87087034426781        0.07821488764643
C           85.25301914551578        5.60359098205322       -0.95724551834551
C           85.26718391742649        6.98643931069090       -0.91800694603956
C           84.69950675012483        7.66588159541735        0.16264372624683
C           84.70903615269386        9.13818751233844        0.23269604571744
O           84.24543383206458        9.76773937251241        1.14890420771598
C           84.11253956546840        6.93344883825038        1.19997693792262
C           84.09265220058090        5.55294464736221        1.15639524397269
C           85.89256168396079        2.73895804487441        0.01657775318687
C           87.17777624862684        3.38462451006402        0.07361029947459
C           88.11832950980900        2.40825354936540        0.03662010787753
C           87.42050470366070        1.15477733678851       -0.03165792253660
N           86.07515692047889        1.38847907591874       -0.03648987687654
H           89.11286949029279       -0.10498722915029       -0.07124232078486
H           89.14150279264503       -2.72921740217745       -0.10449292276956
H           87.24896288883676       -4.62905271791638       -0.09119719283141
H           83.63456871719193       -5.17502410607926        1.83476369922160
H           83.59795629778057       -7.65642569222807        1.79052671720581
H           84.94107228698080       -9.73293045458754       -1.03958330102633
H           85.48613345875764       -7.61350948605385       -2.05621833568726
H           85.51004491996187       -5.14537540661662       -2.01955303999199
H           81.91357411296846       -4.58636607392934       -0.05684257557692
H           80.05175285023731       -2.66702643117612        0.01597157870749
H           80.10316728075168        2.62681054557468       -0.09522726490437
H           82.00417887017548        4.51096343696021       -0.07261023675785
H           85.68370660245671        5.07980991454631       -1.80329666247054
H           85.72019430847823        7.54692960119216       -1.72939444045074
H           85.18623788035248        9.63300515047200       -0.64009976676183
H           83.67688051154279        7.46909870297666        2.03660596970715
H           83.64801187097822        4.98784953571350        1.96788275911534
H           87.33581357215003        4.44867881368282        0.14686692597777
H           89.19145409801995        2.51496426050335        0.06130786505025
C           56.67119806321503       -0.03944902984802        0.04009820948804
C           57.88938734456318       -0.04003095784804        0.04891118151956
C           67.61773697183018       -0.02319806407851        0.03829130386755
C           68.83631894717730       -0.01603408656136        0.03391430051163
C           78.55027965261152       -0.00763743568133       -0.01205934128778
C           79.76768901195106       -0.01803381406560       -0.00458730322618
Zn          62.75346842127821       -0.03414891591257        0.04924761062607
C           59.29993112297929       -0.03985858099741        0.05336000764487
C           59.94773738089197        1.14092515994922        0.47131708126211
C           59.27651729908165        2.33995062555494        0.87543308135617
C           60.23361248413946        3.24780556120108        1.19447330165689
C           61.50287409286651        2.60401197630227        1.00646885164671
N           61.29331270230772        1.32695169268361        0.55952901671783
C           62.75012883329387        3.19716700987389        1.23091090383068
C           62.75466930744813        4.59980513467093        1.71298750966741
C           63.33658518486005        5.60520491717110        0.93423850458137
C           63.33658123909704        6.91549633573173        1.37126680858414
C           62.75995516377708        7.25099959644698        2.60085316916842
C           62.77405560966812        8.65659741705363        3.04516132525806
O           63.26703921008578        9.55357197840225        2.41025424013220
C           62.18330191982249        6.24701056408023        3.38252894165312
C           62.17899439086472        4.93552504296719        2.94135234236347
C           63.99750264860725        2.59348860114410        1.03639269486444
C           65.26223536494402        3.19013412250620        1.36089177112584
C           66.22195387441725        2.28478899030096        1.04183522731475
N           64.21133058466307        1.33532434780934        0.54159907816619
C           65.55645167332811        1.12907505628673        0.51964452871614
C           66.20856263354133       -0.02755565836773        0.04380862192242
C           65.55932770172237       -1.18735509685139       -0.42823534960555
C           66.22717565237541       -2.33928452055621       -0.95570161287796
C           65.26992788556605       -3.24847180728562       -1.27113979539102
C           64.00426577645733       -2.65810469048305       -0.93900701242514
N           64.21507421623394       -1.40015143779643       -0.44230722903192
C           62.75849096884365       -3.26635473355471       -1.12949509148316
C           62.76472878652272       -4.66574563821536       -1.62076328226567
C           63.35517644423938       -5.67441800625401       -0.85385985696367
C           63.35640621226158       -6.98450759592153       -1.29825658402316
C           62.77185186351142       -7.31180295989315       -2.52409885504826
C           62.75821412395251       -8.69986106843737       -3.02073558586202
O           62.26459514353351       -9.03037997967515       -4.06845608931460
C           62.18691325790935       -6.30185486911593       -3.29524146842751
C           62.18110716515123       -4.99471607049630       -2.84793501365635
C           61.50999201240634       -2.67790472212703       -0.89955397570849
C           60.24246817711023       -3.32631462359352       -1.08364369455018
C           59.28322972671430       -2.42145852514014       -0.76306075808064
C           59.95116958276436       -1.21956197595556       -0.36220419841264
N           61.29721639441951       -1.40163763544910       -0.45180395103793
H           58.20763261340783        2.46874223479980        0.90994234258744
H           60.09170741553822        4.26551934464861        1.52018097688454
H           63.77365685027863        5.34947797320647       -0.02447531378931
H           63.77941060232286        7.70184098691041        0.76940906776049
H           62.29052913321985        8.82862633370811        4.03030700270715
H           61.73879939747948        6.49786282792805        4.34020163621653
H           61.74214622265787        4.15679849090608        3.55641058691544
H           65.39729801813645        4.16819242597689        1.79364542114586
H           67.28803936715330        2.38245429765337        1.16205530906402
H           67.29288585392563       -2.43177272877844       -1.08255732229366
H           65.40713730761070       -4.22480612961658       -1.70709733617911
H           63.79891222259495       -5.42473174144670        0.10346597626529
H           63.81047454342768       -7.76190833172122       -0.69234523984349
H           63.24635162332088       -9.43174438933850       -2.34238908986120
H           61.74037760190872       -6.56449363900360       -4.24827619101732
H           61.73796611758645       -4.21259933794121       -3.45401742498158
H           60.10316937093988       -4.34473999953650       -1.40811047522152
H           58.21477451703357       -2.55419967395916       -0.79358759883582
Zn          73.69546420797097       -0.00519431678066       -0.00267080480847
C           70.24535717400431       -0.01229797367485        0.02434760309354
C           70.89597985002308        1.21384284665792        0.27596369428284
C           70.23195454142659        2.46726414640601        0.47288661139314
C           71.19006352504645        3.39073950783496        0.74194585218051
C           72.45224686275381        2.70744259339078        0.71393623392872
N           72.23927497094293        1.39077961797161        0.40575083308803
C           73.69674081108974        3.29913126835425        0.96128275877271
C           73.69501889032225        4.72020439343147        1.38142954014638
C           74.36120884750881        5.68672999085478        0.62116339893373
C           74.35650910979160        7.01067005101150        1.01540799844880
C           73.69110860498100        7.39948716667342        2.18285819414804
C           73.70406213236731        8.81823232463056        2.58376226491106
O           74.25804203256342        9.68498936064080        1.95750225808818
C           73.02725276106115        6.43513009013387        2.94502734965338
C           73.02689114238632        5.11059798761741        2.54590672907424
C           74.94201083540861        2.66961755982450        0.84868556423518
C           76.20679274741057        3.26344804824806        1.17984479617557
C           77.16373513573905        2.33918151541405        0.90922711402831
N           75.15177936688798        1.39135132259471        0.40714002902960
C           76.49488222632949        1.17228050771225        0.41592414900339
C           77.14110003362129       -0.00381942444397       -0.01459015277878
C           76.49244450305910       -1.17801097723946       -0.44756237993667
C           77.15817432721843       -2.33842753011083       -0.95955570031162
C           76.20035319313227       -3.26219402697505       -1.22913590242858
C           74.93838538150823       -2.67488778306789       -0.87720844663164
N           75.15009823590287       -1.40015456195427       -0.42635463443730
C           73.69367589360742       -3.30730599121574       -0.97798380575853
C           73.68824556447535       -4.72326552845091       -1.41427737105977
C           74.36908222736267       -5.69689129396653       -0.67737415001181
C           74.36158380092098       -7.01874239208524       -1.08546048253769
C           73.67733472065848       -7.39398590463177       -2.24428677013986
C           73.65623169331036       -8.79459815545974       -2.70289319872408
O           73.08191008902641       -9.16523583500915       -3.69477403494021
C           72.99814963501011       -6.42001641952330       -2.98409506459712
C           73.00085814937647       -5.10165294092132       -2.57230782705575
C           72.45130777919353       -2.72124855056004       -0.70786953044242
C           71.19145407041701       -3.40917105878200       -0.71943379329999
C           70.23459024479766       -2.49064664423905       -0.43001999535503
C           70.89701442159526       -1.23554500368544       -0.23840371366491
N           72.23878249614870       -1.40721382140275       -0.38883276260238
H           69.16847257284486        2.62191309419490        0.39736135626642
H           71.05534288320823        4.44461722935388        0.92447473748795
H           74.86691397859200        5.39106582802567       -0.29116534437305
H           74.86549591742281        7.76693512178137        0.42748835841328
H           73.15475584602656        9.03093849414743        3.52563768127423
H           72.51170931675972        6.72721656170657        3.85418971234049
H           72.52142360062032        4.36241915515080        3.14627003846824
H           76.34404872085311        4.25360349445497        1.58337538168202
H           78.22930655545898        2.43083087046905        1.04336974066301
H           78.22189721322920       -2.42542361354078       -1.10957079021086
H           76.33530676233349       -4.24737070961833       -1.64552037664723
H           74.88997275619616       -5.41151537894969        0.22973828607908
H           74.88731652022348       -7.76853707215208       -0.50316771295225
H           74.21998733302318       -9.49636996196244       -2.05190274768752
H           72.47299202282001       -6.71942522929040       -3.88478075672915
H           72.48413870625306       -4.34713906218583       -3.15476554482071
H           71.05767500898583       -4.46249193339504       -0.90580413004929
H           69.17310275321259       -2.64967594572730       -0.33827523420093
