298
 energy: -465.807114172925 gnorm: 1.525952112242 xtb: 6.5.1 (b24c23e)
C           32.27135900000000       -0.05142200000000        0.08366500000000
C           32.99995800000000        1.22864600000000        0.59671500000000
C           32.38983300000000        2.33511400000000        1.14219400000000
C           33.41142900000000        3.28116700000000        1.41534100000000
C           34.61136100000000        2.72141700000000        1.02234900000000
N           34.35309200000000        1.45166400000000        0.56964600000000
C           36.03489600000000        3.41971300000000        1.05337100000000
C           37.16321700000000        2.70713400000000        0.78780600000000
C           38.46701500000000        3.33618000000000        0.73588500000000
C           39.36764199999999        2.41014400000000        0.42903900000000
N           37.35871400000000        1.37901400000000        0.51256400000000
C           38.68886599999999        1.13701900000000        0.28573000000000
C           39.35619400000000       -0.00793200000000       -0.01887700000000
C           38.58160800000000       -1.38917500000000       -0.12811600000000
C           39.12917800000000       -2.64578600000000        0.04503100000000
C           38.10459000000000       -3.59541800000000       -0.19139900000000
C           36.95701399999999       -2.89289700000000       -0.48986500000000
C           35.54427900000000       -3.51812700000000       -0.85241100000000
C           35.51284700000000       -4.90453200000000       -1.37283600000000
C           35.14953400000000       -5.96912900000000       -0.53834700000000
C           35.13008500000000       -7.28305400000000       -1.02223500000000
C           34.69855700000000       -8.40968200000000       -0.13443800000000
C           35.46507099999999       -7.52105800000000       -2.36293800000000
C           35.84770600000000       -6.46862400000000       -3.20677500000000
C           36.17805200000000       -6.72050900000000       -4.64590100000000
C           35.85971100000000       -5.16138500000000       -2.70391300000000
C           34.41905100000000       -2.77232500000000       -0.69864300000000
C           33.09471300000000       -3.27196000000000       -1.02378200000000
C           32.21016800000000       -2.31611300000000       -0.75538900000000
C           32.93473800000000       -1.17090900000000       -0.26097000000000
N           34.25643800000000       -1.49012600000000       -0.25240100000000
N           37.24431900000000       -1.55107400000000       -0.39803700000000
C           36.07402800000000        4.87547600000000        1.33253000000000
C           36.34466200000000        5.33956500000000        2.62556200000000
C           36.37295000000000        6.71229200000000        2.90103000000000
C           36.70954700000000        7.19274200000000        4.27917100000000
C           36.14330600000000        7.62187900000000        1.85875100000000
C           35.85458100000000        7.17297200000000        0.56192200000000
C           35.63641299999999        8.14573500000000       -0.55629800000000
C           35.83209999999999        5.79617100000000        0.30644800000000
H           31.19260600000000       -0.01740300000000       -0.01012600000000
H           31.33055500000000        2.45460400000000        1.30924200000000
H           33.28350500000000        4.26987800000000        1.83059500000000
H           35.05474600000000        0.78616300000000        0.25338300000000
H           38.67820300000000        4.37757300000000        0.90191100000000
H           40.42019499999999        2.59561000000000        0.31827200000000
H           40.15534599999999       -2.86001200000000        0.30180300000000
H           38.19312300000000       -4.67093400000000       -0.15141700000000
H           34.87679100000000       -5.74743600000000        0.49211300000000
H           33.64544200000000       -8.64843700000000       -0.31652600000000
H           35.30427999999999       -9.30321600000000       -0.32211500000000
H           34.82103600000000       -8.15014900000000        0.92294200000000
H           35.42748000000000       -8.53524500000000       -2.75235000000000
H           36.92286900000000       -6.00390200000000       -5.00640000000000
H           36.59969300000000       -7.72198700000000       -4.78106800000000
H           35.27599000000000       -6.63154600000000       -5.25853000000000
H           36.13338100000000       -4.32065000000000       -3.33927100000000
H           32.86472000000000       -4.24574700000000       -1.41719300000000
H           31.14545700000000       -2.37594300000000       -0.88975500000000
H           36.55700700000000       -0.80471100000000       -0.46494500000000
H           36.54046100000000        4.60804800000000        3.40781800000000
H           36.31994900000000        6.50610700000000        5.03833000000000
H           36.26475200000000        8.17451900000000        4.47081800000000
H           37.79445100000000        7.27013900000000        4.39395200000000
H           36.18965400000000        8.68925300000000        2.05809800000000
H           35.22216700000000        9.08747500000000       -0.18119100000000
H           36.58430100000000        8.35423000000000       -1.06099000000000
H           34.92519500000000        7.74737100000000       -1.28723500000000
H           35.63122200000000        5.41623300000000       -0.69388500000000
C           98.66774299999999       -0.02220200000000        0.09158900000000
C           97.93914399999998       -1.38610100000000       -0.11230700000000
C           98.54926900000000       -2.61656300000000       -0.20051700000000
C           97.52767299999999       -3.57100900000000       -0.44271400000000
C           96.32774100000000       -2.88940600000000       -0.49909700000000
N           96.58600900000000       -1.56489400000000       -0.24833200000000
C           94.90420599999999       -3.50771600000000       -0.82509000000000
C           93.77588499999999       -2.75859300000000       -0.69429500000000
C           92.47208699999999       -3.27523800000000       -1.05688500000000
C           91.57146000000000       -2.32104400000000       -0.85388400000000
N           93.58038800000000       -1.47335900000000       -0.26089400000000
C           92.25023600000000       -1.14992200000000       -0.33440300000000
C           91.58290800000000       -0.00793200000000       -0.01887700000000
C           92.35749399999999        1.23928500000000        0.58462500000000
C           91.80992400000000        2.23628800000000        1.36886800000000
C           92.83451200000000        3.17527300000000        1.64456100000000
C           93.98208800000000        2.71976700000000        1.03208000000000
C           95.39482300000000        3.44250000000000        1.03505200000000
C           95.42625500000000        4.90189500000000        1.28630200000000
C           95.78956800000000        5.39909000000000        2.54429100000000
C           95.80901599999999        6.77747600000000        2.79045700000000
C           96.24054499999998        7.30127500000000        4.12578900000000
C           95.47403100000000        7.66017300000000        1.75364700000000
C           95.09139599999999        7.17819700000000        0.49373400000000
C           94.76105000000000        8.12259600000000       -0.62100400000000
C           95.07939100000000        5.79599600000000        0.26732100000000
C           96.52005099999998        2.72118200000000        0.79099200000000
C           97.84438900000001        3.31662800000000        0.76279800000000
C           98.72893399999998        2.35613100000000        0.51155000000000
C           98.00436399999998        1.11803400000000        0.35970600000000
N           96.68266400000000        1.38919300000000        0.52836300000000
N           93.69478299999999        1.51536500000000        0.43346700000000
C           94.86507400000001       -4.90508600000000       -1.31959500000000
C           94.59443999999999       -5.95881500000000       -0.43813700000000
C           94.56615199999999       -7.28265800000000       -0.89387900000000
C           94.22955500000000       -8.39350300000000        0.05276200000000
C           94.79579500000000       -7.54110700000000       -2.25288600000000
C           95.08452000000000       -6.49856100000000       -3.14528800000000
C           95.30268900000000       -6.77316700000000       -4.60174800000000
C           95.10700199999999       -5.18130200000000       -2.67023400000000
H           99.74649599999998       -0.00418000000000       -0.00654000000000
H           99.60854700000000       -2.80407400000000       -0.11671600000000
H           97.65559700000000       -4.63405800000000       -0.58382100000000
H           95.88435500000000       -0.83078800000000       -0.18507400000000
H           92.26089899999999       -4.25784800000000       -1.43969300000000
H           90.51890700000000       -2.42514700000000       -1.04317000000000
H           90.78375600000000        2.29145200000000        1.69868800000000
H           92.74597899999999        4.08326000000000        2.22239500000000
H           96.06231099999999        4.68719900000000        3.32159700000000
H           97.29365999999999        7.59931200000000        4.08925800000000
H           95.63482200000000        8.16721800000000        4.41521600000000
H           96.11806599999998        6.54312700000000        4.90721100000000
H           95.51162100000001        8.73215400000000        1.92992500000000
H           94.01623300000000        7.68627000000000       -1.29413500000000
H           94.33940899999999        9.05516900000000       -0.23172800000000
H           95.66311200000000        8.35530700000000       -1.19465400000000
H           94.80572100000001        5.39140000000000       -0.70572500000000
H           98.07438200000000        4.35576300000000        0.91521600000000
H           99.79364500000000        2.47564500000000        0.42581500000000
H           94.38209500000001        0.90504400000000       -0.00132300000000
H           94.39864100000000       -5.72268500000000        0.60650700000000
H           94.61915300000000       -8.18443900000000        1.05480100000000
H           94.67434999999999       -9.33760600000000       -0.27781800000000
H           93.14465099999998       -8.51828200000000        0.11272000000000
H           94.74944800000000       -8.56297100000000       -2.62006200000000
H           95.71693499999999       -7.77539800000000       -4.75377400000000
H           94.35479999999998       -6.69814000000000       -5.14263200000000
H           96.01390700000000       -6.06011800000000       -5.03131200000000
H           95.30788000000000       -4.34806200000000       -3.34159800000000
C           42.19032700000000        0.00572600000000       -0.00932400000000
C           43.64855299999999       -0.01611100000000       -0.02719700000000
C           44.78248100000000       -0.03686400000000       -0.02868800000000
C           46.14386300000000       -0.04945400000000       -0.03087900000000
C           47.41808200000000       -0.03914800000000       -0.03564400000000
C           48.60654400000000       -0.02035000000000       -0.04180000000000
C           49.95890500000000        0.00443500000000       -0.02593200000000
C           51.05917300000000        0.00572600000000       -0.00932400000000
C           60.97746800000000        0.00572600000000       -0.00932400000000
C           62.43569399999999       -0.01611100000000       -0.02719700000000
C           63.56962200000000       -0.03686400000000       -0.02868800000000
C           64.93100400000000       -0.04945400000000       -0.03087900000000
C           66.20522300000000       -0.03914800000000       -0.03564400000000
C           67.39368500000000       -0.02035000000000       -0.04180000000000
C           68.74604600000001        0.00443500000000       -0.02593200000000
C           69.84631299999999        0.00572600000000       -0.00932400000000
C           79.76460899999999        0.00572600000000       -0.00932400000000
C           81.22283500000000       -0.01611100000000       -0.02719700000000
C           82.35676300000000       -0.03686400000000       -0.02868800000000
C           83.71814500000001       -0.04945400000000       -0.03087900000000
C           84.99236399999999       -0.03914800000000       -0.03564400000000
C           86.18082600000000       -0.02035000000000       -0.04180000000000
C           87.53318700000000        0.00443500000000       -0.02593200000000
C           88.63345400000000        0.00572600000000       -0.00932400000000
C           52.50048800000000        0.00703800000000        0.02080000000000
C           53.29187300000000       -1.13273200000000        0.78675400000000
C           52.77886299999999       -1.99891000000000        1.73105200000000
C           53.81559700000000       -2.89795100000000        2.08902600000000
C           54.93160100000000       -2.54810200000000        1.35827500000000
N           54.62334700000000       -1.42917200000000        0.62536400000000
C           56.32441799999999       -3.30315400000000        1.35236900000000
C           57.45841200000000       -2.63761800000000        1.00828100000000
C           58.74649099999999       -3.29521100000000        0.92885300000000
C           59.65347799999999       -2.39643000000000        0.56158300000000
N           57.66517499999999       -1.32934100000000        0.66736900000000
C           58.98990300000000       -1.11916600000000        0.39191700000000
C           59.65366500000000        0.00703800000000        0.02080000000000
C           58.86157400000000        1.37004700000000       -0.14171100000000
C           59.37203500000000        2.64276900000000        0.01768400000000
C           58.33556200000000        3.55765100000000       -0.29839200000000
C           57.22219000000000        2.81564600000000       -0.63291000000000
C           55.83022299999999        3.38369400000000       -1.13161500000000
C           55.83548500000000        4.69439200000000       -1.82394300000000
C           55.40777300000000        5.85031300000000       -1.15840900000000
C           55.42847200000000        7.09509200000000       -1.79987900000000
C           55.00448500000000        8.32857300000000       -1.06280900000000
C           55.90712300000000        7.17609600000000       -3.11531200000000
C           56.32782600000000        6.02695200000000       -3.80006100000000
C           56.86598700000000        6.11965800000000       -5.19500400000000
C           56.29840100000000        4.79126100000000       -3.14105000000000
C           54.69622600000000        2.65495600000000       -0.95747200000000
C           53.40834900000000        3.10102300000000       -1.44746800000000
C           52.50124500000000        2.18087500000000       -1.13823900000000
C           53.16459100000000        1.10249600000000       -0.43281700000000
N           54.48930100000000        1.44160600000000       -0.36102600000000
N           57.53157900000000        1.48903500000000       -0.46353300000000
C           56.31878200000000       -4.74744700000000        1.68624700000000
C           55.85721500000000       -5.68249300000000        0.75288900000000
C           55.82334400000000       -7.04771600000000        1.06462900000000
C           55.28626300000000       -8.03006200000000        0.06909500000000
C           56.23820799999999       -7.46818300000000        2.33660500000000
C           56.71580900000000       -6.54629800000000        3.27888200000000
C           57.13265199999999       -6.99398900000000        4.64641600000000
C           56.74136900000000       -5.18567000000000        2.94774500000000
H           51.76660500000000       -2.00072100000000        2.10550300000000
H           53.75093499999999       -3.72091700000000        2.78497900000000
H           55.28770700000000       -0.88271300000000        0.08511200000000
H           58.94167500000000       -4.33509600000000        1.12169000000000
H           60.69854299999999       -2.60204000000000        0.41848300000000
H           60.38245599999999        2.88829000000000        0.30736300000000
H           58.39842999999999        4.63555400000000       -0.30143700000000
H           55.05982099999999        5.75668200000000       -0.13097700000000
H           55.86858800000000        8.78755800000000       -0.57222400000000
H           54.55734600000000        9.05662000000000       -1.74787600000000
H           54.25110800000000        8.09325000000000       -0.30324400000000
H           55.95179100000000        8.14219100000000       -3.61131800000000
H           56.65188599999999        5.20524600000000       -5.75820000000000
H           57.94898100000000        6.27441000000000       -5.16896000000000
H           56.40323399999999        6.95049500000000       -5.73808800000000
H           56.63807200000000        3.88498300000000       -3.63962000000000
H           53.21303700000000        4.01416000000000       -1.98101900000000
H           51.45634600000000        2.24378300000000       -1.38122900000000
H           56.86798500000000        0.72219100000000       -0.52118300000000
H           55.52105100000000       -5.32371200000000       -0.21852600000000
H           55.73668800000000       -9.01792600000000        0.21206600000000
H           55.51615000000000       -7.71446000000000       -0.95412800000000
H           54.20083100000000       -8.11812400000000        0.17786300000000
H           56.18951899999999       -8.52277800000000        2.59490200000000
H           57.92036999999999       -6.34702700000000        5.04680200000000
H           57.53272400000000       -8.01296300000000        4.61921700000000
H           56.27515799999999       -6.96968600000000        5.32595500000000
H           57.08793300000000       -4.44259900000000        3.66417200000000
C           71.28762899999998        0.00703800000000        0.02080000000000
C           72.07901400000000       -1.13273200000000        0.78675400000000
C           71.56600400000001       -1.99891000000000        1.73105200000000
C           72.60273700000000       -2.89795100000000        2.08902600000000
C           73.71874200000001       -2.54810200000000        1.35827500000000
N           73.41048799999999       -1.42917200000000        0.62536400000000
C           75.11155900000000       -3.30315400000000        1.35236900000000
C           76.24555300000000       -2.63761800000000        1.00828100000000
C           77.53363200000000       -3.29521100000000        0.92885300000000
C           78.44061900000000       -2.39643000000000        0.56158300000000
N           76.45231600000000       -1.32934100000000        0.66736900000000
C           77.77704400000000       -1.11916600000000        0.39191700000000
C           78.44080599999999        0.00703800000000        0.02080000000000
C           77.64871500000000        1.37004700000000       -0.14171100000000
C           78.15917500000000        2.64276900000000        0.01768400000000
C           77.12270299999999        3.55765100000000       -0.29839200000000
C           76.00933099999999        2.81564600000000       -0.63291000000000
C           74.61736300000000        3.38369400000000       -1.13161500000000
C           74.62262600000000        4.69439200000000       -1.82394300000000
C           74.19491300000000        5.85031300000000       -1.15840900000000
C           74.21561300000000        7.09509200000000       -1.79987900000000
C           73.79162599999999        8.32857300000000       -1.06280900000000
C           74.69426400000000        7.17609600000000       -3.11531200000000
C           75.11496699999999        6.02695200000000       -3.80006100000000
C           75.65312800000000        6.11965800000000       -5.19500400000000
C           75.08554200000000        4.79126100000000       -3.14105000000000
C           73.48336700000000        2.65495600000000       -0.95747200000000
C           72.19549000000001        3.10102300000000       -1.44746800000000
C           71.28838600000000        2.18087500000000       -1.13823900000000
C           71.95173200000001        1.10249600000000       -0.43281700000000
N           73.27644200000000        1.44160600000000       -0.36102600000000
N           76.31871900000000        1.48903500000000       -0.46353300000000
C           75.10592300000000       -4.74744700000000        1.68624700000000
C           74.64435599999999       -5.68249300000000        0.75288900000000
C           74.61048399999999       -7.04771600000000        1.06462900000000
C           74.07340400000000       -8.03006200000000        0.06909500000000
C           75.02534900000001       -7.46818300000000        2.33660500000000
C           75.50295000000000       -6.54629800000000        3.27888200000000
C           75.91979300000000       -6.99398900000000        4.64641600000000
C           75.52850999999998       -5.18567000000000        2.94774500000000
H           70.55374599999999       -2.00072100000000        2.10550300000000
H           72.53807600000000       -3.72091700000000        2.78497900000000
H           74.07484700000001       -0.88271300000000        0.08511200000000
H           77.72881599999999       -4.33509600000000        1.12169000000000
H           79.48568400000001       -2.60204000000000        0.41848300000000
H           79.16959700000000        2.88829000000000        0.30736300000000
H           77.18557100000000        4.63555400000000       -0.30143700000000
H           73.84696200000000        5.75668200000000       -0.13097700000000
H           74.65572800000000        8.78755800000000       -0.57222400000000
H           73.34448700000000        9.05662000000000       -1.74787600000000
H           73.03824899999998        8.09325000000000       -0.30324400000000
H           74.73893200000001        8.14219100000000       -3.61131800000000
H           75.43902600000000        5.20524600000000       -5.75820000000000
H           76.73612199999998        6.27441000000000       -5.16896000000000
H           75.19037500000000        6.95049500000000       -5.73808800000000
H           75.42521299999999        3.88498300000000       -3.63962000000000
H           72.00017800000001        4.01416000000000       -1.98101900000000
H           70.24348700000000        2.24378300000000       -1.38122900000000
H           75.65512600000000        0.72219100000000       -0.52118300000000
H           74.30819199999999       -5.32371200000000       -0.21852600000000
H           74.52382899999999       -9.01792600000000        0.21206600000000
H           74.30329099999999       -7.71446000000000       -0.95412800000000
H           72.98797199999998       -8.11812400000000        0.17786300000000
H           74.97666000000000       -8.52277800000000        2.59490200000000
H           76.70751000000000       -6.34702700000000        5.04680200000000
H           76.31986400000000       -8.01296300000000        4.61921700000000
H           75.06229900000000       -6.96968600000000        5.32595500000000
H           75.87507400000000       -4.44259900000000        3.66417200000000
298
 energy: -466.278353711509 gnorm: 0.593374980276 xtb: 6.5.1 (b24c23e)
C           32.28758645899612       -0.02893151381114        0.09264639463207
C           32.99573587105614        1.21460435848130        0.59154498048720
C           32.39301970254802        2.33998918218030        1.14193852449168
C           33.40882113109240        3.28030224592231        1.41291696983935
C           34.62710713108851        2.72598088649969        1.02238952710252
N           34.35347288574297        1.45194401282535        0.56815283209581
C           36.00992871916032        3.40495138177420        1.05172468688580
C           37.16594454521384        2.70306507761747        0.78550976904803
C           38.46830528298399        3.34143165664423        0.73678404124077
C           39.37383356038718        2.41013215193525        0.42857143637934
N           37.35127322645220        1.37546021123138        0.51146222905653
C           38.68802663874623        1.13541310854426        0.28706538770472
C           39.32656972769774       -0.03386159223898       -0.02139432724022
C           38.58691072911213       -1.37300335463887       -0.12224212335192
C           39.12768469365776       -2.64839895743630        0.04178821782027
C           38.10824435293893       -3.59293504039083       -0.19299423742021
C           36.94163362449486       -2.89584486535441       -0.49367030591064
C           35.56822666368362       -3.50473983970123       -0.84636936755593
C           35.51817492185977       -4.90177947515387       -1.36973174926336
C           35.14981104005135       -5.96768048907649       -0.53982539404424
C           35.12946035556807       -7.27892239077360       -1.02445861606270
C           34.69994342406617       -8.41014159836841       -0.13353800340063
C           35.46564004450357       -7.51794186667969       -2.36163677281225
C           35.84504386641822       -6.46689965907259       -3.20317456074726
C           36.17975826085488       -6.72107783771213       -4.64575989174371
C           35.86033325575265       -5.16149863865731       -2.70138431301671
C           34.41706898300144       -2.76738095038922       -0.69866485465071
C           33.09338177141021       -3.27800185540137       -1.02590442278907
C           32.20538625411638       -2.31892847215319       -0.75694959944659
C           32.93944761569502       -1.17285477481502       -0.26251347885238
N           34.26407678839980       -1.48565455753591       -0.25047131880268
N           37.24418163445537       -1.55112857210828       -0.40023139131022
C           36.06897826500438        4.87157582944252        1.33312686549627
C           36.34423403682993        5.33904299136221        2.62342338410207
C           36.37384757928492        6.71019450111247        2.89683819234842
C           36.70781284823057        7.19319156583817        4.27980635625601
C           36.14266073744116        7.61854234783439        1.85820974988871
C           35.85690656808067        7.16956886080725        0.56432225993394
C           35.63469568666782        8.14620649203877       -0.55595026323106
C           35.83151109227024        5.79486826911514        0.30857260500106
H           31.20016736043726       -0.01148716497408       -0.00601341595088
H           31.33236018127630        2.45628703654163        1.30978753636362
H           33.28237324729156        4.26859999251174        1.83025906405426
H           35.05395920585314        0.78695768749966        0.25364220755012
H           38.67635922162023        4.38161429741172        0.90300683340432
H           40.42503315467738        2.59232369960422        0.31705008618227
H           40.15417313068472       -2.86076838025934        0.30105944235813
H           38.19450314131463       -4.66930817115689       -0.15130662071075
H           34.87754967866042       -5.74906300454812        0.49073534405720
H           33.64706773414331       -8.64875911665337       -0.31608479424105
H           35.30279274126397       -9.30288220195788       -0.32293269593791
H           34.82004785596180       -8.14960206026314        0.92176407399939
H           35.42811490822065       -8.53344462843070       -2.75152162360848
H           36.92133243254573       -6.00354017844307       -5.00629792159439
H           36.59816955416367       -7.72183488714501       -4.78093057860760
H           35.27740293189423       -6.63175705222400       -5.25828830545647
H           36.13354200898408       -4.32287605414681       -3.33894410477313
H           32.86634939080464       -4.25034671849266       -1.41850864513876
H           31.14162577369298       -2.37495058853730       -0.88966094548956
H           36.55814860133415       -0.80587078870049       -0.46536344786591
H           36.53973305918402        4.61014209064461        3.40735434936576
H           36.32140281530116        6.50590817588082        5.03743408344368
H           36.26591608532375        8.17448333522331        4.47003823101794
H           37.79312877240139        7.27008649550816        4.39441844247424
H           36.18900338436365        8.68732893939665        2.05788844173139
H           35.22364822047926        9.08716676895977       -0.18101054171955
H           36.58286819061317        8.35428730000250       -1.06083559994214
H           34.92680939656282        7.74695242476692       -1.28719037612515
H           35.63098742480322        5.41795118870641       -0.69245087754320
C           98.65147333354399       -0.04632362795072        0.08795334687986
C           97.94342197838213       -1.37120555721331       -0.10964977597018
C           98.54607156601905       -2.62071094771047       -0.20323472654382
C           97.53035950513298       -3.56900580407759       -0.44435418941879
C           96.31188237309139       -2.89330345640155       -0.50139587134455
N           96.58558908810525       -1.56438828693841       -0.24974515306483
C           94.92917965646164       -3.49399135803441       -0.81899048416085
C           93.77311340585334       -2.75361758228925       -0.69411262402637
C           92.47078508457727       -3.28017079102731       -1.05874646340063
C           91.56511789197623       -2.32103336122572       -0.85442439104004
N           93.58715954576896       -1.46927745144819       -0.26000294530272
C           92.24944039839932       -1.14882451522973       -0.33266276863052
C           91.60847609408896        0.01485991308318       -0.00728479801535
C           92.35086488112655        1.22264652712312        0.58112465487394
C           91.81124947911765        2.24030562919314        1.36743179651446