      -----------------------------------------------------------      
     |                   =====================                   |     
     |                           x T B                           |     
     |                   =====================                   |     
     |                         S. Grimme                         |     
     |          Mulliken Center for Theoretical Chemistry        |     
     |                    University of Bonn                     |     
      -----------------------------------------------------------      

   * xtb version 6.5.1 (b24c23e) compiled by 'conda@728c89f4b128' on 2022-07-12

   xtb is free software: you can redistribute it and/or modify it under
   the terms of the GNU Lesser General Public License as published by
   the Free Software Foundation, either version 3 of the License, or
   (at your option) any later version.
   
   xtb is distributed in the hope that it will be useful,
   but WITHOUT ANY WARRANTY; without even the implied warranty of
   MERCHANTABILITY or FITNESS FOR A PARTICULAR PURPOSE.  See the
   GNU Lesser General Public License for more details.
   
   Cite this work as:
   * C. Bannwarth, E. Caldeweyher, S. Ehlert, A. Hansen, P. Pracht,
     J. Seibert, S. Spicher, S. Grimme, WIREs Comput. Mol. Sci., 2020, 11,
     e01493. DOI: 10.1002/wcms.1493
   
   for GFN2-xTB:
   * C. Bannwarth, S. Ehlert and S. Grimme., J. Chem. Theory Comput., 2019,
     15, 1652-1671. DOI: 10.1021/acs.jctc.8b01176
   for GFN1-xTB:
   * S. Grimme, C. Bannwarth, P. Shushkov, J. Chem. Theory Comput., 2017,
     13, 1989-2009. DOI: 10.1021/acs.jctc.7b00118
   for GFN0-xTB:
   * P. Pracht, E. Caldeweyher, S. Ehlert, S. Grimme, ChemRxiv, 2019, preprint.
     DOI: 10.26434/chemrxiv.8326202.v1
   for GFN-FF:
   * S. Spicher and S. Grimme, Angew. Chem. Int. Ed., 2020, 59, 15665-15673.
     DOI: 10.1002/anie.202004239
   
   for ALPB and GBSA implicit solvation:
   * S. Ehlert, M. Stahn, S. Spicher, S. Grimme, J. Chem. Theory Comput.,
     2021, 17, 4250-4261. DOI: 10.1021/acs.jctc.1c00471
   
   for DFT-D4:
   * E. Caldeweyher, C. Bannwarth and S. Grimme, J. Chem. Phys., 2017,
     147, 034112. DOI: 10.1063/1.4993215
   * E. Caldeweyher, S. Ehlert, A. Hansen, H. Neugebauer, S. Spicher,
     C. Bannwarth and S. Grimme, J. Chem. Phys., 2019, 150, 154122.
     DOI: 10.1063/1.5090222
   * E. Caldeweyher, J.-M. Mewes, S. Ehlert and S. Grimme, Phys. Chem. Chem. Phys.
     2020, 22, 8499-8512. DOI: 10.1039/D0CP00502A
   
   for sTDA-xTB:
   * S. Grimme and C. Bannwarth, J. Chem. Phys., 2016, 145, 054103.
     DOI: 10.1063/1.4959605
   
   in the mass-spec context:
   * V. Asgeirsson, C. Bauer and S. Grimme, Chem. Sci., 2017, 8, 4879.
     DOI: 10.1039/c7sc00601b
   * J. Koopman and S. Grimme, ACS Omega 2019, 4, 12, 15120-15133.
     DOI: 10.1021/acsomega.9b02011
   
   for metadynamics refer to:
   * S. Grimme, J. Chem. Theory Comput., 2019, 155, 2847-2862
     DOI: 10.1021/acs.jctc.9b00143
   
   for SPH calculations refer to:
   * S. Spicher and S. Grimme, J. Chem. Theory Comput., 2021, 17, 1701-1714
     DOI: 10.1021/acs.jctc.0c01306
   
   with help from (in alphabetical order)
   P. Atkinson, C. Bannwarth, F. Bohle, G. Brandenburg, E. Caldeweyher
   M. Checinski, S. Dohm, S. Ehlert, S. Ehrlich, I. Gerasimov, C. Hölzer
   A. Katbashev, J. Koopman, C. Lavigne, S. Lehtola, F. März, M. Müller,
   F. Musil, H. Neugebauer, J. Pisarek, C. Plett, P. Pracht, F. Pultar,
   J. Seibert, P. Shushkov, S. Spicher, M. Stahn, M. Steiner, T. Strunk,
   J. Stückrath, T. Rose, and J. Unsleber
   
 * started run on 2022/07/30 at 06:27:20.442     

           -------------------------------------------------
          |                Calculation Setup                |
           -------------------------------------------------

          program call               : xtb xtbopt.xyz --gfn 1 --vipea
          hostname                   : cx3-14-19.cx3.hpc.ic.ac.uk
          coordinate file            : xtbopt.xyz
          omp threads                :                     1

   ID    Z sym.   atoms
    1   29 Cu     1, 59, 133
    2    6 C      2-6, 8-11, 13-17, 19-24, 26-29, 31-36, 60-64, 66-69, 71-75,
                  77-82, 84-87, 89-94, 117-132, 134-138, 140-143, 145-149,
                  151-156, 158-161, 163-168
    3    7 N      7, 12, 18, 25, 30, 37, 65, 70, 76, 83, 88, 95, 139, 144,
                  150, 157, 162, 169
    4    1 H      38-58, 96-116, 170-189

           -------------------------------------------------
          |                 I P E A - x T B                 |
           -------------------------------------------------

        Reference                      10.1039/c7sc00601b
      * Hamiltonian:
        H0-scaling (s, p, d)           2.150000    2.300000    2.000000
        zeta-weighting                 0.000000
      * Dispersion:
        s8                             2.400000
        a1                             0.630000
        a2                             5.000000
        s9                             0.000000
      * Repulsion:
        kExp                           1.500000
        rExp                           1.000000
      * Coulomb:
        alpha                          1.000000
        third order                    atomic
        anisotropic                    false
      * Halogen bond correction:
        rad-scale                      1.300000
        damping                        0.440000


          ...................................................
          :                      SETUP                      :
          :.................................................:
          :  # basis functions                 774          :
          :  # atomic orbitals                 771          :
          :  # shells                          505          :
          :  # electrons                       609          :
          :  # halogen bonds                     0          :
          :  max. iterations                   250          :
          :  Hamiltonian                  GFN1-xTB          :
          :  restarted?                      false          :
          :  GBSA solvation                  false          :
          :  PC potential                    false          :
          :  electronic temp.          300.0000000     K    :
          :  accuracy                    1.0000000          :
          :  -> integral cutoff          0.2500000E+02      :
          :  -> integral neglect         0.1000000E-07      :
          :  -> SCF convergence          0.1000000E-05 Eh   :
          :  -> wf. convergence          0.2000000E-04 e    :
          :  Broyden damping             0.4000000          :
          ...................................................

 iter      E             dE          RMSdq      gap      omega  full diag
   1   -378.3702966 -0.378370E+03  0.103E+01    0.02       0.0  T
   2   -378.4140176 -0.437210E-01  0.642E+00    0.13       1.0  T
   3   -347.3766600  0.310374E+02  0.711E+00    0.04       1.0  T
   4   -373.7034224 -0.263268E+02  0.303E+00    0.06       1.0  T
   5   -372.3888929  0.131453E+01  0.219E+00    0.26       1.0  T
   6   -379.2813869 -0.689249E+01  0.948E-01    0.04       1.0  T
   7   -379.6177968 -0.336410E+00  0.822E-01    0.01       1.0  T
   8   -379.6820116 -0.642148E-01  0.653E-01    0.04       1.0  T
   9   -379.6881462 -0.613456E-02  0.645E-01    0.07       1.0  T
  10   -379.7319313 -0.437851E-01  0.598E-01    0.04       1.0  T
  11   -379.6441527  0.877786E-01  0.598E-01    0.22       1.0  T
  12   -379.6509500 -0.679732E-02  0.529E-01    0.19       1.0  T
  13   -379.6644664 -0.135164E-01  0.437E-01    0.10       1.0  T
  14   -379.6360679  0.283985E-01  0.485E-01    0.03       1.0  T
  15   -379.7635605 -0.127493E+00  0.283E-01    0.02       1.0  T
  16   -379.7436739  0.198867E-01  0.354E-01    0.03       1.0  T
  17   -379.7442242 -0.550333E-03  0.292E-01    0.02       1.0  T
  18   -379.7588914 -0.146672E-01  0.245E-01    0.02       1.0  T
  19   -379.7843689 -0.254775E-01  0.984E-02    0.01       1.0  T
  20   -379.7841269  0.242015E-03  0.998E-02    0.02       1.0  T
  21   -379.7833036  0.823261E-03  0.108E-01    0.00       1.0  T
  22   -379.7852567 -0.195309E-02  0.856E-02    0.00       1.0  T
  23   -379.7885993 -0.334261E-02  0.251E-02    0.00       1.0  T
  24   -379.7887628 -0.163490E-03  0.197E-02    0.00       1.0  T
  25   -379.7887114  0.513479E-04  0.199E-02    0.00       1.0  T
  26   -379.7888993 -0.187852E-03  0.687E-03    0.00       1.1  T
  27   -379.7889149 -0.156064E-04  0.351E-03    0.00       2.1  T
  28   -379.7888965  0.183928E-04  0.742E-03    0.00       1.0  T
  29   -379.7889196 -0.230696E-04  0.616E-04    0.00      11.8  T
  30   -379.7889194  0.210483E-06  0.913E-04    0.00       8.0  T
  31   -379.7889193  0.108237E-06  0.977E-04    0.00       7.4  T
  32   -379.7889197 -0.427034E-06  0.840E-05    0.00      86.6  T
  33   -379.7889197 -0.157422E-08  0.362E-05    0.00     201.1  T

   *** convergence criteria satisfied after 33 iterations ***

         #    Occupation            Energy/Eh            Energy/eV
      -------------------------------------------------------------
         1        2.0000           -1.0083063             -27.4374
       ...           ...                  ...                  ...
       299        2.0000           -0.3533357              -9.6148
       300        2.0000           -0.3526272              -9.5955
       301        2.0000           -0.3522908              -9.5863
       302        2.0000           -0.3509002              -9.5485
       303        2.0000           -0.3495029              -9.5105
       304        0.9385           -0.3085260              -8.3954
       305        0.8766           -0.3083971              -8.3919 (HOMO)
       306        0.8061           -0.3082480              -8.3879 (LUMO)
       307        0.3750           -0.3071604              -8.3583
       308        0.0037           -0.3025212              -8.2320
       309        0.0001           -0.2992473              -8.1429
       310        0.0000           -0.2956084              -8.0439
       ...           ...                  ...                  ...
       771                        505.6085456           13758.3088
      -------------------------------------------------------------
                  HL-Gap            0.0001491 Eh            0.0041 eV
             Fermi-level           -0.3086532 Eh           -8.3989 eV

 SCC (total)                   0 d,  0 h,  0 min, 11.328 sec
 SCC setup                      ...        0 min,  0.009 sec (  0.079%)
 Dispersion                     ...        0 min,  0.011 sec (  0.101%)
 classical contributions        ...        0 min,  0.003 sec (  0.030%)
 integral evaluation            ...        0 min,  0.764 sec (  6.745%)
 iterations                     ...        0 min,  8.829 sec ( 77.937%)
 molecular gradient             ...        0 min,  1.633 sec ( 14.418%)
 printout                       ...        0 min,  0.078 sec (  0.689%)

         :::::::::::::::::::::::::::::::::::::::::::::::::::::
         ::                     SUMMARY                     ::
         :::::::::::::::::::::::::::::::::::::::::::::::::::::
         :: total energy            -372.372815173782 Eh    ::
         :: gradient norm              0.079859594810 Eh/a0 ::
         :: HOMO-LUMO gap              0.004057101250 eV    ::
         ::.................................................::
         :: SCC energy              -379.788919693327 Eh    ::
         :: -> electrostatic           0.248712646422 Eh    ::
         :: repulsion energy           7.580252828020 Eh    ::
         :: dispersion energy         -0.164148308475 Eh    ::
         :: halogen bond corr.         0.000000000000 Eh    ::
         :: add. restraining           0.000000000000 Eh    ::
         :: total charge               0.000000000000 e     ::
         :::::::::::::::::::::::::::::::::::::::::::::::::::::

           ------------------------------------------------- 
          |        vertical delta SCC IP calculation        |
           ------------------------------------------------- 
   1   -379.4462681 -0.379446E+03  0.200E-01    0.00       0.0  T
   2   -379.3595300  0.867381E-01  0.492E-01    0.09       1.0  T
   3   -379.3866287 -0.270987E-01  0.368E-01    0.01       1.0  T
   4   -379.4057960 -0.191673E-01  0.329E-01    0.02       1.0  T
   5   -379.4014887  0.430724E-02  0.332E-01    0.00       1.0  T
   6   -379.4497742 -0.482855E-01  0.109E-01    0.01       1.0  T
   7   -379.4541351 -0.436093E-02  0.288E-02    0.00       1.0  T
   8   -379.4537336  0.401545E-03  0.389E-02    0.00       1.0  T
   9   -379.4542887 -0.555080E-03  0.166E-02    0.00       1.0  T
  10   -379.4544032 -0.114584E-03  0.611E-03    0.00       1.2  T
  11   -379.4544161 -0.128285E-04  0.315E-03    0.00       2.3  T
  12   -379.4544069  0.919929E-05  0.554E-03    0.00       1.3  T
  13   -379.4544199 -0.130371E-04  0.832E-04    0.00       8.7  T
  14   -379.4544199  0.269492E-07  0.893E-04    0.00       8.1  T
  15   -379.4544202 -0.357895E-06  0.105E-04    0.00      69.2  T
  16   -379.4544202  0.597062E-07  0.382E-04    0.00      19.1  T
  17   -379.4544202 -0.579608E-07  0.110E-04    0.00      66.3  T
     SCC iter.                  ...        0 min,  4.580 sec
     gradient                   ...        0 min,  1.623 sec
------------------------------------------------------------------------
empirical IP shift (eV):    4.8455
delta SCC IP (eV):    4.2567
------------------------------------------------------------------------
           ------------------------------------------------- 
          |        vertical delta SCC EA calculation        |
           ------------------------------------------------- 
   1   -380.0326885 -0.380033E+03  0.460E-01    0.00       0.0  T
   2   -379.8112784  0.221410E+00  0.843E-01    0.09       1.0  T
   3   -379.9490899 -0.137812E+00  0.630E-01    0.06       1.0  T
   4   -379.9980017 -0.489118E-01  0.509E-01    0.02       1.0  T
   5   -379.9675291  0.304726E-01  0.524E-01    0.00       1.0  T
   6   -379.9593610  0.816810E-02  0.548E-01    0.04       1.0  T
   7   -379.9481391  0.112218E-01  0.558E-01    0.05       1.0  T
   8   -380.0420525 -0.939134E-01  0.305E-01    0.02       1.0  T
   9   -379.9753287  0.667238E-01  0.442E-01    0.01       1.0  T
  10   -380.0389422 -0.636135E-01  0.236E-01    0.02       1.0  T
  11   -380.0611202 -0.221780E-01  0.156E-01    0.02       1.0  T
  12   -380.0541207  0.699952E-02  0.185E-01    0.01       1.0  T
  13   -380.0705061 -0.163854E-01  0.630E-02    0.01       1.0  T
  14   -380.0718715 -0.136534E-02  0.240E-02    0.01       1.0  T
  15   -380.0720637 -0.192258E-03  0.167E-02    0.01       1.0  T
  16   -380.0721681 -0.104345E-03  0.825E-03    0.01       1.0  T
  17   -380.0721545  0.135980E-04  0.832E-03    0.01       1.0  T
  18   -380.0721783 -0.238306E-04  0.488E-03    0.01       1.5  T
  19   -380.0721841 -0.579669E-05  0.338E-03    0.01       2.2  T
  20   -380.0721896 -0.545745E-05  0.499E-04    0.01      14.6  T
  21   -380.0721897 -0.125826E-06  0.137E-04    0.01      53.2  T
  22   -380.0721897  0.130742E-07  0.211E-04    0.01      34.5  T
  23   -380.0721897 -0.120059E-07  0.142E-04    0.01      51.3  T
     SCC iter.                  ...        0 min,  6.196 sec
     gradient                   ...        0 min,  1.625 sec
------------------------------------------------------------------------
empirical EA shift (eV):    4.8455
delta SCC EA (eV):    2.8627
------------------------------------------------------------------------
           -------------------------------------------------
          |                Property Printout                |
           -------------------------------------------------

    * Orbital Energies and Occupations

         #    Occupation            Energy/Eh            Energy/eV
      -------------------------------------------------------------
         1        2.0000           -0.9595308             -26.1102
       ...           ...                  ...                  ...
       293        2.0000           -0.3338218              -9.0838
       294        2.0000           -0.3284588              -8.9378
       295        2.0000           -0.3228705              -8.7858
       296        2.0000           -0.3216181              -8.7517
       297        2.0000           -0.3157384              -8.5917
       298        2.0000           -0.3153750              -8.5818
       299        2.0000           -0.3147433              -8.5646
       300        2.0000           -0.3133518              -8.5267
       301        2.0000           -0.3125081              -8.5038
       302        2.0000           -0.3103416              -8.4448
       303        2.0000           -0.3066151              -8.3434
       304        1.2356           -0.2579955              -7.0204
       305        1.0454           -0.2576257              -7.0104 (HOMO)
       306        0.9114           -0.2573706              -7.0034 (LUMO)
       307        0.7729           -0.2571002              -6.9961
       308        0.0339           -0.2536816              -6.9030
       309        0.0005           -0.2497019              -6.7947
       310        0.0002           -0.2486368              -6.7658
       311        0.0001           -0.2482454              -6.7551
       312        0.0000           -0.2430339              -6.6133
       313                         -0.2182255              -5.9382
       314                         -0.2112185              -5.7475
       315                         -0.2104059              -5.7254
       316                         -0.1964601              -5.3460
       ...                                ...                  ...
       771                        505.6578948           13759.6517
      -------------------------------------------------------------
                  HL-Gap            0.0002552 Eh            0.0069 eV
             Fermi-level           -0.2575394 Eh           -7.0080 eV

  Mulliken/CM5 charges         n(s)   n(p)   n(d)
     1Cu    0.26134  0.61629   0.532  0.885  9.321
     2C    -0.02770 -0.06897   1.083  2.944  0.000
     3C     0.05737  0.11881   1.117  2.826  0.000
     4C    -0.04202 -0.08814   1.086  2.957  0.000
     5C    -0.03704 -0.08275   1.081  2.956  0.000
     6C     0.05788  0.12293   1.109  2.833  0.000
     7N    -0.21542 -0.46561   1.327  3.888  0.000
     8C     0.01030  0.01566   1.095  2.895  0.000
     9C     0.00366 -0.00328   1.079  2.917  0.000
    10C    -0.03818 -0.09029   1.071  2.968  0.000
    11C     0.03037 -0.01484   1.102  2.867  0.000
    12N    -0.24004 -0.59970   1.304  3.936  0.000
    13C     0.03566  0.04741   1.096  2.868  0.000
    14C    -0.05853 -0.10706   1.043  3.016  0.000
    15C     0.05727  0.12156   1.108  2.834  0.000
    16C    -0.03635 -0.08201   1.081  2.955  0.000
    17C    -0.03840 -0.08363   1.085  2.954  0.000
    18N    -0.21205 -0.46184   1.328  3.884  0.000
    19C     0.06299  0.12914   1.121  2.816  0.000
    20C     0.01362  0.02044   1.081  2.906  0.000
    21C     0.06290  0.12905   1.121  2.816  0.000
    22C    -0.03851 -0.08374   1.085  2.954  0.000
    23C    -0.03645 -0.08211   1.081  2.955  0.000
    24C     0.05724  0.12154   1.108  2.834  0.000
    25N    -0.21214 -0.46187   1.328  3.884  0.000
    26C     0.01020  0.01556   1.095  2.895  0.000
    27C     0.00366 -0.00328   1.080  2.917  0.000
    28C    -0.03827 -0.09037   1.071  2.968  0.000
    29C     0.03034 -0.01487   1.102  2.867  0.000
    30N    -0.24012 -0.59975   1.304  3.936  0.000
    31C     0.03562  0.04736   1.096  2.868  0.000
    32C    -0.05851 -0.10703   1.043  3.016  0.000
    33C     0.05785  0.12291   1.109  2.833  0.000
    34C    -0.03708 -0.08278   1.081  2.956  0.000
    35C    -0.04203 -0.08815   1.086  2.956  0.000
    36C     0.05736  0.11879   1.117  2.826  0.000
    37N    -0.21541 -0.46568   1.327  3.888  0.000
    38H     0.01867  0.07758   0.981  0.000  0.000
    39H     0.02455  0.08107   0.975  0.000  0.000
    40H     0.01763  0.07634   0.982  0.000  0.000
    41H     0.01807  0.07593   0.982  0.000  0.000
    42H     0.01723  0.08085   0.983  0.000  0.000
    43H     0.02457  0.08660   0.975  0.000  0.000
    44H     0.16618  0.35904   0.834  0.000  0.000
    45H     0.03906  0.10455   0.961  0.000  0.000
    46H     0.01147  0.06979   0.989  0.000  0.000
    47H     0.01866  0.07786   0.981  0.000  0.000
    48H     0.02290  0.08096   0.977  0.000  0.000
    49H     0.02261  0.08062   0.977  0.000  0.000
    50H     0.01851  0.07770   0.981  0.000  0.000
    51H     0.01803  0.07588   0.982  0.000  0.000
    52H     0.01711  0.08073   0.983  0.000  0.000
    53H     0.02455  0.08658   0.975  0.000  0.000
    54H     0.16609  0.35894   0.834  0.000  0.000
    55H     0.03897  0.10446   0.961  0.000  0.000
    56H     0.01152  0.06983   0.988  0.000  0.000
    57H     0.01759  0.07629   0.982  0.000  0.000
    58H     0.02453  0.08105   0.975  0.000  0.000
    59Cu    0.25768  0.61253   0.532  0.883  9.328
    60C    -0.02719 -0.06845   1.084  2.943  0.000
    61C     0.05746  0.11891   1.117  2.826  0.000
    62C    -0.04188 -0.08800   1.086  2.956  0.000
    63C    -0.03698 -0.08269   1.081  2.956  0.000
    64C     0.05809  0.12316   1.110  2.832  0.000
    65N    -0.21551 -0.46570   1.327  3.888  0.000
    66C     0.01045  0.01581   1.095  2.895  0.000
    67C     0.00366 -0.00329   1.079  2.917  0.000
    68C    -0.03820 -0.09030   1.071  2.968  0.000
    69C     0.03034 -0.01487   1.102  2.867  0.000
    70N    -0.24003 -0.59966   1.304  3.936  0.000
    71C     0.03566  0.04738   1.096  2.868  0.000
    72C    -0.05847 -0.10699   1.043  3.016  0.000
    73C     0.05749  0.12179   1.109  2.834  0.000
    74C    -0.03618 -0.08184   1.081  2.955  0.000
    75C    -0.03826 -0.08348   1.085  2.954  0.000
    76N    -0.21226 -0.46208   1.328  3.884  0.000
    77C     0.06320  0.12936   1.121  2.816  0.000
    78C     0.01393  0.02075   1.081  2.905  0.000
    79C     0.06293  0.12906   1.121  2.816  0.000
    80C    -0.03843 -0.08365   1.085  2.953  0.000
    81C    -0.03632 -0.08197   1.081  2.955  0.000
    82C     0.05745  0.12176   1.109  2.834  0.000
    83N    -0.21243 -0.46211   1.328  3.884  0.000
    84C     0.01031  0.01567   1.095  2.895  0.000
    85C     0.00364 -0.00331   1.079  2.917  0.000
    86C    -0.03823 -0.09034   1.071  2.968  0.000
    87C     0.03034 -0.01488   1.102  2.867  0.000
    88N    -0.24016 -0.59976   1.304  3.936  0.000
    89C     0.03560  0.04732   1.096  2.868  0.000
    90C    -0.05850 -0.10701   1.043  3.016  0.000
    91C     0.05809  0.12316   1.110  2.832  0.000
    92C    -0.03701 -0.08272   1.081  2.956  0.000
    93C    -0.04188 -0.08800   1.086  2.956  0.000
    94C     0.05744  0.11888   1.117  2.826  0.000
    95N    -0.21551 -0.46577   1.327  3.888  0.000
    96H     0.01889  0.07780   0.981  0.000  0.000
    97H     0.02468  0.08119   0.975  0.000  0.000
    98H     0.01772  0.07643   0.982  0.000  0.000
    99H     0.01812  0.07597   0.982  0.000  0.000
   100H     0.01726  0.08088   0.983  0.000  0.000
   101H     0.02459  0.08662   0.975  0.000  0.000
   102H     0.16615  0.35901   0.834  0.000  0.000
   103H     0.03913  0.10461   0.961  0.000  0.000
   104H     0.01155  0.06986   0.988  0.000  0.000
   105H     0.01877  0.07796   0.981  0.000  0.000
   106H     0.02302  0.08112   0.977  0.000  0.000
   107H     0.02256  0.08053   0.977  0.000  0.000
   108H     0.01857  0.07774   0.981  0.000  0.000
   109H     0.01807  0.07592   0.982  0.000  0.000
   110H     0.01712  0.08073   0.983  0.000  0.000
   111H     0.02463  0.08667   0.975  0.000  0.000
   112H     0.16610  0.35895   0.834  0.000  0.000
   113H     0.03900  0.10449   0.961  0.000  0.000
   114H     0.01158  0.06989   0.988  0.000  0.000
   115H     0.01768  0.07639   0.982  0.000  0.000
   116H     0.02466  0.08118   0.975  0.000  0.000
   117C    -0.02285 -0.02448   1.092  2.931  0.000
   118C    -0.02643 -0.02718   1.062  2.964  0.000
   119C    -0.02353 -0.02362   1.076  2.948  0.000
   120C    -0.02296 -0.02297   1.077  2.946  0.000
   121C    -0.02574 -0.02575   1.075  2.951  0.000
   122C    -0.02100 -0.02109   1.078  2.943  0.000
   123C    -0.02954 -0.03028   1.060  2.970  0.000
   124C    -0.02091 -0.02251   1.095  2.926  0.000
   125C    -0.02079 -0.02239   1.096  2.925  0.000
   126C    -0.02973 -0.03046   1.060  2.970  0.000
   127C    -0.02076 -0.02085   1.078  2.942  0.000
   128C    -0.02568 -0.02569   1.075  2.951  0.000
   129C    -0.02266 -0.02267   1.077  2.946  0.000
   130C    -0.02330 -0.02339   1.076  2.948  0.000
   131C    -0.02615 -0.02689   1.062  2.964  0.000
   132C    -0.02251 -0.02413   1.092  2.930  0.000
   133Cu    0.29285  0.64481   0.539  0.895  9.273
   134C     0.00833  0.01518   1.076  2.916  0.000
   135C     0.06259  0.12894   1.121  2.816  0.000
   136C    -0.04085 -0.08606   1.083  2.958  0.000
   137C    -0.03731 -0.08297   1.083  2.955  0.000
   138C     0.05468  0.11900   1.105  2.840  0.000
   139N    -0.21102 -0.46012   1.328  3.883  0.000
   140C     0.01205  0.01733   1.095  2.893  0.000
   141C     0.00495 -0.00203   1.079  2.916  0.000
   142C    -0.03713 -0.08923   1.068  2.969  0.000
   143C     0.03082 -0.01434   1.102  2.867  0.000
   144N    -0.24059 -0.60030   1.304  3.936  0.000
   145C     0.03562  0.04747   1.097  2.868  0.000
   146C    -0.05864 -0.10703   1.042  3.017  0.000
   147C     0.05456  0.11890   1.104  2.841  0.000
   148C    -0.03702 -0.08273   1.081  2.956  0.000
   149C    -0.04078 -0.08599   1.083  2.958  0.000
   150N    -0.21062 -0.46008   1.327  3.883  0.000
   151C     0.06210  0.12837   1.121  2.817  0.000
   152C     0.00799  0.01484   1.076  2.916  0.000
   153C     0.06225  0.12852   1.121  2.817  0.000
   154C    -0.04097 -0.08619   1.083  2.958  0.000
   155C    -0.03723 -0.08295   1.080  2.957  0.000
   156C     0.05478  0.11907   1.104  2.841  0.000
   157N    -0.21103 -0.46011   1.328  3.883  0.000
   158C     0.01177  0.01706   1.095  2.893  0.000
   159C     0.00408 -0.00289   1.079  2.917  0.000
   160C    -0.03708 -0.08921   1.071  2.966  0.000
   161C     0.03055 -0.01467   1.102  2.867  0.000
   162N    -0.24045 -0.60004   1.304  3.936  0.000
   163C     0.03540  0.04709   1.096  2.868  0.000
   164C    -0.05821 -0.10673   1.043  3.015  0.000
   165C     0.05472  0.11907   1.105  2.840  0.000
   166C    -0.03669 -0.08234   1.082  2.955  0.000
   167C    -0.04058 -0.08580   1.084  2.957  0.000
   168C     0.06235  0.12860   1.121  2.817  0.000
   169N    -0.21053 -0.46005   1.327  3.883  0.000
   170H     0.02111  0.07912   0.979  0.000  0.000
   171H     0.01706  0.07590   0.983  0.000  0.000
   172H     0.01999  0.07779   0.980  0.000  0.000
   173H     0.02429  0.08629   0.976  0.000  0.000
   174H     0.01881  0.08244   0.981  0.000  0.000
   175H     0.16587  0.35872   0.834  0.000  0.000
   176H     0.03811  0.10362   0.962  0.000  0.000
   177H     0.01151  0.06995   0.988  0.000  0.000
   178H     0.01714  0.07600   0.983  0.000  0.000
   179H     0.02105  0.07906   0.979  0.000  0.000
   180H     0.02127  0.07928   0.979  0.000  0.000
   181H     0.01767  0.07645   0.982  0.000  0.000
   182H     0.01892  0.07680   0.981  0.000  0.000
   183H     0.02583  0.08789   0.974  0.000  0.000
   184H     0.01681  0.08045   0.983  0.000  0.000
   185H     0.16549  0.35833   0.835  0.000  0.000
   186H     0.03815  0.10361   0.962  0.000  0.000
   187H     0.01115  0.06947   0.989  0.000  0.000
   188H     0.01755  0.07677   0.982  0.000  0.000
   189H     0.02097  0.07900   0.979  0.000  0.000

Wiberg/Mayer (AO) data.
largest (>0.10) Wiberg bond orders for each atom

 ---------------------------------------------------------------------------
     #   Z sym  total        # sym  WBO       # sym  WBO       # sym  WBO
 ---------------------------------------------------------------------------
     1  29 Cu   2.606 --    37 N    0.593     7 N    0.592    18 N    0.590
                            25 N    0.589
     2   6 C    3.796 --    36 C    1.384     3 C    1.384    38 H    0.998
     3   6 C    3.949 --     2 C    1.384     7 N    1.276     4 C    1.198
     4   6 C    3.837 --     5 C    1.641     3 C    1.198    39 H    0.995
     5   6 C    3.826 --     4 C    1.641     6 C    1.206    40 H    1.001
     6   6 C    3.916 --     8 C    1.365     7 N    1.269     5 C    1.206
     7   7 N    2.950 --     3 C    1.276     6 C    1.269     1 Cu   0.592
     8   6 C    3.843 --     6 C    1.365    15 C    1.363     9 C    1.046
     9   6 C    3.877 --    10 C    1.802    14 C    1.119     8 C    1.046
    10   6 C    3.833 --     9 C    1.802    11 C    1.009    41 H    0.987
    11   6 C    3.937 --    10 C    1.009    42 H    0.987    43 H    0.980
                            12 N    0.966
    12   7 N    3.083 --    13 C    1.180    11 C    0.966    44 H    0.957
    13   6 C    3.941 --    14 C    1.708    12 N    1.180    45 H    0.980
    14   6 C    3.821 --    13 C    1.708     9 C    1.119    46 H    0.988
    15   6 C    3.905 --     8 C    1.363    18 N    1.257    16 C    1.217
    16   6 C    3.819 --    17 C    1.623    15 C    1.217    47 H    1.000
    17   6 C    3.828 --    16 C    1.623    19 C    1.223    48 H    1.000
    18   7 N    2.963 --    19 C    1.302    15 C    1.257     1 Cu   0.590
    19   6 C    3.920 --    18 N    1.302    20 C    1.288    17 C    1.223
    20   6 C    3.819 --    21 C    1.289    19 C    1.288   117 C    1.225
    21   6 C    3.920 --    25 N    1.302    20 C    1.289    22 C    1.223
    22   6 C    3.828 --    23 C    1.623    21 C    1.223    49 H    1.000
    23   6 C    3.819 --    22 C    1.623    24 C    1.216    50 H    1.001
    24   6 C    3.905 --    26 C    1.363    25 N    1.257    23 C    1.216
    25   7 N    2.962 --    21 C    1.302    24 C    1.257     1 Cu   0.589
    26   6 C    3.842 --    33 C    1.365    24 C    1.363    27 C    1.046
    27   6 C    3.877 --    28 C    1.803    32 C    1.119    26 C    1.046
    28   6 C    3.833 --    27 C    1.803    29 C    1.009    51 H    0.987
    29   6 C    3.937 --    28 C    1.009    52 H    0.987    53 H    0.980
                            30 N    0.966
    30   7 N    3.082 --    31 C    1.180    29 C    0.966    54 H    0.957
    31   6 C    3.941 --    32 C    1.708    30 N    1.180    55 H    0.980
    32   6 C    3.821 --    31 C    1.708    27 C    1.119    56 H    0.988
    33   6 C    3.916 --    26 C    1.365    37 N    1.269    34 C    1.206
    34   6 C    3.826 --    35 C    1.641    33 C    1.206    57 H    1.001
    35   6 C    3.837 --    34 C    1.641    36 C    1.198    58 H    0.995
    36   6 C    3.949 --     2 C    1.384    37 N    1.276    35 C    1.198
    37   7 N    2.950 --    36 C    1.276    33 C    1.269     1 Cu   0.593
    38   1 H    1.037 --     2 C    0.998
    39   1 H    1.025 --     4 C    0.995
    40   1 H    1.042 --     5 C    1.001
    41   1 H    1.051 --    10 C    0.987
    42   1 H    1.061 --    11 C    0.987
    43   1 H    1.016 --    11 C    0.980
    44   1 H    1.040 --    12 N    0.957
    45   1 H    1.027 --    13 C    0.980
    46   1 H    1.061 --    14 C    0.988
    47   1 H    1.043 --    16 C    1.000
    48   1 H    1.037 --    17 C    1.000
    49   1 H    1.038 --    22 C    1.000
    50   1 H    1.043 --    23 C    1.001
    51   1 H    1.051 --    28 C    0.987
    52   1 H    1.061 --    29 C    0.987
    53   1 H    1.016 --    29 C    0.980
    54   1 H    1.040 --    30 N    0.957
    55   1 H    1.027 --    31 C    0.980
    56   1 H    1.061 --    32 C    0.988
    57   1 H    1.042 --    34 C    1.001
    58   1 H    1.025 --    35 C    0.995
    59  29 Cu   2.598 --    95 N    0.591    65 N    0.590    76 N    0.587
                            83 N    0.587
    60   6 C    3.798 --    94 C    1.385    61 C    1.384    96 H    0.998
    61   6 C    3.950 --    60 C    1.384    65 N    1.277    62 C    1.198
    62   6 C    3.838 --    63 C    1.642    61 C    1.198    97 H    0.995
    63   6 C    3.826 --    62 C    1.642    64 C    1.206    98 H    1.001
    64   6 C    3.917 --    66 C    1.364    65 N    1.270    63 C    1.206
    65   7 N    2.951 --    61 C    1.277    64 C    1.270    59 Cu   0.590
    66   6 C    3.843 --    64 C    1.364    73 C    1.364    67 C    1.046
    67   6 C    3.877 --    68 C    1.802    72 C    1.119    66 C    1.046
    68   6 C    3.833 --    67 C    1.802    69 C    1.009    99 H    0.987
    69   6 C    3.937 --    68 C    1.009   100 H    0.987   101 H    0.980
                            70 N    0.967
    70   7 N    3.082 --    71 C    1.180    69 C    0.967   102 H    0.957
    71   6 C    3.941 --    72 C    1.708    70 N    1.180   103 H    0.980
    72   6 C    3.821 --    71 C    1.708    67 C    1.119   104 H    0.988
    73   6 C    3.906 --    66 C    1.364    76 N    1.258    74 C    1.216
    74   6 C    3.820 --    75 C    1.625    73 C    1.216   105 H    1.000
    75   6 C    3.829 --    74 C    1.625    77 C    1.223   106 H    1.000
    76   7 N    2.962 --    77 C    1.302    73 C    1.258    59 Cu   0.587
    77   6 C    3.920 --    76 N    1.302    78 C    1.289    75 C    1.223
    78   6 C    3.821 --    79 C    1.291    77 C    1.289   132 C    1.223
    79   6 C    3.921 --    83 N    1.302    78 C    1.291    80 C    1.223
    80   6 C    3.829 --    81 C    1.625    79 C    1.223   107 H    1.000
    81   6 C    3.820 --    80 C    1.625    82 C    1.216   108 H    1.001
    82   6 C    3.906 --    84 C    1.364    83 N    1.259    81 C    1.216
    83   7 N    2.962 --    79 C    1.302    82 C    1.259    59 Cu   0.587
    84   6 C    3.843 --    91 C    1.364    82 C    1.364    85 C    1.046
    85   6 C    3.877 --    86 C    1.803    90 C    1.119    84 C    1.046
    86   6 C    3.833 --    85 C    1.803    87 C    1.009   109 H    0.987
    87   6 C    3.937 --    86 C    1.009   110 H    0.987   111 H    0.980
                            88 N    0.966
    88   7 N    3.082 --    89 C    1.180    87 C    0.966   112 H    0.957
    89   6 C    3.941 --    90 C    1.708    88 N    1.180   113 H    0.980
    90   6 C    3.821 --    89 C    1.708    85 C    1.119   114 H    0.988
    91   6 C    3.917 --    84 C    1.364    95 N    1.270    92 C    1.206
    92   6 C    3.826 --    93 C    1.642    91 C    1.206   115 H    1.001
    93   6 C    3.838 --    92 C    1.642    94 C    1.198   116 H    0.995
    94   6 C    3.950 --    60 C    1.385    95 N    1.276    93 C    1.198
    95   7 N    2.951 --    94 C    1.276    91 C    1.270    59 Cu   0.591
    96   1 H    1.036 --    60 C    0.998
    97   1 H    1.024 --    62 C    0.995
    98   1 H    1.042 --    63 C    1.001
    99   1 H    1.051 --    68 C    0.987
   100   1 H    1.061 --    69 C    0.987
   101   1 H    1.016 --    69 C    0.980
   102   1 H    1.040 --    70 N    0.957
   103   1 H    1.027 --    71 C    0.980
   104   1 H    1.061 --    72 C    0.988
   105   1 H    1.043 --    74 C    1.000
   106   1 H    1.037 --    75 C    1.000
   107   1 H    1.038 --    80 C    1.000
   108   1 H    1.043 --    81 C    1.001
   109   1 H    1.051 --    86 C    0.987
   110   1 H    1.061 --    87 C    0.987
   111   1 H    1.016 --    87 C    0.980
   112   1 H    1.040 --    88 N    0.957
   113   1 H    1.027 --    89 C    0.980
   114   1 H    1.061 --    90 C    0.988
   115   1 H    1.042 --    92 C    1.001
   116   1 H    1.024 --    93 C    0.995
   117   6 C    3.751 --   118 C    2.457    20 C    1.225   120 C    0.164
   118   6 C    3.809 --   117 C    2.457   119 C    1.366
   119   6 C    3.798 --   120 C    2.337   118 C    1.366   122 C    0.158
   120   6 C    3.833 --   119 C    2.337   121 C    1.395   117 C    0.164
   121   6 C    3.831 --   122 C    2.335   120 C    1.395   124 C    0.163
   122   6 C    3.800 --   121 C    2.335   123 C    1.369   119 C    0.158
   123   6 C    3.805 --   124 C    2.451   122 C    1.369
   124   6 C    3.752 --   123 C    2.451   134 C    1.230   121 C    0.163
   125   6 C    3.752 --   126 C    2.453   152 C    1.228   128 C    0.163
   126   6 C    3.805 --   125 C    2.453   127 C    1.367
   127   6 C    3.801 --   128 C    2.337   126 C    1.367   130 C    0.158
   128   6 C    3.832 --   127 C    2.337   129 C    1.393   125 C    0.163
   129   6 C    3.834 --   130 C    2.339   128 C    1.393   132 C    0.164
   130   6 C    3.798 --   129 C    2.339   131 C    1.364   127 C    0.158
   131   6 C    3.810 --   132 C    2.460   130 C    1.364
   132   6 C    3.751 --   131 C    2.460    78 C    1.223   129 C    0.164
   133  29 Cu   2.666 --   169 N    0.607   150 N    0.607   157 N    0.606
                           139 N    0.606
   134   6 C    3.798 --   168 C    1.282   135 C    1.281   124 C    1.230
   135   6 C    3.922 --   139 N    1.302   134 C    1.281   136 C    1.228
   136   6 C    3.823 --   137 C    1.618   135 C    1.228   170 H    1.000
   137   6 C    3.822 --   136 C    1.618   138 C    1.220   171 H    1.001
   138   6 C    3.902 --   140 C    1.367   139 N    1.247   137 C    1.220
   139   7 N    2.960 --   135 C    1.302   138 C    1.247   133 Cu   0.606
   140   6 C    3.838 --   138 C    1.367   147 C    1.363   141 C    1.045
   141   6 C    3.875 --   142 C    1.802   146 C    1.120   140 C    1.045
   142   6 C    3.831 --   141 C    1.802   143 C    1.009   172 H    0.986
   143   6 C    3.936 --   142 C    1.009   174 H    0.988   173 H    0.978
                           144 N    0.968
   144   7 N    3.084 --   145 C    1.179   143 C    0.968   175 H    0.957
   145   6 C    3.943 --   146 C    1.707   144 N    1.179   176 H    0.980
   146   6 C    3.821 --   145 C    1.707   141 C    1.120   177 H    0.988
   147   6 C    3.899 --   140 C    1.363   150 N    1.249   148 C    1.222
   148   6 C    3.819 --   149 C    1.617   147 C    1.222   178 H    1.000
   149   6 C    3.820 --   148 C    1.617   151 C    1.228   179 H    1.000
   150   7 N    2.960 --   151 C    1.300   147 C    1.249   133 Cu   0.607
   151   6 C    3.919 --   150 N    1.300   152 C    1.283   149 C    1.228
   152   6 C    3.798 --   153 C    1.283   151 C    1.283   125 C    1.228
   153   6 C    3.922 --   157 N    1.301   152 C    1.283   154 C    1.228
   154   6 C    3.822 --   155 C    1.617   153 C    1.228   180 H    1.000
   155   6 C    3.817 --   154 C    1.617   156 C    1.220   181 H    1.000
   156   6 C    3.900 --   158 C    1.365   157 N    1.248   155 C    1.220
   157   7 N    2.960 --   153 C    1.301   156 C    1.248   133 Cu   0.606
   158   6 C    3.838 --   156 C    1.365   165 C    1.363   159 C    1.047
   159   6 C    3.877 --   160 C    1.802   164 C    1.119   158 C    1.047
   160   6 C    3.833 --   159 C    1.802   161 C    1.009   182 H    0.987
   161   6 C    3.937 --   160 C    1.009   184 H    0.988   183 H    0.980
                           162 N    0.967
   162   7 N    3.082 --   163 C    1.180   161 C    0.967   185 H    0.957
   163   6 C    3.941 --   164 C    1.709   162 N    1.180   186 H    0.980
   164   6 C    3.822 --   163 C    1.709   159 C    1.119   187 H    0.988
   165   6 C    3.899 --   158 C    1.363   169 N    1.248   166 C    1.221
   166   6 C    3.819 --   167 C    1.617   165 C    1.221   188 H    1.001
   167   6 C    3.821 --   166 C    1.617   168 C    1.227   189 H    1.000
   168   6 C    3.919 --   169 N    1.301   134 C    1.282   167 C    1.227
   169   7 N    2.960 --   168 C    1.301   165 C    1.248   133 Cu   0.607
   170   1 H    1.038 --   136 C    1.000
   171   1 H    1.044 --   137 C    1.001
   172   1 H    1.050 --   142 C    0.986
   173   1 H    1.024 --   143 C    0.978
   174   1 H    1.056 --   143 C    0.988
   175   1 H    1.040 --   144 N    0.957
   176   1 H    1.028 --   145 C    0.980
   177   1 H    1.059 --   146 C    0.988
   178   1 H    1.044 --   148 C    1.000
   179   1 H    1.037 --   149 C    1.000
   180   1 H    1.037 --   154 C    1.000
   181   1 H    1.042 --   155 C    1.000
   182   1 H    1.051 --   160 C    0.987
   183   1 H    1.015 --   161 C    0.980
   184   1 H    1.062 --   161 C    0.988
   185   1 H    1.041 --   162 N    0.957
   186   1 H    1.028 --   163 C    0.980
   187   1 H    1.061 --   164 C    0.988
   188   1 H    1.044 --   166 C    1.001
   189   1 H    1.038 --   167 C    1.000
 ---------------------------------------------------------------------------

Topologies differ in total number of bonds
Writing topology from bond orders to xtbtopo.mol

 dipole moment from electron density (au)
     X       Y       Z   
 -77.5897  -0.9129  -0.8145  total (Debye):  197.238


           -------------------------------------------------
          | TOTAL ENERGY             -372.656085170433 Eh   |
          | GRADIENT NORM               0.097253437672 Eh/α |
          | HOMO-LUMO GAP               0.006943365607 eV   |
           -------------------------------------------------
########################################################################
[WARNING] Runtime exception occurred
-1- restart_readRestart: Dimension missmatch in restart file.
########################################################################

------------------------------------------------------------------------
 * finished run on 2022/07/30 at 06:27:48.251     
------------------------------------------------------------------------
 total:
 * wall-time:     0 d,  0 h,  0 min, 27.810 sec
 *  cpu-time:     0 d,  0 h,  0 min, 27.564 sec
 * ratio c/w:     0.991 speedup
 SCF:
 * wall-time:     0 d,  0 h,  0 min, 27.070 sec
 *  cpu-time:     0 d,  0 h,  0 min, 26.843 sec
 * ratio c/w:     0.992 speedup

