189
 energy: -326.714517227707 gnorm: 1.502821188042 xtb: 6.5.1 (b24c23e)
Cu          23.93370300000000        0.28003600000000        0.20203200000000
C           20.59916000000000        0.15387000000000        0.16037300000000
C           21.26005100000000       -1.00752900000000        0.16114100000000
C           20.60816700000000       -2.31021100000000        0.21153800000000
C           21.54686100000000       -3.23710000000000        0.15668300000000
C           22.85174600000000       -2.56909200000000        0.05743000000000
N           22.67614700000000       -1.15170600000000        0.07180700000000
C           24.04218400000000       -3.19529800000000       -0.05743300000000
C           24.09342600000000       -4.67594700000000       -0.10671300000000
C           23.62272400000000       -5.33660100000000       -1.17552700000000
C           23.61186400000000       -6.84224100000000       -1.24971800000000
N           24.41552600000000       -7.45970300000000       -0.19159200000000
C           24.86227900000000       -6.73142100000000        0.95673600000000
C           24.71309600000000       -5.41007000000000        1.01336700000000
C           25.33257499999999       -2.46075400000000       -0.13462100000000
C           26.61285500000000       -3.09028700000000       -0.48209600000000
C           27.54735900000000       -2.16281900000000       -0.42181800000000
N           25.47834400000000       -1.19764800000000        0.12462800000000
C           26.87136100000000       -0.93061700000000       -0.03600700000000
C           27.46737200000000        0.24906100000000        0.20358600000000
C           26.70334900000000        1.45834200000000        0.57892400000000
C           27.22748100000000        2.51994800000000        1.17885500000000
C           26.18537299999999        3.52579900000000        1.26218200000000
C           25.09544200000000        3.01206100000000        0.70242800000000
N           25.33358800000000        1.68021700000000        0.24486600000000
C           23.82431600000000        3.75282000000000        0.50181400000000
C           23.86353700000000        5.23671400000000        0.50714500000000
C           23.18687000000000        5.93515200000000        1.43416000000000
C           23.16244100000000        7.44220900000000        1.44543800000000
N           24.16923000000000        8.02533400000000        0.55484800000000
C           24.84551300000000        7.25694300000000       -0.44621000000000
C           24.70695300000000        5.93361400000000       -0.48410100000000
C           22.66297300000000        3.10442400000000        0.28826300000000
C           21.36153400000000        3.71741600000000        0.02679800000000
C           20.49822700000000        2.72316400000000       -0.05759300000000
C           21.24012700000000        1.47823100000000        0.13450500000000
N           22.50213900000000        1.68830700000000        0.33677700000000
H           19.51593400000000        0.12887900000000        0.17518700000000
H           19.54527000000000       -2.50124000000000        0.28466300000000
H           21.35753000000000       -4.30184300000000        0.17948500000000
H           23.17569700000000       -4.78652600000000       -1.99576600000000
H           24.00916700000000       -7.15832900000000       -2.23797500000000
H           22.56334700000000       -7.19627700000000       -1.16111900000000
H           24.56634100000000       -8.49259700000000       -0.21834800000000
H           25.34402200000000       -7.25623000000000        1.77226200000000
H           25.07229200000000       -4.86804900000000        1.88041100000000
H           26.78025700000000       -4.12690700000000       -0.74424000000000
H           28.59850700000000       -2.31787900000000       -0.62315000000000
H           28.24891200000000        2.63347000000000        1.51715900000000
H           26.28936100000000        4.52102700000000        1.67532500000000
H           22.58726000000000        5.41306500000000        2.17080600000000
H           23.34739100000000        7.79559500000000        2.48153000000000
H           22.15478100000000        7.78575800000000        1.12992900000000
H           24.31190800000000        9.05913700000000        0.57100800000000
H           25.48633000000000        7.75408000000000       -1.16373200000000
H           25.23538200000000        5.36296800000000       -1.23837800000000
H           21.12338400000000        4.76727700000000       -0.08087000000000
H           19.43580300000000        2.82556600000000       -0.23911800000000
Cu          58.65063700000000        0.21914300000000        0.19542000000000
C           61.98518000000000        0.35130900000000        0.18181200000000
C           61.32428800000000        1.48547500000000        0.43184500000000
C           61.97617300000000        2.74697800000000        0.76067500000000
C           61.03747900000000        3.66403900000000        0.90604600000000
C           59.73259400000000        3.03290400000000        0.66572500000000
N           59.90819300000000        1.64546600000000        0.37553900000000
C           58.54215600000000        3.66916900000000        0.68794800000000
C           58.49091399999999        5.12588600000000        0.95762300000000
C           58.96161600000000        6.00055300000000        0.05552300000000
C           58.97247600000000        7.48702600000000        0.30623100000000
N           58.16881400000000        7.86298100000000        1.47222800000000
C           57.72206100000000        6.90519500000000        2.43747300000000
C           57.87124399999999        5.60248600000000        2.20917000000000
C           57.25176499999999        2.96831200000000        0.45489600000000
C           55.97148499999999        3.65775500000000        0.25064300000000
C           55.03698000000000        2.73896500000000        0.11044500000000
N           57.10599500000000        1.67900000000000        0.43699000000000
C           55.71297900000000        1.45267100000000        0.22278400000000
C           55.11696800000000        0.24906100000000        0.20358600000000
C           55.88099099999999       -1.01259800000000        0.31061600000000
C           55.35685899999999       -2.17823000000000        0.66870100000000
C           56.39896699999999       -3.17852300000000        0.53419000000000
C           57.48889799999999       -2.55661300000000        0.09775200000000
N           57.25075200000000       -1.15759900000000       -0.06328000000000
C           58.76002399999999       -3.23704700000000       -0.25718300000000
C           58.72080300000000       -4.68750100000000       -0.57048000000000
C           59.39747000000000       -5.56863500000000        0.18501700000000
C           59.42189900000000       -7.04298800000000       -0.12744300000000
N           58.41511000000000       -7.42136600000000       -1.12243900000000
C           57.73882699999999       -6.45601600000000       -1.93523700000000
C           57.87738700000000       -5.15539700000000       -1.68820600000000
C           59.92136700000000       -2.55792700000000       -0.32658600000000
C           61.22280600000000       -3.10051100000000       -0.71352900000000
C           62.08611300000000       -2.11131900000000       -0.58254800000000
C           61.34421300000000       -0.93663200000000       -0.12771400000000
N           60.08220100000000       -1.18522800000000        0.02475300000000
H           63.06840600000000        0.37253800000000        0.20164500000000
H           63.03906900000000        2.91786000000000        0.87309800000000
H           61.22681000000000        4.69907200000000        1.15685300000000
H           59.40864300000000        5.63935500000000       -0.86366800000000
H           58.57517299999999        8.00786700000000       -0.59114700000000
H           60.02099300000000        7.81379400000000        0.46875600000000
H           58.01799900000000        8.87754400000000        1.66779600000000
H           57.24031799999999        7.24272800000000        3.34663800000000
H           57.51204700000000        4.88699500000000        2.93966700000000
H           55.80408300000000        4.72648100000000        0.21710900000000
H           53.98583199999999        2.93362500000000       -0.05291300000000
H           54.33542800000000       -2.36171900000000        0.97475400000000
H           56.29497899999999       -4.23923200000000        0.72408900000000
H           59.99707999999999       -5.21683000000000        1.01655500000000
H           59.23694900000000       -7.61052500000000        0.80865100000000
H           60.42955899999999       -7.31081000000000       -0.50933800000000
H           58.27243200000000       -8.43454300000000       -1.32855100000000
H           57.09801000000000       -6.78755800000000       -2.74274200000000
H           57.34895700000000       -4.43615300000000       -2.30242000000000
H           61.46095600000000       -4.10279300000000       -1.04403000000000
H           63.14853700000000       -2.17237100000000       -0.78182200000000
C           28.79735900000000        0.26375200000000        0.21386200000000
C           30.25558600000000        0.24191500000000        0.19598800000000
C           31.38951399999999        0.22116200000000        0.19449700000000
C           32.75089500000000        0.20857200000000        0.19230600000000
C           34.02511400000000        0.21887800000000        0.18754100000000
C           35.21357700000000        0.23767600000000        0.18138500000000
C           36.56593700000000        0.26246100000000        0.19725300000000
C           37.66620500000000        0.26375200000000        0.21386200000000
C           44.79409800000000        0.26375200000000        0.21386200000000
C           46.25232500000000        0.24191500000000        0.19598800000000
C           47.38625300000000        0.22116200000000        0.19449700000000
C           48.74763400000000        0.20857200000000        0.19230600000000
C           50.02185300000000        0.21887800000000        0.18754100000000
C           51.21031600000000        0.23767600000000        0.18138500000000
C           52.56267600000000        0.26246100000000        0.19725300000000
C           53.66294400000000        0.26375200000000        0.21386200000000
Cu          41.00056500000000       -0.02107700000000       -0.30893500000000
C           38.16691400000000       -0.58089800000000       -0.47434600000000
C           38.48614299999999        0.46442400000000       -1.23934400000000
C           38.28198200000000        1.86492700000000       -0.86474300000000
C           39.09113400000000        2.61666900000000       -1.59249300000000
C           39.95610900000000        1.72623300000000       -2.37015800000000
N           39.54133400000000        0.37483100000000       -2.18943800000000
C           41.18864400000000        2.06404600000000       -2.78806700000000
C           41.53331000000000        3.48004800000000       -3.08620200000000
C           40.73975800000000        4.21272600000000       -3.88585500000000
C           41.04830500000000        5.64287200000000       -4.24750600000000
N           42.17665900000000        6.18345400000000       -3.48354300000000
C           43.03482499999999        5.36263300000000       -2.68939400000000
C           42.74481299999999        4.08148700000000       -2.49264700000000
C           42.28930700000000        1.09723300000000       -2.59514700000000
C           43.41926200000000        0.89776500000000       -3.50436200000000
C           44.31628700000000        0.15974700000000       -2.86712200000000
N           42.49999700000000        0.54286700000000       -1.44409500000000
C           43.77688000000000       -0.07551200000000       -1.52963500000000
C           44.44036900000000       -0.58089800000000       -0.47434600000000
C           43.83810200000000       -0.62948100000000        0.88111600000000
C           44.51634200000000       -0.63506100000000        2.02537700000000
C           43.54212800000000       -0.69205000000000        3.10740200000000
C           42.33413199999999       -0.72782700000000        2.55015100000000
N           42.43689100000000       -0.68649200000000        1.12527500000000
C           41.04567900000000       -0.87165600000000        3.28988400000000
C           41.05995600000000       -1.30401000000000        4.71039500000000
C           41.63888700000000       -2.46507400000000        5.05482400000000
C           41.70898300000000       -2.92714800000000        6.48709900000000
N           40.76670299999999       -2.20895800000000        7.34378400000000
C           40.23983900000000       -0.92873000000000        6.97870300000000
C           40.38072300000000       -0.48249500000000        5.73026200000000
C           39.87088900000000       -0.70491500000000        2.65018700000000
C           38.54031499999999       -1.10128000000000        3.11752800000000
C           37.73989499999999       -1.02835800000000        2.06235300000000
C           38.53639900000000       -0.53490400000000        0.94036400000000
N           39.76920500000000       -0.35923300000000        1.28020800000000
H           37.60265700000000        2.23365400000000       -0.10831900000000
H           39.19223500000000        3.68733300000000       -1.48480200000000
H           39.86394800000000        3.76105500000000       -4.33437900000000
H           41.28225700000000        5.69536100000000       -5.33387600000000
H           40.14767900000000        6.26420800000000       -4.04981400000000
H           42.41812600000000        7.18870800000000       -3.59960000000000
H           43.91469400000000        5.79052500000000       -2.23258300000000
H           43.39751800000000        3.48504800000000       -1.86869800000000
H           43.52470700000000        1.29687900000000       -4.50543800000000
H           45.27445800000000       -0.14609300000000       -3.26555700000000
H           45.59062500000000       -0.59011500000000        2.13791400000000
H           43.76419900000000       -0.72299100000000        4.16731600000000
H           42.12533400000000       -3.06956800000000        4.30400100000000
H           42.73848099999999       -2.76805200000000        6.86627600000000
H           41.47878100000000       -4.01281100000000        6.52534800000000
H           40.60580800000000       -2.55907100000000        8.31505000000000
H           39.69744399999999       -0.34456000000000        7.70383900000000
H           39.96248000000000        0.48290000000000        5.46374300000000
H           38.26148600000000       -1.46907600000000        4.09502100000000
H           36.69956499999999       -1.31342500000000        2.04025300000000
189
 energy: -327.196845823165 gnorm: 0.578809832455 xtb: 6.5.1 (b24c23e)
Cu          23.94015823559089        0.27748690661530        0.20259358562025
C           20.59976007830778        0.16823772106640        0.16005310679738
C           21.26579836599392       -1.00977364747370        0.16166044622543
C           20.60732885062789       -2.30448975752979        0.21142719685497
C           21.55504266864284       -3.23901943131480        0.15672465040851
C           22.84997364107771       -2.56477500889799        0.05859141907113
N           22.66120078604201       -1.16453122129097        0.06908380805466
C           24.05461750725024       -3.19265350949436       -0.05735710454938
C           24.09711005767240       -4.67543525254311       -0.10578382853825
C           23.62285075123655       -5.33706487860630       -1.17125207459495
C           23.61340332578791       -6.84394307983731       -1.24753103999730
N           24.42147122190397       -7.45952193829084       -0.18360977171789
C           24.85788273999063       -6.73610656771484        0.94680499071913
C           24.71184984719438       -5.40620649802103        1.00996465531018
C           25.32657157090591       -2.47780962778348       -0.13562782568178
C           26.59904727985768       -3.10029556458522       -0.48035332453279
C           27.54470851391305       -2.15526932790387       -0.42064220145558
N           25.48769981847194       -1.19272614382592        0.12041955987141
C           26.86354143539030       -0.94202336851247       -0.03902943743766
C           27.47447526324621        0.26007628853647        0.20913748229057
C           26.69352731313112        1.45464830156831        0.57143547526362
C           27.22730213463059        2.53651303184372        1.18449285706080
C           26.20080743476938        3.52783089248529        1.26499771692397
C           25.08626658912600        3.00570326829003        0.69390686683536
N           25.33749713865905        1.68284830300390        0.25024164946399
C           23.83545192397574        3.74726206964562        0.50052496304222
C           23.86866300327737        5.23393566980391        0.50733203306805
C           23.18807488470254        5.93447693040001        1.42937546064064
C           23.16466964067722        7.44342558057816        1.44356316791167
N           24.17665457998932        8.02470060675161        0.54819786395119
C           24.83877345509737        7.26167544302911       -0.43758807387187
C           24.70481231522643        5.92951942103614       -0.48089277494958
C           22.66213613248499        3.10387972179065        0.28734726482608
C           21.36816686745674        3.71732637539470        0.02791829919395
C           20.49131350884691        2.71370166232575       -0.05763018072882
C           21.22421920796530        1.47040931436692        0.13448355256330
N           22.50400339897183        1.69615694782404        0.33641579978774
H           19.51630075886851        0.13210243928391        0.17434006438208
H           19.54539598058961       -2.49636273145572        0.28472930884111
H           21.36339651246001       -4.30237124995638        0.17918308439007
H           23.17647442685466       -4.78927315357238       -1.99593370527939
H           24.00763439095208       -7.15913112127444       -2.23449960600149
H           22.56507091116314       -7.19708001390834       -1.16300041372118
H           24.56415760704163       -8.48033765371307       -0.21677402559916
H           25.34194559683932       -7.26110666272452        1.76630332332937
H           25.07122063610557       -4.86686388981227        1.87877985475701
H           26.77513722408898       -4.12984157644040       -0.74406754788315
H           28.59710739313325       -2.31159651237938       -0.62163335263338
H           28.24867170433210        2.63577144859251        1.51843819120885
H           26.29207099244751        4.52080864582997        1.67658274459571
H           22.58792595882857        5.41578904567121        2.17098626290317
H           23.34659444541950        7.79638460990999        2.47796591011706
H           22.15630016218829        7.78644847638922        1.13200752297883
H           24.31007476782063        9.04685836894365        0.56960285399608
H           25.48303519601387        7.75899369038743       -1.15837129583613
H           25.23412358805001        5.36176165108660       -1.23695180260484
H           21.12895338319938        4.76668867168197       -0.08015925823371
H           19.43393062991724        2.82138593363565       -0.23931547549792
Cu          58.64452568247540        0.22129508607430        0.19603041250948
C           61.98443691930311        0.33778360603976        0.17844454909735
C           61.31866913387550        1.48746899393309        0.43258982830282
C           61.97707142002616        2.74174622698262        0.75948675878339
C           61.02976892432043        3.66602670684255        0.90622624233246
C           59.73433899485839        3.02802618785619        0.66554916898808
N           59.92322518498047        1.65911563339877        0.37718910419964
C           58.52983689049611        3.66644989016088        0.68755816802955
C           58.48714426831048        5.12526540126442        0.95838516051446
C           58.96145810524487        6.00011936190041        0.05978086263616
C           58.97096386546236        7.48823409399269        0.30873892606836
N           58.16284634734526        7.86106892137146        1.47999363404912
C           57.72645855012822        6.91194506298261        2.42878404052553
C           57.87246448346360        5.59945271983891        2.20501068923619
C           57.25836958304134        2.98333711365967        0.45792264762542
C           55.98289127573236        3.66638088458750        0.25364389964010
C           55.03856061177368        2.73284180656505        0.11068995381549
N           57.09918468944480        1.67702929295296        0.43252935315266
C           55.72061806254499        1.45916661701069        0.22209808126395
C           55.13269415481523        0.23952269618678        0.20616536583089
C           55.89013453099444       -1.00425860165784        0.30351768313408
C           55.35630151254174       -2.19636861205343        0.67002168849908
C           56.38228376332114       -3.18072021253792        0.53694373236050
C           57.49822493810911       -2.54788057515005        0.09048770017432
N           57.24736279185944       -1.16203619147157       -0.05833617627884
C           58.74851128324291       -3.23120603380083       -0.25724376191704
C           58.71562522502362       -4.68484372422926       -0.56964527983149
C           59.39628300476755       -5.56695384176242        0.18049306888410
C           59.41965958117105       -7.04377766443374       -0.12953494167009
N           58.40768253351470       -7.41929264275030       -1.12881995467627
C           57.74558220600381       -6.46251747710160       -1.92781442137911
C           57.87953783518752       -5.15206569189761       -1.68419095044124
C           59.92241956628416       -2.55715479510810       -0.32732714785473
C           61.21624273281383       -3.10080010624188       -0.71231648362657
C           62.09312568288504       -2.10214583108414       -0.58059282008264
C           61.36003079793545       -0.92938697240972       -0.12607365358635
N           60.08088747628022       -1.19330670082690        0.02191013347903
H           63.06800163927905        0.36961988686765        0.20021720257718
H           63.03898761283521        2.91318049210244        0.87209984283062
H           61.22101536615602        4.69969676223824        1.15668608390424
H           59.40786555316371        5.64207212325879       -0.86323714128501
H           58.57670827491877        8.00789955890528       -0.58757691011338
H           60.01927049272783        7.81498813141414        0.46709552739423
H           58.02018927016170        8.86522768292022        1.66671028129244
H           57.24239512780681        7.24877781582277        3.34186714288648
H           57.51313367887734        4.88619429573528        2.93783320486086
H           55.80888793145882        4.72916426883946        0.21787822041301
H           53.98700367983493        2.92788531212549       -0.05294656608510
H           54.33562485966527       -2.36465264400005        0.97568380570667
H           56.29212947654065       -4.23921377921861        0.72546147031142
H           59.99641125733599       -5.21952822387802        1.01615586806921
H           59.23774577888685       -7.61052637212545        0.80499830355641
H           60.42803449941470       -7.31191925973257       -0.50745305984374
H           58.27425788877058       -8.42224131093650       -1.32728672301759
H           57.10130866625904       -6.79350126253005       -2.73854653623464
H           57.35022026162116       -4.43527858479552       -2.30076550108813
H           61.45539920336129       -4.10240911027409       -1.04321139011513
H           63.15045652275903       -2.16827308488289       -0.78110760427976
C           28.82534508419421        0.27107007631269        0.21401335921803
C           30.18110032263266        0.24348792419106        0.19612620520606
C           31.42663171607347        0.22061059755093        0.19461581190817
C           32.72804874529233        0.20771526185850        0.19261045178986
C           33.98783052350869        0.21825571854965        0.18559983406425
C           35.21512454346823        0.24336623838557        0.18138341561287
C           36.45795500918597        0.28229728594991        0.21180928457816
C           37.67906357776769        0.29119505159499        0.25320073521136
C           44.83820516008843        0.30731230505384        0.25200286393629
C           46.21950282972479        0.26545598860353        0.21555128477426
C           47.43266639693739        0.22532648635989        0.19212357330067
C           48.73600036553586        0.20639647268093        0.19004689171025
C           49.99768103259577        0.21797193997348        0.18841226260852
C           51.22186317411753        0.23920735641730        0.18131348729611
C           52.52251224794240        0.26029960045867        0.19621454427162
C           53.73115974111180        0.25586064963178        0.21409465464347
Cu          41.00186504677499       -0.02524849109522       -0.30729387144091
C           38.20595166600006       -0.63577240741117       -0.51248720750890
C           38.51561714788274        0.47387967651948       -1.27088309589602
C           38.28156761479394        1.86922801366995       -0.87495542353057
C           39.09822110734050        2.62385073062246       -1.60327009366467
C           39.95053436968929        1.72534713971046       -2.36553529410644
N           39.55029674005918        0.39259996352678       -2.18343128611139
C           41.20208397770636        2.06649292164309       -2.79014082045293
C           41.53710787708033        3.47631322230206       -3.08713593119605
C           40.74203485495328        4.21326949783576       -3.88387718121522
C           41.05066041663351        5.64401289842463       -4.24573557404991
N           42.18328426666332        6.18298181630559       -3.47744207858356
C           43.02660952489865        5.36769127505769       -2.69664056092839
C           42.74143367705875        4.07654696995395       -2.49517232418877
C           42.29221790755995        1.11368037939903       -2.61706988746217
C           43.40872768077782        0.91209316472743       -3.51066557024591
C           44.31550441436194        0.15551742526642       -2.86348290351610
N           42.50929537394892        0.53248967750866       -1.45133225593029
C           43.74872055635955       -0.08788373859727       -1.57658099409706
C           44.40337652586364       -0.62571330577017       -0.50719095686352
C           43.81970414750169       -0.63580633313578        0.88917549019412
C           44.51989287909095       -0.65180156478156        2.06164190960617
C           43.55840184675176       -0.69217091499253        3.11162330787095
C           42.32383114066796       -0.73180244242724        2.54061002207741
N           42.43979512483773       -0.67881722798135        1.13723861854799
C           41.05701801898395       -0.87176353639021        3.28617089626289
C           41.06210469085897       -1.29964447679447        4.70822807157156
C           41.63903454690762       -2.46075962346853        5.05656364111330
C           41.70684460847507       -2.92602629859554        6.48910333109445
N           40.75953786907571       -2.20225586968145        7.34587959564980
C           40.24512184134890       -0.93971685545412        6.97909667517096
C           40.38201492740934       -0.48446113006436        5.72525050058533
C           39.87123690376654       -0.70907834005554        2.64808897943452
C           38.54721528047703       -1.10206879532752        3.12233509368503
C           37.73947123722692       -1.04700919924216        2.06673898005996
C           38.54585176393159       -0.55821394426911        0.95780183950538
N           39.78651191311766       -0.35397995759280        1.30030422857522
H           37.60558249583391        2.23909335235665       -0.11404948877786
H           39.19627728066406        3.68971947003739       -1.48943546571909
H           39.86420080646881        3.76341307784432       -4.33524803343031
H           41.28054844300704        5.69677161224697       -5.33153037242548
H           40.15121313860404        6.26367855923652       -4.05140156541404
H           42.41654136899331        7.17745251975922       -3.59865542917818
H           43.91081507547213        5.79627319674924       -2.23621528720038
H           43.39596157834541        3.48310693617689       -1.86959481344053
H           43.52050093215602        1.29903948251954       -4.50793357972668
H           45.27392832082855       -0.14964039259440       -3.25989003848652
H           45.59062743124516       -0.59461978243363        2.14773256856122
H           43.76757689578631       -0.72121132266704        4.16798986441287
H           42.12546486124818       -3.07110441676470        4.30582568969350
H           42.73762191321093       -2.77045328593452        6.86635688672472
H           41.47965775326465       -4.00937736353198        6.52735288670094
H           40.60829848051926       -2.55332971082010        8.30407249100831
H           39.69955760870692       -0.35071073522497        7.70741905998460
H           39.96383060595925        0.48145383418138        5.46199838803672
H           38.26587265489456       -1.46609287920228        4.09756987126654
H           36.69785499195864       -1.31393080069785        2.03907718182601
189
 energy: -327.372701694061 gnorm: 0.253716094654 xtb: 6.5.1 (b24c23e)
Cu          23.95089664016257        0.27206732911397        0.20178443862798
C           20.60172744408080        0.18558868974087        0.15957205042408
C           21.27059536096989       -1.01147541640721        0.16217571722727