      -----------------------------------------------------------      
     |                   =====================                   |     
     |                           x T B                           |     
     |                   =====================                   |     
     |                         S. Grimme                         |     
     |          Mulliken Center for Theoretical Chemistry        |     
     |                    University of Bonn                     |     
      -----------------------------------------------------------      

   * xtb version 6.5.1 (b24c23e) compiled by 'conda@728c89f4b128' on 2022-07-12

   xtb is free software: you can redistribute it and/or modify it under
   the terms of the GNU Lesser General Public License as published by
   the Free Software Foundation, either version 3 of the License, or
   (at your option) any later version.
   
   xtb is distributed in the hope that it will be useful,
   but WITHOUT ANY WARRANTY; without even the implied warranty of
   MERCHANTABILITY or FITNESS FOR A PARTICULAR PURPOSE.  See the
   GNU Lesser General Public License for more details.
   
   Cite this work as:
   * C. Bannwarth, E. Caldeweyher, S. Ehlert, A. Hansen, P. Pracht,
     J. Seibert, S. Spicher, S. Grimme, WIREs Comput. Mol. Sci., 2020, 11,
     e01493. DOI: 10.1002/wcms.1493
   
   for GFN2-xTB:
   * C. Bannwarth, S. Ehlert and S. Grimme., J. Chem. Theory Comput., 2019,
     15, 1652-1671. DOI: 10.1021/acs.jctc.8b01176
   for GFN1-xTB:
   * S. Grimme, C. Bannwarth, P. Shushkov, J. Chem. Theory Comput., 2017,
     13, 1989-2009. DOI: 10.1021/acs.jctc.7b00118
   for GFN0-xTB:
   * P. Pracht, E. Caldeweyher, S. Ehlert, S. Grimme, ChemRxiv, 2019, preprint.
     DOI: 10.26434/chemrxiv.8326202.v1
   for GFN-FF:
   * S. Spicher and S. Grimme, Angew. Chem. Int. Ed., 2020, 59, 15665-15673.
     DOI: 10.1002/anie.202004239
   
   for ALPB and GBSA implicit solvation:
   * S. Ehlert, M. Stahn, S. Spicher, S. Grimme, J. Chem. Theory Comput.,
     2021, 17, 4250-4261. DOI: 10.1021/acs.jctc.1c00471
   
   for DFT-D4:
   * E. Caldeweyher, C. Bannwarth and S. Grimme, J. Chem. Phys., 2017,
     147, 034112. DOI: 10.1063/1.4993215
   * E. Caldeweyher, S. Ehlert, A. Hansen, H. Neugebauer, S. Spicher,
     C. Bannwarth and S. Grimme, J. Chem. Phys., 2019, 150, 154122.
     DOI: 10.1063/1.5090222
   * E. Caldeweyher, J.-M. Mewes, S. Ehlert and S. Grimme, Phys. Chem. Chem. Phys.
     2020, 22, 8499-8512. DOI: 10.1039/D0CP00502A
   
   for sTDA-xTB:
   * S. Grimme and C. Bannwarth, J. Chem. Phys., 2016, 145, 054103.
     DOI: 10.1063/1.4959605
   
   in the mass-spec context:
   * V. Asgeirsson, C. Bauer and S. Grimme, Chem. Sci., 2017, 8, 4879.
     DOI: 10.1039/c7sc00601b
   * J. Koopman and S. Grimme, ACS Omega 2019, 4, 12, 15120-15133.
     DOI: 10.1021/acsomega.9b02011
   
   for metadynamics refer to:
   * S. Grimme, J. Chem. Theory Comput., 2019, 155, 2847-2862
     DOI: 10.1021/acs.jctc.9b00143
   
   for SPH calculations refer to:
   * S. Spicher and S. Grimme, J. Chem. Theory Comput., 2021, 17, 1701-1714
     DOI: 10.1021/acs.jctc.0c01306
   
   with help from (in alphabetical order)
   P. Atkinson, C. Bannwarth, F. Bohle, G. Brandenburg, E. Caldeweyher
   M. Checinski, S. Dohm, S. Ehlert, S. Ehrlich, I. Gerasimov, C. Hölzer
   A. Katbashev, J. Koopman, C. Lavigne, S. Lehtola, F. März, M. Müller,
   F. Musil, H. Neugebauer, J. Pisarek, C. Plett, P. Pracht, F. Pultar,
   J. Seibert, P. Shushkov, S. Spicher, M. Stahn, M. Steiner, T. Strunk,
   J. Stückrath, T. Rose, and J. Unsleber
   
 * started run on 2022/07/30 at 16:20:28.065     

           -------------------------------------------------
          |                Calculation Setup                |
           -------------------------------------------------

          program call               : xtb xtbopt.xyz --gfn 1 --vipea
          hostname                   : cx3-15-13.cx3.hpc.ic.ac.uk
          coordinate file            : xtbopt.xyz
          omp threads                :                     1

   ID    Z sym.   atoms
    1   30 Zn     1, 59, 121
    2    6 C      2-6, 8-13, 15-19, 21-26, 28-33, 35-40, 60-64, 66-71, 73-77,
                  79-84, 86-91, 93-98, 117-120, 122-126, 128-133, 135-139,
                  141-146, 148-153, 155-160
    3    7 N      7, 14, 20, 27, 34, 41, 65, 72, 78, 85, 92, 99, 127, 134,
                  140, 147, 154, 161
    4    1 H      42-58, 100-116, 162-177

           -------------------------------------------------
          |                 I P E A - x T B                 |
           -------------------------------------------------

        Reference                      10.1039/c7sc00601b
      * Hamiltonian:
        H0-scaling (s, p, d)           2.150000    2.300000    2.000000
        zeta-weighting                 0.000000
      * Dispersion:
        s8                             2.400000
        a1                             0.630000
        a2                             5.000000
        s9                             0.000000
      * Repulsion:
        kExp                           1.500000
        rExp                           1.000000
      * Coulomb:
        alpha                          1.000000
        third order                    atomic
        anisotropic                    false
      * Halogen bond correction:
        rad-scale                      1.300000
        damping                        0.440000


          ...................................................
          :                      SETUP                      :
          :.................................................:
          :  # basis functions                 732          :
          :  # atomic orbitals                 732          :
          :  # shells                          478          :
          :  # electrons                       570          :
          :  # halogen bonds                     0          :
          :  max. iterations                   250          :
          :  Hamiltonian                  GFN1-xTB          :
          :  restarted?                      false          :
          :  GBSA solvation                  false          :
          :  PC potential                    false          :
          :  electronic temp.          300.0000000     K    :
          :  accuracy                    1.0000000          :
          :  -> integral cutoff          0.2500000E+02      :
          :  -> integral neglect         0.1000000E-07      :
          :  -> SCF convergence          0.1000000E-05 Eh   :
          :  -> wf. convergence          0.2000000E-04 e    :
          :  Broyden damping             0.4000000          :
          ...................................................

 iter      E             dE          RMSdq      gap      omega  full diag
   1   -359.1713741 -0.359171E+03  0.104E+01    1.39       0.0  T
   2   -359.1284014  0.429727E-01  0.672E+00    1.41       1.0  T
   3   -355.2331846  0.389522E+01  0.531E+00    0.98       1.0  T
   4   -360.1460887 -0.491290E+01  0.198E+00    1.57       1.0  T
   5   -361.6594919 -0.151340E+01  0.384E-01    1.35       1.0  T
   6   -361.7065621 -0.470702E-01  0.156E-01    1.31       1.0  T
   7   -361.7137640 -0.720196E-02  0.468E-02    1.31       1.0  T
   8   -361.7140512 -0.287173E-03  0.362E-02    1.30       1.0  T
   9   -361.7142289 -0.177671E-03  0.199E-02    1.31       1.0  T
  10   -361.7143407 -0.111880E-03  0.630E-03    1.31       1.2  T
  11   -361.7143470 -0.630072E-05  0.395E-03    1.31       1.9  T
  12   -361.7143525 -0.549258E-05  0.144E-03    1.31       5.2  T
  13   -361.7143533 -0.761029E-06  0.365E-04    1.31      20.6  T
  14   -361.7143533 -0.514646E-07  0.612E-05    1.31     122.8  T
  15   -361.7143533 -0.810189E-09  0.284E-05    1.31     264.9  T

   *** convergence criteria satisfied after 15 iterations ***

         #    Occupation            Energy/Eh            Energy/eV
      -------------------------------------------------------------
         1        2.0000           -1.0265258             -27.9332
       ...           ...                  ...                  ...
       279        2.0000           -0.4393603             -11.9556
       280        2.0000           -0.4071260             -11.0785
       281        2.0000           -0.4051015             -11.0234
       282        2.0000           -0.4030854             -10.9685
       283        2.0000           -0.4030126             -10.9665
       284        2.0000           -0.3955223             -10.7627
       285        2.0000           -0.3840848             -10.4515 (HOMO)
       286                         -0.3360273              -9.1438 (LUMO)
       287                         -0.3214636              -8.7475
       288                         -0.3213084              -8.7432
       289                         -0.3197947              -8.7021
       290                         -0.3196854              -8.6991
       ...                                ...                  ...
       732                        550.9966974           14993.3833
      -------------------------------------------------------------
                  HL-Gap            0.0480576 Eh            1.3077 eV
             Fermi-level           -0.3600561 Eh           -9.7976 eV

 SCC (total)                   0 d,  0 h,  0 min,  3.828 sec
 SCC setup                      ...        0 min,  0.004 sec (  0.113%)
 Dispersion                     ...        0 min,  0.006 sec (  0.161%)
 classical contributions        ...        0 min,  0.002 sec (  0.060%)
 integral evaluation            ...        0 min,  0.463 sec ( 12.095%)
 iterations                     ...        0 min,  2.319 sec ( 60.582%)
 molecular gradient             ...        0 min,  0.993 sec ( 25.941%)
 printout                       ...        0 min,  0.040 sec (  1.047%)

         :::::::::::::::::::::::::::::::::::::::::::::::::::::
         ::                     SUMMARY                     ::
         :::::::::::::::::::::::::::::::::::::::::::::::::::::
         :: total energy            -354.382312546992 Eh    ::
         :: gradient norm              0.078820047664 Eh/a0 ::
         :: HOMO-LUMO gap              1.307713328055 eV    ::
         ::.................................................::
         :: SCC energy              -361.714353339904 Eh    ::
         :: -> electrostatic           0.347046601707 Eh    ::
         :: repulsion energy           7.500303730637 Eh    ::
         :: dispersion energy         -0.168262937724 Eh    ::
         :: halogen bond corr.         0.000000000000 Eh    ::
         :: add. restraining           0.000000000000 Eh    ::
         :: total charge              -0.000000000000 e     ::
         :::::::::::::::::::::::::::::::::::::::::::::::::::::

           ------------------------------------------------- 
          |        vertical delta SCC IP calculation        |
           ------------------------------------------------- 
   1   -361.2905631 -0.361291E+03  0.119E-01    1.31       0.0  T
   2   -361.2940357 -0.347259E-02  0.104E-01    1.28       1.0  T
   3   -361.2980148 -0.397913E-02  0.673E-02    1.29       1.0  T
   4   -361.2985417 -0.526842E-03  0.542E-02    1.28       1.0  T
   5   -361.2996986 -0.115695E-02  0.304E-02    1.29       1.0  T
   6   -361.2999397 -0.241144E-03  0.166E-02    1.28       1.0  T
   7   -361.3000675 -0.127797E-03  0.673E-03    1.29       1.1  T
   8   -361.3000846 -0.170663E-04  0.243E-03    1.29       3.1  T
   9   -361.3000862 -0.159186E-05  0.117E-03    1.29       6.4  T
  10   -361.3000866 -0.364429E-06  0.572E-04    1.29      13.1  T
  11   -361.3000867 -0.123758E-06  0.183E-04    1.29      41.0  T
  12   -361.3000867 -0.856079E-08  0.822E-05    1.29      91.4  T
     SCC iter.                  ...        0 min,  1.780 sec
     gradient                   ...        0 min,  0.993 sec
------------------------------------------------------------------------
empirical IP shift (eV):    4.8455
delta SCC IP (eV):    6.4273
------------------------------------------------------------------------
           ------------------------------------------------- 
          |        vertical delta SCC EA calculation        |
           ------------------------------------------------- 
   1   -361.9828030 -0.361983E+03  0.217E-01    0.38       0.0  T
   2   -362.0005862 -0.177832E-01  0.196E-01    0.15       1.0  T
   3   -362.0163221 -0.157359E-01  0.102E-01    0.27       1.0  T
   4   -362.0158979  0.424167E-03  0.862E-02    0.22       1.0  T
   5   -362.0167173 -0.819368E-03  0.639E-02    0.25       1.0  T
   6   -362.0183535 -0.163624E-02  0.337E-02    0.21       1.0  T
   7   -362.0190114 -0.657880E-03  0.102E-02    0.24       1.0  T
   8   -362.0190619 -0.504991E-04  0.405E-03    0.23       1.9  T
   9   -362.0190656 -0.365885E-05  0.195E-03    0.23       3.9  T
  10   -362.0190668 -0.123201E-05  0.103E-03    0.23       7.3  T
  11   -362.0190671 -0.337557E-06  0.319E-04    0.23      23.6  T
  12   -362.0190672 -0.188134E-07  0.203E-04    0.23      37.1  T
  13   -362.0190672 -0.770075E-08  0.979E-05    0.23      76.8  T
  14   -362.0190672 -0.250287E-08  0.374E-05    0.23     201.2  T
     SCC iter.                  ...        0 min,  2.044 sec
     gradient                   ...        0 min,  0.990 sec
------------------------------------------------------------------------
empirical EA shift (eV):    4.8455
delta SCC EA (eV):    3.4462
------------------------------------------------------------------------
           -------------------------------------------------
          |                Property Printout                |
           -------------------------------------------------

    * Orbital Energies and Occupations

         #    Occupation            Energy/Eh            Energy/eV
      -------------------------------------------------------------
         1        2.0000           -0.9676278             -26.3305
       ...           ...                  ...                  ...
       274        2.0000           -0.3863582             -10.5133
       275        2.0000           -0.3855094             -10.4902
       276        2.0000           -0.3831692             -10.4266
       277        2.0000           -0.3819134             -10.3924
       278        2.0000           -0.3810181             -10.3680
       279        2.0000           -0.3769483             -10.2573
       280        2.0000           -0.3473238              -9.4512
       281        2.0000           -0.3465810              -9.4309
       282        2.0000           -0.3453518              -9.3975
       283        2.0000           -0.3399999              -9.2519
       284        2.0000           -0.3376286              -9.1873
       285        2.0000           -0.3226723              -8.7804
       286        0.9878           -0.2738743              -7.4525 (HOMO)
       287        0.0094           -0.2652771              -7.2186 (LUMO)
       288        0.0022           -0.2639058              -7.1812
       289        0.0006           -0.2625984              -7.1457
       290        0.0000           -0.2586635              -7.0386
       291                         -0.2473849              -6.7317
       292                         -0.2316868              -6.3045
       293                         -0.2297420              -6.2516
       294                         -0.2253312              -6.1316
       295                         -0.2238922              -6.0924
       296                         -0.2231807              -6.0731
       297                         -0.2188114              -5.9542
       ...                                ...                  ...
       732                        551.0592973           14995.0867
      -------------------------------------------------------------
                  HL-Gap            0.0085972 Eh            0.2339 eV
             Fermi-level           -0.2839873 Eh           -7.7277 eV

  Mulliken/CM5 charges         n(s)   n(p)   n(d)
     1Zn    0.36449  0.69003   0.762  0.874  0.000
     2C    -0.02839 -0.06951   1.086  2.943  0.000
     3C     0.05662  0.11837   1.119  2.824  0.000
     4C    -0.03965 -0.08571   1.089  2.951  0.000
     5C    -0.03691 -0.08256   1.083  2.954  0.000
     6C     0.05583  0.12135   1.109  2.835  0.000
     7N    -0.23905 -0.48304   1.349  3.890  0.000
     8C     0.00704  0.01236   1.091  2.902  0.000
     9C     0.01615  0.00740   1.093  2.891  0.000
    10C    -0.01703 -0.07028   1.076  2.941  0.000
    11C    -0.01237 -0.06444   1.092  2.921  0.000
    12C     0.01477  0.01103   1.076  2.909  0.000
    13C     0.11174  0.22929   1.210  2.678  0.000
    14N    -0.27038 -0.39499   1.544  3.726  0.000
    15C    -0.01183 -0.06391   1.091  2.920  0.000
    16C    -0.01637 -0.06969   1.076  2.940  0.000
    17C     0.05466  0.11919   1.107  2.838  0.000
    18C    -0.03689 -0.08261   1.077  2.960  0.000
    19C    -0.03551 -0.08122   1.081  2.954  0.000
    20N    -0.23615 -0.47906   1.352  3.884  0.000
    21C     0.06104  0.12728   1.123  2.816  0.000
    22C     0.01370  0.02047   1.085  2.901  0.000
    23C     0.06102  0.12725   1.123  2.816  0.000
    24C    -0.03555 -0.08127   1.081  2.954  0.000
    25C    -0.03691 -0.08265   1.077  2.960  0.000
    26C     0.05467  0.11919   1.107  2.838  0.000
    27N    -0.23617 -0.47904   1.352  3.884  0.000
    28C     0.00703  0.01236   1.091  2.902  0.000
    29C     0.01612  0.00738   1.093  2.891  0.000
    30C    -0.01708 -0.07034   1.076  2.941  0.000
    31C    -0.01243 -0.06451   1.092  2.921  0.000
    32C     0.01477  0.01102   1.076  2.909  0.000
    33C     0.11172  0.22925   1.210  2.678  0.000
    34N    -0.27042 -0.39501   1.544  3.726  0.000
    35C    -0.01179 -0.06387   1.091  2.920  0.000
    36C    -0.01630 -0.06963   1.076  2.940  0.000
    37C     0.05586  0.12139   1.109  2.835  0.000
    38C    -0.03691 -0.08256   1.083  2.954  0.000
    39C    -0.03966 -0.08572   1.089  2.951  0.000
    40C     0.05661  0.11836   1.119  2.824  0.000
    41N    -0.23905 -0.48296   1.349  3.890  0.000
    42H     0.02371  0.08256   0.976  0.000  0.000
    43H     0.03028  0.08679   0.970  0.000  0.000
    44H     0.02313  0.08186   0.977  0.000  0.000
    45H     0.02940  0.08728   0.971  0.000  0.000
    46H     0.03957  0.09682   0.960  0.000  0.000
    47H     0.04071  0.09796   0.959  0.000  0.000
    48H     0.03030  0.08813   0.970  0.000  0.000
    49H     0.02493  0.08379   0.975  0.000  0.000
    50H     0.02366  0.08231   0.976  0.000  0.000
    51H     0.02367  0.08233   0.976  0.000  0.000
    52H     0.02488  0.08375   0.975  0.000  0.000
    53H     0.02930  0.08720   0.971  0.000  0.000
    54H     0.03949  0.09674   0.961  0.000  0.000
    55H     0.04078  0.09804   0.959  0.000  0.000
    56H     0.03036  0.08822   0.970  0.000  0.000
    57H     0.02313  0.08187   0.977  0.000  0.000
    58H     0.03027  0.08678   0.970  0.000  0.000
    59Zn    0.36521  0.69038   0.762  0.873  0.000
    60C    -0.02777 -0.06891   1.086  2.942  0.000
    61C     0.05664  0.11835   1.119  2.824  0.000
    62C    -0.03936 -0.08542   1.089  2.950  0.000
    63C    -0.03677 -0.08244   1.083  2.954  0.000
    64C     0.05627  0.12176   1.110  2.834  0.000
    65N    -0.23876 -0.48277   1.349  3.889  0.000
    66C     0.00697  0.01234   1.090  2.903  0.000
    67C     0.01602  0.00730   1.092  2.892  0.000
    68C    -0.01707 -0.07035   1.076  2.941  0.000
    69C    -0.01247 -0.06454   1.091  2.921  0.000
    70C     0.01480  0.01105   1.076  2.909  0.000
    71C     0.11172  0.22925   1.210  2.678  0.000
    72N    -0.27039 -0.39497   1.544  3.726  0.000
    73C    -0.01170 -0.06378   1.091  2.920  0.000
    74C    -0.01624 -0.06954   1.076  2.940  0.000
    75C     0.05536  0.12007   1.108  2.837  0.000
    76C    -0.03659 -0.08227   1.079  2.957  0.000
    77C    -0.03509 -0.08045   1.084  2.951  0.000
    78N    -0.23572 -0.47865   1.351  3.885  0.000
    79C     0.06133  0.12766   1.123  2.816  0.000
    80C     0.01447  0.02130   1.085  2.901  0.000
    81C     0.06132  0.12766   1.123  2.816  0.000
    82C    -0.03509 -0.08045   1.084  2.951  0.000
    83C    -0.03660 -0.08229   1.079  2.957  0.000
    84C     0.05535  0.12006   1.108  2.837  0.000
    85N    -0.23573 -0.47859   1.351  3.885  0.000
    86C     0.00697  0.01233   1.090  2.903  0.000
    87C     0.01602  0.00729   1.092  2.892  0.000
    88C    -0.01709 -0.07036   1.076  2.941  0.000
    89C    -0.01247 -0.06454   1.091  2.921  0.000
    90C     0.01479  0.01104   1.076  2.909  0.000
    91C     0.11172  0.22924   1.210  2.678  0.000
    92N    -0.27041 -0.39500   1.544  3.726  0.000
    93C    -0.01170 -0.06378   1.091  2.920  0.000
    94C    -0.01623 -0.06953   1.076  2.940  0.000
    95C     0.05628  0.12177   1.110  2.834  0.000
    96C    -0.03676 -0.08243   1.083  2.954  0.000
    97C    -0.03936 -0.08542   1.089  2.950  0.000
    98C     0.05664  0.11836   1.119  2.824  0.000
    99N    -0.23877 -0.48273   1.349  3.889  0.000
   100H     0.02417  0.08303   0.976  0.000  0.000
   101H     0.03068  0.08719   0.969  0.000  0.000
   102H     0.02343  0.08216   0.977  0.000  0.000
   103H     0.02942  0.08733   0.971  0.000  0.000
   104H     0.03953  0.09678   0.960  0.000  0.000
   105H     0.04118  0.09844   0.959  0.000  0.000
   106H     0.03099  0.08888   0.969  0.000  0.000
   107H     0.02433  0.08314   0.976  0.000  0.000
   108H     0.02422  0.08244   0.976  0.000  0.000
   109H     0.02423  0.08244   0.976  0.000  0.000
   110H     0.02433  0.08314   0.976  0.000  0.000
   111H     0.02939  0.08730   0.971  0.000  0.000
   112H     0.03951  0.09676   0.960  0.000  0.000
   113H     0.04120  0.09845   0.959  0.000  0.000
   114H     0.03102  0.08891   0.969  0.000  0.000
   115H     0.02343  0.08217   0.977  0.000  0.000
   116H     0.03068  0.08719   0.969  0.000  0.000
   117C    -0.03183 -0.03403   1.069  2.963  0.000
   118C    -0.02811 -0.03031   1.073  2.955  0.000
   119C    -0.02662 -0.02890   1.073  2.953  0.000
   120C    -0.03108 -0.03336   1.068  2.963  0.000
   121Zn    0.36461  0.68864   0.764  0.872  0.000
   122C     0.00874  0.01553   1.081  2.911  0.000
   123C     0.06077  0.12702   1.123  2.816  0.000
   124C    -0.03804 -0.08376   1.080  2.958  0.000
   125C    -0.03723 -0.08296   1.078  2.959  0.000
   126C     0.05250  0.11700   1.105  2.843  0.000
   127N    -0.23720 -0.48007   1.351  3.886  0.000
   128C     0.00912  0.01437   1.092  2.899  0.000
   129C     0.01676  0.00798   1.093  2.890  0.000
   130C    -0.01634 -0.06967   1.076  2.940  0.000
   131C    -0.01214 -0.06422   1.091  2.921  0.000
   132C     0.01465  0.01090   1.076  2.910  0.000
   133C     0.11168  0.22920   1.211  2.678  0.000
   134N    -0.27120 -0.39579   1.544  3.727  0.000
   135C    -0.01199 -0.06407   1.091  2.921  0.000
   136C    -0.01629 -0.06955   1.076  2.940  0.000
   137C     0.05270  0.11740   1.105  2.842  0.000
   138C    -0.03715 -0.08281   1.080  2.957  0.000
   139C    -0.03819 -0.08355   1.082  2.956  0.000
   140N    -0.23710 -0.47991   1.350  3.887  0.000
   141C     0.06089  0.12731   1.123  2.816  0.000
   142C     0.00858  0.01545   1.079  2.912  0.000
   143C     0.06090  0.12731   1.123  2.816  0.000
   144C    -0.03819 -0.08355   1.082  2.956  0.000
   145C    -0.03715 -0.08281   1.080  2.957  0.000
   146C     0.05270  0.11741   1.105  2.842  0.000
   147N    -0.23708 -0.47996   1.350  3.887  0.000
   148C     0.00912  0.01437   1.092  2.899  0.000
   149C     0.01678  0.00800   1.093  2.890  0.000
   150C    -0.01632 -0.06964   1.076  2.940  0.000
   151C    -0.01211 -0.06419   1.091  2.921  0.000
   152C     0.01466  0.01091   1.076  2.910  0.000
   153C     0.11167  0.22918   1.211  2.678  0.000
   154N    -0.27120 -0.39577   1.544  3.727  0.000
   155C    -0.01199 -0.06407   1.091  2.920  0.000
   156C    -0.01630 -0.06957   1.076  2.940  0.000
   157C     0.05250  0.11700   1.105  2.843  0.000
   158C    -0.03723 -0.08295   1.078  2.959  0.000
   159C    -0.03804 -0.08375   1.080  2.958  0.000
   160C     0.06076  0.12702   1.123  2.816  0.000
   161N    -0.23721 -0.48005   1.351  3.886  0.000
   162H     0.02110  0.07976   0.979  0.000  0.000
   163H     0.02315  0.08203   0.977  0.000  0.000
   164H     0.02960  0.08745   0.970  0.000  0.000
   165H     0.03960  0.09686   0.960  0.000  0.000
   166H     0.03993  0.09719   0.960  0.000  0.000
   167H     0.03008  0.08795   0.970  0.000  0.000
   168H     0.02214  0.08095   0.978  0.000  0.000
   169H     0.02102  0.07924   0.979  0.000  0.000
   170H     0.02103  0.07925   0.979  0.000  0.000
   171H     0.02214  0.08096   0.978  0.000  0.000
   172H     0.02962  0.08745   0.970  0.000  0.000
   173H     0.03962  0.09687   0.960  0.000  0.000
   174H     0.03991  0.09717   0.960  0.000  0.000
   175H     0.03006  0.08793   0.970  0.000  0.000
   176H     0.02310  0.08197   0.977  0.000  0.000
   177H     0.02106  0.07971   0.979  0.000  0.000

Wiberg/Mayer (AO) data.
largest (>0.10) Wiberg bond orders for each atom

 ---------------------------------------------------------------------------
     #   Z sym  total        # sym  WBO       # sym  WBO       # sym  WBO
 ---------------------------------------------------------------------------
     1  30 Zn   2.425 --     7 N    0.567    41 N    0.566    20 N    0.562
                            27 N    0.562
     2   6 C    3.797 --    40 C    1.386     3 C    1.386    42 H    0.998
     3   6 C    3.945 --     2 C    1.386     7 N    1.284     4 C    1.198
     4   6 C    3.846 --     5 C    1.645     3 C    1.198    43 H    0.994
     5   6 C    3.832 --     4 C    1.645     6 C    1.205    44 H    0.999
     6   6 C    3.914 --     8 C    1.368     7 N    1.277     5 C    1.205
     7   7 N    2.997 --     3 C    1.284     6 C    1.277     1 Zn   0.567
     8   6 C    3.829 --     6 C    1.368    17 C    1.360     9 C    1.051
     9   6 C    3.871 --    16 C    1.418    10 C    1.417     8 C    1.051
    10   6 C    3.864 --    11 C    1.463     9 C    1.417    45 H    0.987
    11   6 C    3.906 --    10 C    1.463    12 C    1.382    46 H    0.986
    12   6 C    3.904 --    15 C    1.382    11 C    1.382    13 C    1.125
    13   6 C    4.102 --    14 N    2.961    12 C    1.125
    14   7 N    2.985 --    13 C    2.961
    15   6 C    3.905 --    16 C    1.463    12 C    1.382    47 H    0.985
    16   6 C    3.863 --    15 C    1.463     9 C    1.418    48 H    0.987
    17   6 C    3.900 --     8 C    1.360    20 N    1.269    18 C    1.219
    18   6 C    3.814 --    19 C    1.620    17 C    1.219    49 H    0.999
    19   6 C    3.818 --    18 C    1.620    21 C    1.231    50 H    0.997
    20   7 N    3.010 --    21 C    1.311    17 C    1.269     1 Zn   0.562
    21   6 C    3.915 --    20 N    1.311    22 C    1.290    19 C    1.231
    22   6 C    3.816 --    23 C    1.290    21 C    1.290   117 C    1.224
    23   6 C    3.915 --    27 N    1.311    22 C    1.290    24 C    1.231
    24   6 C    3.818 --    25 C    1.620    23 C    1.231    51 H    0.997
    25   6 C    3.814 --    24 C    1.620    26 C    1.219    52 H    0.999
    26   6 C    3.900 --    28 C    1.360    27 N    1.269    25 C    1.219
    27   7 N    3.010 --    23 C    1.311    26 C    1.269     1 Zn   0.562
    28   6 C    3.829 --    37 C    1.368    26 C    1.360    29 C    1.051
    29   6 C    3.871 --    36 C    1.417    30 C    1.416    28 C    1.051
    30   6 C    3.864 --    31 C    1.463    29 C    1.416    53 H    0.987
    31   6 C    3.906 --    30 C    1.463    32 C    1.382    54 H    0.986
    32   6 C    3.904 --    35 C    1.382    31 C    1.382    33 C    1.125
    33   6 C    4.102 --    34 N    2.961    32 C    1.125
    34   7 N    2.985 --    33 C    2.961
    35   6 C    3.905 --    36 C    1.463    32 C    1.382    55 H    0.985
    36   6 C    3.863 --    35 C    1.463    29 C    1.417    56 H    0.987
    37   6 C    3.914 --    28 C    1.368    41 N    1.277    38 C    1.205
    38   6 C    3.832 --    39 C    1.645    37 C    1.205    57 H    0.999
    39   6 C    3.846 --    38 C    1.645    40 C    1.198    58 H    0.994
    40   6 C    3.945 --     2 C    1.386    41 N    1.284    39 C    1.198
    41   7 N    2.997 --    40 C    1.284    37 C    1.277     1 Zn   0.566
    42   1 H    1.032 --     2 C    0.998
    43   1 H    1.021 --     4 C    0.994
    44   1 H    1.034 --     5 C    0.999
    45   1 H    1.052 --    10 C    0.987
    46   1 H    1.038 --    11 C    0.986
    47   1 H    1.038 --    15 C    0.985
    48   1 H    1.052 --    16 C    0.987
    49   1 H    1.031 --    18 C    0.999
    50   1 H    1.036 --    19 C    0.997
    51   1 H    1.036 --    24 C    0.997
    52   1 H    1.031 --    25 C    0.999
    53   1 H    1.052 --    30 C    0.987
    54   1 H    1.038 --    31 C    0.986
    55   1 H    1.037 --    35 C    0.985
    56   1 H    1.052 --    36 C    0.987
    57   1 H    1.034 --    38 C    0.999
    58   1 H    1.021 --    39 C    0.994
    59  30 Zn   2.425 --    65 N    0.567    99 N    0.567    78 N    0.561
                            85 N    0.561
    60   6 C    3.799 --    98 C    1.387    61 C    1.387   100 H    0.998
    61   6 C    3.945 --    60 C    1.387    65 N    1.284    62 C    1.198
    62   6 C    3.846 --    63 C    1.644    61 C    1.198   101 H    0.994
    63   6 C    3.832 --    62 C    1.644    64 C    1.205   102 H    0.999
    64   6 C    3.914 --    66 C    1.367    65 N    1.278    63 C    1.205
    65   7 N    2.998 --    61 C    1.284    64 C    1.278    59 Zn   0.567
    66   6 C    3.829 --    64 C    1.367    75 C    1.360    67 C    1.053
    67   6 C    3.871 --    74 C    1.416    68 C    1.416    66 C    1.053
    68   6 C    3.863 --    69 C    1.463    67 C    1.416   103 H    0.987
    69   6 C    3.906 --    68 C    1.463    70 C    1.382   104 H    0.986
    70   6 C    3.904 --    69 C    1.382    73 C    1.382    71 C    1.125
    71   6 C    4.102 --    72 N    2.960    70 C    1.125
    72   7 N    2.985 --    71 C    2.960
    73   6 C    3.905 --    74 C    1.463    70 C    1.382   105 H    0.985
    74   6 C    3.863 --    73 C    1.463    67 C    1.416   106 H    0.987
    75   6 C    3.900 --    66 C    1.360    78 N    1.271    76 C    1.217
    76   6 C    3.820 --    77 C    1.622    75 C    1.217   107 H    0.998
    77   6 C    3.825 --    76 C    1.622    79 C    1.227   108 H    0.999
    78   7 N    3.010 --    79 C    1.310    75 C    1.271    59 Zn   0.561
    79   6 C    3.920 --    78 N    1.310    80 C    1.297    77 C    1.227
    80   6 C    3.817 --    79 C    1.297    81 C    1.296   120 C    1.212
    81   6 C    3.920 --    85 N    1.310    80 C    1.296    82 C    1.227
    82   6 C    3.825 --    83 C    1.622    81 C    1.227   109 H    0.999
    83   6 C    3.820 --    82 C    1.622    84 C    1.217   110 H    0.998
    84   6 C    3.900 --    86 C    1.360    85 N    1.271    83 C    1.217
    85   7 N    3.010 --    81 C    1.310    84 C    1.271    59 Zn   0.561
    86   6 C    3.829 --    95 C    1.367    84 C    1.360    87 C    1.053
    87   6 C    3.871 --    94 C    1.416    88 C    1.416    86 C    1.053
    88   6 C    3.863 --    89 C    1.464    87 C    1.416   111 H    0.987
    89   6 C    3.906 --    88 C    1.464    90 C    1.382   112 H    0.986
    90   6 C    3.904 --    93 C    1.382    89 C    1.382    91 C    1.125
    91   6 C    4.102 --    92 N    2.960    90 C    1.125
    92   7 N    2.985 --    91 C    2.960
    93   6 C    3.905 --    94 C    1.463    90 C    1.382   113 H    0.985
    94   6 C    3.863 --    93 C    1.463    87 C    1.416   114 H    0.987
    95   6 C    3.914 --    86 C    1.367    99 N    1.278    96 C    1.205
    96   6 C    3.832 --    97 C    1.644    95 C    1.205   115 H    0.999
    97   6 C    3.847 --    96 C    1.644    98 C    1.198   116 H    0.994
    98   6 C    3.945 --    60 C    1.387    99 N    1.284    97 C    1.198
    99   7 N    2.998 --    98 C    1.284    95 C    1.278    59 Zn   0.567
   100   1 H    1.032 --    60 C    0.998
   101   1 H    1.021 --    62 C    0.994
   102   1 H    1.034 --    63 C    0.999
   103   1 H    1.052 --    68 C    0.987
   104   1 H    1.038 --    69 C    0.986
   105   1 H    1.037 --    73 C    0.985
   106   1 H    1.051 --    74 C    0.987
   107   1 H    1.033 --    76 C    0.998
   108   1 H    1.038 --    77 C    0.999
   109   1 H    1.038 --    82 C    0.999
   110   1 H    1.033 --    83 C    0.998
   111   1 H    1.052 --    88 C    0.987
   112   1 H    1.038 --    89 C    0.986
   113   1 H    1.037 --    93 C    0.985
   114   1 H    1.051 --    94 C    0.987
   115   1 H    1.034 --    96 C    0.999
   116   1 H    1.021 --    97 C    0.994
   117   6 C    3.760 --   118 C    2.603    22 C    1.224
   118   6 C    3.762 --   117 C    2.603   122 C    1.224
   119   6 C    3.760 --   120 C    2.611   142 C    1.212
   120   6 C    3.757 --   119 C    2.611    80 C    1.212
   121  30 Zn   2.417 --   127 N    0.564   161 N    0.564   147 N    0.562
                           140 N    0.562
   122   6 C    3.804 --   160 C    1.287   123 C    1.287   118 C    1.224
   123   6 C    3.917 --   127 N    1.314   122 C    1.287   124 C    1.231
   124   6 C    3.814 --   125 C    1.619   123 C    1.231   162 H    0.997
   125   6 C    3.818 --   124 C    1.619   126 C    1.220   163 H    0.999
   126   6 C    3.900 --   128 C    1.365   127 N    1.264   125 C    1.220
   127   7 N    3.000 --   123 C    1.314   126 C    1.264   121 Zn   0.564
   128   6 C    3.827 --   137 C    1.366   126 C    1.365   129 C    1.051
   129   6 C    3.871 --   130 C    1.418   136 C    1.417   128 C    1.051
   130   6 C    3.863 --   131 C    1.463   129 C    1.418   164 H    0.987
   131   6 C    3.905 --   130 C    1.463   132 C    1.382   165 H    0.986
   132   6 C    3.904 --   131 C    1.382   135 C    1.382   133 C    1.125
   133   6 C    4.102 --   134 N    2.960   132 C    1.125
   134   7 N    2.985 --   133 C    2.960
   135   6 C    3.905 --   136 C    1.463   132 C    1.382   166 H    0.986
   136   6 C    3.864 --   135 C    1.463   129 C    1.417   167 H    0.987
   137   6 C    3.900 --   128 C    1.366   140 N    1.265   138 C    1.219
   138   6 C    3.825 --   139 C    1.621   137 C    1.219   168 H    0.999
   139   6 C    3.820 --   138 C    1.621   141 C    1.228   169 H    1.000
   140   7 N    2.998 --   141 C    1.313   137 C    1.265   121 Zn   0.562
   141   6 C    3.923 --   140 N    1.313   142 C    1.292   139 C    1.228
   142   6 C    3.803 --   143 C    1.293   141 C    1.292   119 C    1.212
   143   6 C    3.923 --   147 N    1.313   142 C    1.293   144 C    1.228
   144   6 C    3.820 --   145 C    1.621   143 C    1.228   170 H    1.000
   145   6 C    3.825 --   144 C    1.621   146 C    1.218   171 H    0.999
   146   6 C    3.899 --   148 C    1.366   147 N    1.265   145 C    1.218
   147   7 N    2.998 --   143 C    1.313   146 C    1.265   121 Zn   0.562
   148   6 C    3.827 --   146 C    1.366   157 C    1.365   149 C    1.051
   149   6 C    3.871 --   150 C    1.418   156 C    1.417   148 C    1.051
   150   6 C    3.863 --   151 C    1.463   149 C    1.418   172 H    0.987
   151   6 C    3.905 --   150 C    1.463   152 C    1.383   173 H    0.986
   152   6 C    3.904 --   151 C    1.383   155 C    1.382   153 C    1.125
   153   6 C    4.102 --   154 N    2.960   152 C    1.125
   154   7 N    2.985 --   153 C    2.960
   155   6 C    3.905 --   156 C    1.463   152 C    1.382   174 H    0.986
   156   6 C    3.864 --   155 C    1.463   149 C    1.417   175 H    0.987
   157   6 C    3.899 --   148 C    1.365   161 N    1.264   158 C    1.220
   158   6 C    3.818 --   159 C    1.619   157 C    1.220   176 H    0.999
   159   6 C    3.814 --   158 C    1.619   160 C    1.231   177 H    0.997
   160   6 C    3.917 --   161 N    1.314   122 C    1.287   159 C    1.231
   161   7 N    3.000 --   160 C    1.314   157 C    1.264   121 Zn   0.564
   162   1 H    1.035 --   124 C    0.997
   163   1 H    1.034 --   125 C    0.999
   164   1 H    1.052 --   130 C    0.987
   165   1 H    1.038 --   131 C    0.986
   166   1 H    1.038 --   135 C    0.986
   167   1 H    1.051 --   136 C    0.987
   168   1 H    1.035 --   138 C    0.999
   169   1 H    1.037 --   139 C    1.000
   170   1 H    1.037 --   144 C    1.000
   171   1 H    1.035 --   145 C    0.999
   172   1 H    1.052 --   150 C    0.987
   173   1 H    1.038 --   151 C    0.986
   174   1 H    1.038 --   155 C    0.986
   175   1 H    1.051 --   156 C    0.987
   176   1 H    1.034 --   158 C    0.999
   177   1 H    1.035 --   159 C    0.997
 ---------------------------------------------------------------------------

Topologies differ in total number of bonds
Writing topology from bond orders to xtbtopo.mol

 dipole moment from electron density (au)
     X       Y       Z   
 -88.9649  -0.0397   0.0491  total (Debye):  226.126


           -------------------------------------------------
          | TOTAL ENERGY             -354.687026372924 Eh   |
          | GRADIENT NORM               0.084834818253 Eh/α |
          | HOMO-LUMO GAP               0.233941421598 eV   |
           -------------------------------------------------
########################################################################
[WARNING] Runtime exception occurred
-1- restart_readRestart: Dimension missmatch in restart file.
########################################################################

------------------------------------------------------------------------
 * finished run on 2022/07/30 at 16:20:39.115     
------------------------------------------------------------------------
 total:
 * wall-time:     0 d,  0 h,  0 min, 11.050 sec
 *  cpu-time:     0 d,  0 h,  0 min, 10.995 sec
 * ratio c/w:     0.995 speedup
 SCF:
 * wall-time:     0 d,  0 h,  0 min, 10.605 sec
 *  cpu-time:     0 d,  0 h,  0 min, 10.554 sec
 * ratio c/w:     0.995 speedup

