177
 energy: -310.109885772353 gnorm: 0.501925999446 xtb: 6.5.1 (b24c23e)
Zn          35.62344100000000       -0.01609500000000       -0.00677300000000
C           32.28544400000000        0.10706100000000        0.06530500000000
C           32.94741900000000        1.25650500000000        0.22622700000000
C           32.29654900000000        2.55381200000000        0.36340200000000
C           33.23651800000000        3.46447000000000        0.53608900000000
C           34.54159499999999        2.78905400000000        0.53009300000000
N           34.36480900000000        1.38703600000000        0.32300800000000
C           35.73352900000000        3.39490800000000        0.71174700000000
C           35.78273900000000        4.85337300000000        0.96401700000000
C           35.30005999999999        5.38251500000000        2.17172500000000
C           35.36301400000000        6.75836200000000        2.41220900000000
C           35.91384900000000        7.61490600000000        1.45054800000000
C           35.97986100000000        9.03112900000000        1.69926200000000
N           36.03292000000000       10.16970400000000        1.89930800000000
C           36.40295700000000        7.08990300000000        0.24761500000000
C           36.33964000000000        5.71424700000000        0.00582100000000
C           37.02496200000000        2.65918300000000        0.68023100000000
C           38.30830300000000        3.24426300000000        1.08752400000000
C           39.24310500000000        2.33436900000000        0.90271400000000
N           37.16799100000000        1.43733800000000        0.26664000000000
C           38.56332100000000        1.15663400000000        0.37753000000000
C           39.15788100000000        0.01460000000000       -0.00424200000000
C           38.39466800000000       -1.14549200000000       -0.51566900000000
C           38.92558600000000       -2.13801100000000       -1.21852500000000
C           37.88297000000000       -3.12380800000000       -1.42802000000000
C           36.78506200000000       -2.66991500000000       -0.83450500000000
N           37.01845800000000       -1.39659000000000       -0.23059900000000
C           35.50656800000000       -3.42125100000000       -0.74838300000000
C           35.52982700000000       -4.88679000000000       -0.97592600000000
C           34.84565600000000       -5.45083300000000       -2.06537000000000
C           34.88753799999999       -6.83083000000000       -2.28573400000000
C           35.61919300000000       -7.65770500000000       -1.42412900000000
C           35.66320799999999       -9.07826900000000       -1.65216500000000
N           35.69863200000000      -10.22035100000000       -1.83542100000000
C           36.31092400000000       -7.09875600000000       -0.34221200000000
C           36.26900700000000       -5.71892900000000       -0.12049300000000
C           34.34424700000000       -2.80211700000000       -0.46570000000000
C           33.03695900000000       -3.43988400000000       -0.31872100000000
C           32.17497800000000       -2.46493200000000       -0.10332500000000
C           32.92318700000000       -1.20895300000000       -0.09841600000000
N           34.18821300000000       -1.39327400000000       -0.30866900000000
H           31.20208400000000        0.13488700000000        0.05594900000000
H           31.23319800000000        2.75295300000000        0.32619500000000
H           33.04848300000000        4.52322500000000        0.65735000000000
H           34.87775400000000        4.72873700000000        2.92499600000000
H           34.98493000000000        7.15341700000000        3.34751100000000
H           36.83378600000000        7.74304900000000       -0.50172600000000
H           36.72268600000000        5.31901700000000       -0.92705900000000
H           38.47897100000000        4.24036500000000        1.47430700000000
H           40.29688300000000        2.46636600000000        1.10893800000000
H           39.95135499999999       -2.21841000000000       -1.55255800000000
H           37.99208399999999       -4.06626500000000       -1.94889100000000
H           34.28430200000000       -4.82078300000000       -2.74440200000000
H           34.35281400000000       -7.25206400000000       -3.12859200000000
H           36.88284500000000       -7.72875200000000        0.32846100000000
H           36.80937600000000       -5.29836200000000        0.71882000000000
H           32.79536300000000       -4.49335100000000       -0.36985200000000
H           31.11035900000000       -2.58780900000000        0.04652500000000
Zn          58.83071099999999        0.04511300000000       -0.00843100000000
C           62.16870800000000       -0.07396000000000        0.07020900000000
C           61.50673400000000       -1.21300700000000        0.29312200000000
C           62.15760399999999       -2.50098500000000        0.50032700000000
C           61.21763500000000       -3.40095900000000        0.72206000000000
C           59.91255800000000       -2.72685800000000        0.67950800000000
N           60.08934399999999       -1.33810600000000        0.39682700000000
C           58.72062399999999       -3.32198900000000        0.89369400000000
C           58.67141400000000       -4.76465800000000        1.22455100000000
C           59.15409200000000       -5.22764400000000        2.45913300000000
C           59.09113900000000       -6.58845400000000        2.77374900000000
C           58.54030299999999       -7.49580300000000        1.85986800000000
C           58.47429100000000       -8.89648500000000        2.18488600000000
N           58.42123200000000      -10.02256100000000        2.44627800000000
C           58.05119500000000       -7.03669300000000        0.63027700000000
C           58.11451300000000       -5.67614400000000        0.31436500000000
C           57.42919100000000       -2.58905000000000        0.82239500000000
C           56.14584899999999       -3.15122200000000        1.26076600000000
C           55.21104800000000       -2.25266700000000        1.02696800000000
N           57.28616200000000       -1.39138700000000        0.34326400000000
C           55.89083100000000       -1.10509100000000        0.43879600000000
C           55.29627099999999        0.01460000000000       -0.00424200000000
C           56.05948400000000        1.14530400000000       -0.57772200000000
C           55.52856599999999        2.09831700000000       -1.33327900000000
C           56.57118300000000        3.07132700000000       -1.59583400000000
C           57.66909000000000        2.65023100000000       -0.97861700000000
N           57.43569500000000        1.41146700000000       -0.30666400000000
C           58.94758400000000        3.40512800000000       -0.93329700000000
C           58.92432600000000        4.85619900000000       -1.23984400000000
C           59.60849600000000        5.36043600000000       -2.35822700000000
C           59.56661400000000        6.72648000000000       -2.65297600000000
C           58.83496000000000        7.59878700000000       -1.83739700000000
C           58.79094400000000        9.00492200000000       -2.14200400000000
N           58.75551999999999       10.13540900000000       -2.38681900000000
C           58.14322800000000        7.09922900000000       -0.72680800000000
C           58.18514500000000        5.73342800000000       -0.43071500000000
C           60.10990499999999        2.80220500000000       -0.61751000000000
C           61.41719399999999        3.44699400000000       -0.50527300000000
C           62.27917500000000        2.48513200000000       -0.23741300000000
C           61.53096500000000        1.23126100000000       -0.16451700000000
N           60.26593900000000        1.40392900000000       -0.38444000000000
H           63.25206799999999       -0.10225200000000        0.06237200000000
H           63.22095400000000       -2.70184800000000        0.47395500000000
H           61.40566999999999       -4.45159700000000        0.90046000000000
H           59.57639799999999       -4.53404500000000        3.17590700000000
H           59.46922199999999       -6.93229600000000        3.72906500000000
H           57.62036600000000       -7.72944700000000       -0.08260600000000
H           57.73146599999999       -5.33199600000000       -0.63854300000000
H           55.97518199999999       -4.12492500000000        1.70090700000000
H           54.15726899999999       -2.37330600000000        1.24003500000000
H           54.50279700000000        2.16051500000000       -1.67117500000000
H           56.46206899999999        3.98420500000000       -2.16696300000000
H           60.16984999999999        4.69455000000000       -3.00215400000000
H           60.10133900000000        7.10146700000000       -3.51740100000000
H           57.57130800000000        7.76460800000000       -0.09122400000000
H           57.64477700000000        5.35891500000000        0.43013500000000
H           61.65879000000000        4.49614800000000       -0.61336000000000
H           63.34379300000000        2.61594100000000       -0.09443500000000
C           41.21401200000000        0.01460000000000       -0.00424200000000
C           42.43593000000000        0.01460000000000       -0.00424200000000
C           52.01822300000000        0.01460000000000       -0.00424200000000
C           53.24014000000000        0.01460000000000       -0.00424200000000
Zn          47.21052599999999        0.01598300000000       -0.01463300000000
C           43.77398199999999       -0.03073700000000        0.00893000000000
C           44.42955100000000       -1.14017400000000       -0.37897100000000
C           43.78882800000000       -2.41122100000000       -0.72275600000000
C           44.72532600000000       -3.25838400000000       -1.10078900000000
C           46.02247100000000       -2.57856200000000       -1.02509400000000
N           45.84453499999999       -1.23855900000000       -0.55926700000000
C           47.20689800000000       -3.13439200000000       -1.35838300000000
C           47.24250099999999       -4.51774300000000       -1.88696800000000
C           46.72126699999999       -4.80595300000000       -3.15844000000000
C           46.77003900000000       -6.11011600000000       -3.65988500000000
C           47.34459700000000       -7.13476500000000       -2.89712000000000
C           47.39595000000000       -8.47706400000000       -3.41431000000000
N           47.43736400000000       -9.55621300000000       -3.83011100000000
C           47.87139899999999       -6.84988400000000       -1.63094100000000
C           47.82233400000000       -5.54617900000000       -1.12822900000000
C           48.50385000000000       -2.42511000000000       -1.21495700000000
C           49.77246800000000       -2.92161200000000       -1.76346100000000
C           50.72468100000000       -2.08799200000000       -1.39670800000000
N           48.67162699999999       -1.32818900000000       -0.54411800000000
C           50.06978700000000       -1.04795400000000       -0.61395300000000
C           50.68479799999999       -0.03073700000000        0.00893000000000
C           49.93383900000000        0.99702500000000        0.75976900000000
C           50.46658100000000        1.80134600000000        1.67073900000000
C           49.43430900000000        2.73854300000000        2.07183400000000
C           48.34288300000000        2.44453900000000        1.37446000000000
N           48.56822900000000        1.32929500000000        0.51400700000000
C           47.08969700000000        3.23649200000000        1.40097700000000
C           47.15185900000000        4.64399000000000        1.86599900000000
C           46.44262899999999        5.05001700000000        3.00855900000000
C           46.51939400000000        6.37352100000000        3.45242200000000
C           47.31085599999999        7.30065100000000        2.76308900000000
C           47.38970900000000        8.66313500000000        3.22061900000000
N           47.45307600000000        9.75853400000000        3.58843100000000
C           48.02780000000000        6.89835300000000        1.62931300000000
C           47.95128000000000        5.57515800000000        1.18425100000000
C           45.91821400000000        2.70935400000000        0.99542900000000
C           44.64292999999999        3.41363800000000        0.90989100000000
C           43.75484300000000        2.51826400000000        0.52862700000000
C           44.45197300000000        1.23828100000000        0.36129900000000
N           45.71650600000000        1.34409800000000        0.62912900000000
H           42.73414400000000       -2.64809300000000       -0.68131400000000
H           44.53908900000000       -4.28060300000000       -1.40340000000000
H           46.27990700000000       -4.02020900000000       -3.75926300000000
H           46.36230499999999       -6.31885600000000       -4.64166800000000
H           48.32017400000000       -7.63441900000000       -1.03359000000000
H           48.23403700000000       -5.33706600000000       -0.14840700000000
H           49.92206599999999       -3.81106200000000       -2.36130900000000
H           51.77398299999999       -2.18474500000000       -1.64198700000000
H           51.48843600000000        1.78995900000000        2.02560900000000
H           49.54870900000000        3.55144400000000        2.77722700000000
H           45.83455100000000        4.34027000000000        3.55598600000000
H           45.96451700000000        6.67273300000000        4.33357800000000
H           48.64568300000000        7.60659000000000        1.09044900000000
H           48.51116700000000        5.27618800000000        0.30651300000000
H           44.43933300000000        4.45848300000000        1.10428300000000
H           42.70474200000000        2.71946900000000        0.36522300000000
177
 energy: -310.264701322065 gnorm: 0.300116308823 xtb: 6.5.1 (b24c23e)
Zn          35.62877926896951       -0.01116370675788       -0.00529202370015
C           32.28453564307802        0.08736676542034        0.06330365951382
C           32.95139452102203        1.25693981096555        0.22606624286678
C           32.29709030414904        2.54669592494486        0.36239264730018
C           33.24901260177810        3.46681836761348        0.53771394866158
C           34.54209326610079        2.78436827557282        0.52984548027102
N           34.34051027802867        1.41178706182691        0.32138452059333
C           35.75393028453186        3.38937094152067        0.71328472060318
C           35.79274496618386        4.85361378248491        0.96755269200887
C           35.30135566120192        5.38702217129330        2.16640712002479
C           35.36326903467773        6.75545272631974        2.40829648357162
C           35.91390800669755        7.61527133989928        1.45059651354541
C           35.97971386990120        9.02634081356958        1.69847056497425
N           36.03234824379244       10.15879273189063        1.89739821287390
C           36.40142082776079        7.08652680774087        0.24961577866999
C           36.34107972568764        5.71755173196968        0.01238542405569
C           37.02498815636740        2.67481039852551        0.68142239199219
C           38.29667873676338        3.25876380738487        1.08816832775961
C           39.24605284842954        2.33135267534507        0.90038870524057
N           37.19792789454821        1.43051801611615        0.27642297093486
C           38.59313966204451        1.14969345941516        0.37512940413648
C           39.20296818331843       -0.00233512956611       -0.01612803707808
C           38.41262299208608       -1.13956130548268       -0.49750343452943
C           38.93671093086024       -2.16652264812504       -1.22868868818560
C           37.91229751622556       -3.12690614527097       -1.43063632932312
C           36.78377487051825       -2.65761281579003       -0.81826576898541
N           37.04005854850182       -1.39408488223053       -0.23980495963201
C           35.52576015305127       -3.40844055707700       -0.74513081809031
C           35.54305728647964       -4.88060970759420       -0.98142628309484
C           34.84911973228395       -5.45217073122717       -2.05919121582290
C           34.88887763333715       -6.82587929142323       -2.28126105968710
C           35.61920931422657       -7.65718034556794       -1.42401012935734
C           35.66317065284987       -9.07294905327417       -1.65148424296101
N           35.69808315255911      -10.20892715237339       -1.83358173142204
C           36.30833058749535       -7.09389250326718       -0.34364913102014
C           36.26984119831968       -5.72005107157612       -0.12708280357496
C           34.34357470596141       -2.80101773137607       -0.46456747993634
C           33.04405550374862       -3.43714744400607       -0.32083744573520
C           32.16082980336400       -2.45280696946773       -0.10191529537180
C           32.89828602248900       -1.20162476012699       -0.09841780249525
N           34.18228718274751       -1.40813135013271       -0.30216648612603
H           31.20167297632427        0.12436398070689        0.05640972747356
H           31.23387866468998        2.74001641862020        0.32457131568839
H           33.06599261553490        4.52489200167732        0.65902170424041
H           34.88004219737415        4.73025296060073        2.92074848977213
H           34.98621728527500        7.15273628545089        3.34462056766108
H           36.83210863883784        7.74202799523732       -0.49949240571792
H           36.72126064747270        5.31971423491443       -0.92288937228760
H           38.46506402178421        4.25020288233859        1.47507241436136
H           40.29812473772030        2.45542060923833        1.10529410352180
H           39.95703080772284       -2.23212989768087       -1.56233201999275
H           38.00255471564024       -4.06591155693024       -1.95350247176362
H           34.28748150700815       -4.82117475715578       -2.74036969469545
H           34.35479231314812       -7.25002677158161       -3.12534098837891
H           36.88046873713152       -7.72683553937445        0.32640877922151
H           36.80773529052269       -5.29860475234003        0.71540356571878
H           32.81102013613609       -4.49158116422969       -0.37187181403876
H           31.10160393948830       -2.57708221008120        0.04848004530793
Zn          58.82553893735442        0.04033226290734       -0.00665182560868
C           62.16958773095399       -0.05444533873820        0.06715009226743
C           61.50279059839662       -1.21344948098458        0.29299815237978
C           62.15706849970449       -2.49394546917872        0.49894176981665
C           61.20514253519882       -3.40319522329595        0.72379905891288
C           59.91205566553206       -2.72212095336194        0.67893636745787
N           60.11359073230808       -1.36295011076124        0.39653593760938
C           58.70011708650107       -3.31634471277154        0.89495955915310
C           58.66135949267271       -4.76473526934375        1.22812303431589
C           59.15279376489031       -5.23242141950651        2.45407756425955
C           59.09088240489554       -6.58576241517171        2.76967469594608
C           58.54024710670657       -7.49615571752983        1.85992593038152
C           58.47444644083689       -8.89176208414007        2.18383661487891
N           58.42178712215020      -10.01175340997403        2.44380378302997
C           58.05274103650457       -7.03322202145398        0.63208897771673
C           58.11306943356990       -5.67908685252295        0.32109091065874
C           57.42926263733665       -2.60462037915138        0.82447072630697
C           56.15733968672391       -3.16570490316645        1.26219186632685
C           55.20784917971705       -2.25003482309462        1.02458398909122
N           57.25634614980607       -1.38413138954018        0.35251132732147
C           55.86110942712097       -1.09876039097998        0.43597892521539
C           55.25259681482702        0.03006414491716       -0.01740351144746
C           56.04159646617422        1.14033969634401       -0.55928492394850
C           55.51737519344054        2.12623157404583       -1.34502256734473
C           56.54179305742822        3.07416067541485       -1.59858666346040
C           57.67036277226299        2.63874472693546       -0.96168320560932
N           57.41421143564482        1.40842358029210       -0.31556015431209
C           58.92837671395260        3.39250154360962       -0.92935330094561
C           58.91106565380372        4.84975394829010       -1.24501088778117
C           59.60504167201403        5.36209273471524       -2.35212920895945
C           59.56526746088176        6.72177625759107       -2.64823341547546
C           58.83494130156023        7.59825572300568       -1.83723774273365
C           58.79099241222978        8.99965849105203       -2.14102948397401
N           58.75605583884237       10.12408265555252       -2.38439993777464
C           58.14582822256675        7.09429499275778       -0.72797012743726
C           58.18428766595409        5.73418562764387       -0.43734359168126
C           60.11056032188917        2.80117174667238       -0.61629393873718
C           61.41010158169291        3.44414481081157       -0.50724401890166
C           62.29331317501450        2.47312196336604       -0.23535195780052
C           61.55584608453244        1.22397500289876       -0.16412991415194
N           60.27187431765876        1.41910795206935       -0.37877114508770
H           63.25245182731713       -0.09173779316335        0.06225570061469
H           63.22026555585837       -2.68902762137261        0.47163457092798
H           61.38814066596044       -4.45314667621390        0.90221736614804
H           59.57410573743554       -4.53578033516035        3.17175491155236
H           59.46793584858520       -6.93176267931852        3.72613281988906
H           57.62204579116368       -7.72829907474265       -0.08043319001287
H           57.73289685577456       -5.33246574633935       -0.63435301859268
H           55.98904678639328       -4.13470886897685        1.70220473482979
H           54.15581622787894       -2.36259182376684        1.23573281771656
H           54.49714499239140        2.17364384452090       -1.68162213615886
H           56.45157163190322        3.98349899671787       -2.17149914281113
H           60.16666948826722        4.69514820962837       -2.99815885317779
H           60.09936004415486        7.09959571532239       -3.51403720851917
H           57.57368593381661        7.76256891487730       -0.09316674244074
H           57.64641438318234        5.35897579628884        0.42672456489031
H           61.64312736086112        4.49425949677294       -0.61528177202265
H           63.35253016434218        2.60533596094612       -0.09189886038948
C           41.11469075059679        0.01110560445048       -0.00417947242456
C           42.34831155858082        0.01979604980203       -0.00182597279190
C           52.09780884457928        0.02652399106170        0.00600785769159
C           53.33303684642704        0.01644792640839       -0.00454550350064
Zn          47.20659788144908        0.01325977774815       -0.01281437788840
C           43.75289584037900       -0.00899286833598        0.00538558535163
C           44.42938923548684       -1.14225328947601       -0.38023418863780
C           43.78712485311630       -2.40175856811509       -0.71999107588231
C           44.73684274919020       -3.25965042902348       -1.10279936220199
C           46.02087308861262       -2.57411861907370       -1.02348649846945
N           45.81672682499114       -1.26368091820371       -0.55803886880064
C           47.22371608107063       -3.13142866572831       -1.36042612143577
C           47.25040142195474       -4.51860769472022       -1.89094954232562
C           46.72223973396996       -4.81184832428698       -3.15460597606207
C           46.77041358180966       -6.10825541070360       -3.65581072373829
C           47.34458925003207       -7.13522818654844       -2.89727920444183
C           47.39576958253040       -8.47256011208660       -3.41262020285888
N           47.43698199898483       -9.54591665758461       -3.82618144115345
C           47.86985488185787       -6.84630158345279       -1.63225660800324
C           47.82332498998083       -5.54835762207705       -1.13546915904296
C           48.49824680417395       -2.44871564431598       -1.22246978885117
C           49.75689293663673       -2.93927299525018       -1.76800412803562
C           50.72015118487759       -2.08555932049031       -1.39310115912534
N           48.68728824433237       -1.32704089032678       -0.55724020900781
C           50.07019230617221       -1.05109347962548       -0.61861477257834
C           50.69353154716833       -0.01690072074296        0.01788556911097
C           49.92832916770224        0.99932945813533        0.74691266170880
C           50.47167993171077        1.82704745795803        1.68545229796988
C           49.46172357502233        2.74370255888220        2.07549426772097
C           48.33886228141506        2.44190572411741        1.35761743319783
N           48.57679032066478        1.32947152728387        0.52721167531986
C           47.10607105136025        3.22670678919056        1.39586255318936
C           47.16321926405325        4.63772732032496        1.87050802949905
C           46.44599126268234        5.05257879153005        3.00301557339329
C           46.52073468104915        6.36948872462517        3.44749402764465
C           47.31086610921658        7.30027529840780        2.76293394431329
C           47.38944250775009        8.65808013897052        3.21907061210728
N           47.45245840100812        9.74763593177845        3.58481049810989
C           48.02508693362483        6.89352222035111        1.62986694056260
C           47.95172606933928        5.57542276810380        1.19093097862168
C           45.91662836988929        2.70876784527504        0.99437872533411
C           44.64893568746072        3.41048822785555        0.91178921496897
C           43.73921384246599        2.50623426183661        0.52510402998435
C           44.42718187232266        1.23503206390594        0.36023388119293
N           45.71012102445131        1.36000362179429        0.62405139425157
H           42.73235635142632       -2.63232370829904       -0.67647709461107
H           44.55585232733677       -4.28106763959601       -1.40584194263416
H           46.28213184143175       -4.02260917931870       -3.75561261525722
H           46.36363634729947       -6.31890588921990       -4.63897158479077
H           48.31847350821350       -7.63302950126462       -1.03553055214847
H           48.23236876803976       -5.33684368967413       -0.15276122547996
H           49.90829901407661       -3.82203651116690       -2.36517671071477
H           51.77064767985027       -2.17254676321763       -1.63421261562045
H           51.49006914069936        1.79869063019846        2.03604231772213
H           49.55945261470982        3.55066168616978        2.78323780997827
H           45.83778538040895        4.34125469078221        3.55223989513565
H           45.96656701226696        6.67132055681788        4.33026754956435
H           48.64327036516649        7.60450168994619        1.09207144414781
H           48.50936235750392        5.27588654493731        0.30994231031992
H           44.45410269503402        4.45577159753441        1.10645136460044
H           42.69428209389905        2.70739531597908        0.36117834392361
177
 energy: -310.377403279204 gnorm: 0.120049914036 xtb: 6.5.1 (b24c23e)
Zn          35.64352751481036       -0.00797907339856       -0.00158204883121
C           32.28918986104844        0.06651511063922        0.06096113646471
C           32.95874926751543        1.26257614591923        0.22470377409430
C           32.29882520327463        2.54048352312414        0.36160458609340
C           33.26164670751324        3.46839522495178        0.53960325490488
C           34.53865540573049        2.77728595213500        0.52723069808308
N           34.31248475357217        1.44050430504497        0.32207692485042
C           35.77908485056358        3.37605958768855        0.71368492164632
C           35.80195720982611        4.84861848903922        0.97051441892280
C           35.30353986159027        5.38828579210695        2.16183147599725
C           35.36321742338043        6.75095151651417        2.40450260204352
C           35.91385290802704        7.61467782723180        1.45048025592582
C           35.97950538601950        9.01960938893038        1.69743029925133
N           36.03196349337106       10.15274244075950        1.89636831219794
C           36.40017322270622        7.08203037341529        0.25103802837529
C           36.34302478021813        5.71811192729108        0.01833637561110
C           37.02590448021293        2.68750510369284        0.68243747470185
C           38.28638394803271        3.26919045839561        1.08485072304370
C           39.24816900964606        2.33230955024406        0.89730991075102
N           37.23744906155520        1.41468965321084        0.28428014890135
C           38.62781735947674        1.14861309152499        0.37752268857125
C           39.28848392604523       -0.01110430409009       -0.02968571313793
C           38.44834961066526       -1.12612719249635       -0.47828412894619
C           38.94887912497914       -2.20147082869228       -1.23485894830191
C           37.94997741730680       -3.12535826607148       -1.42747164797099
C           36.78711998430183       -2.64002193064366       -0.79935015040983
N           37.08136695611399       -1.39261642567545       -0.25250257947162