      -----------------------------------------------------------      
     |                   =====================                   |     
     |                           x T B                           |     
     |                   =====================                   |     
     |                         S. Grimme                         |     
     |          Mulliken Center for Theoretical Chemistry        |     
     |                    University of Bonn                     |     
      -----------------------------------------------------------      

   * xtb version 6.5.1 (b24c23e) compiled by 'conda@728c89f4b128' on 2022-07-12

   xtb is free software: you can redistribute it and/or modify it under
   the terms of the GNU Lesser General Public License as published by
   the Free Software Foundation, either version 3 of the License, or
   (at your option) any later version.
   
   xtb is distributed in the hope that it will be useful,
   but WITHOUT ANY WARRANTY; without even the implied warranty of
   MERCHANTABILITY or FITNESS FOR A PARTICULAR PURPOSE.  See the
   GNU Lesser General Public License for more details.
   
   Cite this work as:
   * C. Bannwarth, E. Caldeweyher, S. Ehlert, A. Hansen, P. Pracht,
     J. Seibert, S. Spicher, S. Grimme, WIREs Comput. Mol. Sci., 2020, 11,
     e01493. DOI: 10.1002/wcms.1493
   
   for GFN2-xTB:
   * C. Bannwarth, S. Ehlert and S. Grimme., J. Chem. Theory Comput., 2019,
     15, 1652-1671. DOI: 10.1021/acs.jctc.8b01176
   for GFN1-xTB:
   * S. Grimme, C. Bannwarth, P. Shushkov, J. Chem. Theory Comput., 2017,
     13, 1989-2009. DOI: 10.1021/acs.jctc.7b00118
   for GFN0-xTB:
   * P. Pracht, E. Caldeweyher, S. Ehlert, S. Grimme, ChemRxiv, 2019, preprint.
     DOI: 10.26434/chemrxiv.8326202.v1
   for GFN-FF:
   * S. Spicher and S. Grimme, Angew. Chem. Int. Ed., 2020, 59, 15665-15673.
     DOI: 10.1002/anie.202004239
   
   for ALPB and GBSA implicit solvation:
   * S. Ehlert, M. Stahn, S. Spicher, S. Grimme, J. Chem. Theory Comput.,
     2021, 17, 4250-4261. DOI: 10.1021/acs.jctc.1c00471
   
   for DFT-D4:
   * E. Caldeweyher, C. Bannwarth and S. Grimme, J. Chem. Phys., 2017,
     147, 034112. DOI: 10.1063/1.4993215
   * E. Caldeweyher, S. Ehlert, A. Hansen, H. Neugebauer, S. Spicher,
     C. Bannwarth and S. Grimme, J. Chem. Phys., 2019, 150, 154122.
     DOI: 10.1063/1.5090222
   * E. Caldeweyher, J.-M. Mewes, S. Ehlert and S. Grimme, Phys. Chem. Chem. Phys.
     2020, 22, 8499-8512. DOI: 10.1039/D0CP00502A
   
   for sTDA-xTB:
   * S. Grimme and C. Bannwarth, J. Chem. Phys., 2016, 145, 054103.
     DOI: 10.1063/1.4959605
   
   in the mass-spec context:
   * V. Asgeirsson, C. Bauer and S. Grimme, Chem. Sci., 2017, 8, 4879.
     DOI: 10.1039/c7sc00601b
   * J. Koopman and S. Grimme, ACS Omega 2019, 4, 12, 15120-15133.
     DOI: 10.1021/acsomega.9b02011
   
   for metadynamics refer to:
   * S. Grimme, J. Chem. Theory Comput., 2019, 155, 2847-2862
     DOI: 10.1021/acs.jctc.9b00143
   
   for SPH calculations refer to:
   * S. Spicher and S. Grimme, J. Chem. Theory Comput., 2021, 17, 1701-1714
     DOI: 10.1021/acs.jctc.0c01306
   
   with help from (in alphabetical order)
   P. Atkinson, C. Bannwarth, F. Bohle, G. Brandenburg, E. Caldeweyher
   M. Checinski, S. Dohm, S. Ehlert, S. Ehrlich, I. Gerasimov, C. Hölzer
   A. Katbashev, J. Koopman, C. Lavigne, S. Lehtola, F. März, M. Müller,
   F. Musil, H. Neugebauer, J. Pisarek, C. Plett, P. Pracht, F. Pultar,
   J. Seibert, P. Shushkov, S. Spicher, M. Stahn, M. Steiner, T. Strunk,
   J. Stückrath, T. Rose, and J. Unsleber
   
 * started run on 2022/07/26 at 16:54:45.557     

           -------------------------------------------------
          |                Calculation Setup                |
           -------------------------------------------------

          program call               : xtb H_C8_3.xyz --gfn 1 --opt -T 48
          hostname                   : cx3-6-14.cx3.hpc.ic.ac.uk
          coordinate file            : H_C8_3.xyz
          omp threads                :                     1

   ID    Z sym.   atoms
    1    6 C      1-5, 7-10, 12-17, 19-23, 38-42, 44-47, 49-54, 56-60, 75-95,
                  97-100, 102-107, 109-113
    2    7 N      6, 11, 18, 24, 43, 48, 55, 61, 96, 101, 108, 114
    3    1 H      25-37, 62-74, 115-126

molecular fragmentation (1/2 indicates fragments):
111111111111111111111111111111111111122222222222222222222222222222222222
222222222222222222222222222222222222222222222222222222
# atoms in fragment 1/2:    37    89
 fragment masses (1/2) :      309.34      809.85
CMA distance (Bohr)    :  53.521
constraining FC (au)   :  0.0500
########################################################################
[WARNING] Please study the warnings concerning your input carefully
-1- prog_main_parseArguments: Unknown option '-T' provided
########################################################################

           -------------------------------------------------
          |                 G F N 1 - x T B                 |
           -------------------------------------------------

        Reference                      10.1021/acs.jctc.7b00118
      * Hamiltonian:
        H0-scaling (s, p, d)           1.850000    2.250000    2.000000
        zeta-weighting                 0.000000
      * Dispersion:
        s8                             2.400000
        a1                             0.630000
        a2                             5.000000
        s9                             0.000000
      * Repulsion:
        kExp                           1.500000
        rExp                           1.000000
      * Coulomb:
        alpha                          2.000000
        third order                    atomic
        anisotropic                    false
      * Halogen bond correction:
        rad-scale                      1.300000
        damping                        0.440000


          ...................................................
          :                      SETUP                      :
          :.................................................:
          :  # basis functions                 428          :
          :  # atomic orbitals                 428          :
          :  # shells                          252          :
          :  # electrons                       402          :
          :  # halogen bonds                     0          :
          :  max. iterations                   250          :
          :  Hamiltonian                  GFN1-xTB          :
          :  restarted?                      false          :
          :  GBSA solvation                  false          :
          :  PC potential                    false          :
          :  electronic temp.          300.0000000     K    :
          :  accuracy                    1.0000000          :
          :  -> integral cutoff          0.2500000E+02      :
          :  -> integral neglect         0.1000000E-07      :
          :  -> SCF convergence          0.1000000E-05 Eh   :
          :  -> wf. convergence          0.2000000E-04 e    :
          :  Broyden damping             0.4000000          :
          ...................................................

 iter      E             dE          RMSdq      gap      omega  full diag
   1   -220.9857166 -0.220986E+03  0.105E+01    0.28       0.0  T
   2   -205.1638755  0.158218E+02  0.796E+00    0.05       1.0  T
   3    341.9902907  0.547154E+03  0.157E+01    0.06       1.0  T
   4    809.3546932  0.467364E+03  0.184E+01    0.10       1.0  T
   5   -112.1690954 -0.921524E+03  0.989E+00    0.20       1.0  T
   6   -170.6264916 -0.584574E+02  0.604E+00    0.05       1.0  T
   7   -196.4047761 -0.257783E+02  0.547E+00    0.15       1.0  T
   8   -211.1471435 -0.147424E+02  0.336E+00    0.03       1.0  T
   9   -215.6837171 -0.453657E+01  0.249E+00    0.06       1.0  T
  10   -216.8190341 -0.113532E+01  0.260E+00    0.19       1.0  T
  11   -216.3152677  0.503766E+00  0.202E+00    0.01       1.0  T
  12   -218.5309738 -0.221571E+01  0.202E+00    0.15       1.0  T
  13   -219.0824218 -0.551448E+00  0.193E+00    0.14       1.0  T
  14   -220.0513878 -0.968966E+00  0.186E+00    0.10       1.0  T
  15   -220.6191793 -0.567792E+00  0.173E+00    0.01       1.0  T
  16   -220.5632321  0.559473E-01  0.166E+00    0.03       1.0  T
  17   -220.8434587 -0.280227E+00  0.157E+00    0.04       1.0  T
  18   -219.9547588  0.888700E+00  0.183E+00    0.06       1.0  T
  19   -221.2970020 -0.134224E+01  0.125E+00    0.17       1.0  T
  20   -221.7973165 -0.500315E+00  0.101E+00    0.01       1.0  T
  21   -221.8415397 -0.442231E-01  0.901E-01    0.01       1.0  T
  22   -221.9041509 -0.626112E-01  0.897E-01    0.01       1.0  T
  23   -222.0029606 -0.988098E-01  0.706E-01    0.02       1.0  T
  24   -221.9120740  0.908866E-01  0.840E-01    0.03       1.0  T
  25   -221.8900643  0.220097E-01  0.844E-01    0.05       1.0  T
  26   -222.1031267 -0.213062E+00  0.600E-01    0.01       1.0  T
  27   -221.9912653  0.111861E+00  0.783E-01    0.04       1.0  T
  28   -221.9943514 -0.308603E-02  0.511E-01    0.04       1.0  T
  29   -222.0759322 -0.815808E-01  0.408E-01    0.00       1.0  T
  30   -221.7300205  0.345912E+00  0.963E-01    0.08       1.0  T
  31   -222.1498664 -0.419846E+00  0.364E-01    0.01       1.0  T
  32   -222.0690907  0.807757E-01  0.544E-01    0.04       1.0  T
  33   -222.0160871  0.530037E-01  0.620E-01    0.05       1.0  T
  34   -222.1095001 -0.934130E-01  0.439E-01    0.03       1.0  T
  35   -222.0360881  0.734120E-01  0.544E-01    0.04       1.0  T
  36   -222.0757655 -0.396774E-01  0.465E-01    0.03       1.0  T
  37   -222.0543176  0.214479E-01  0.492E-01    0.03       1.0  T
  38   -222.1638965 -0.109579E+00  0.279E-01    0.01       1.0  T
  39   -222.1775136 -0.136171E-01  0.204E-01    0.02       1.0  T
  40   -222.1894598 -0.119462E-01  0.154E-01    0.01       1.0  T
  41   -222.2039356 -0.144758E-01  0.108E-01    0.03       1.0  T
  42   -222.1970225  0.691315E-02  0.143E-01    0.04       1.0  T
  43   -222.2009927 -0.397021E-02  0.112E-01    0.04       1.0  T
  44   -222.2060389 -0.504623E-02  0.552E-02    0.02       1.0  T
  45   -222.2064407 -0.401820E-03  0.462E-02    0.02       1.0  T
  46   -222.2075128 -0.107205E-02  0.126E-02    0.03       1.0  T
  47   -222.2075353 -0.224940E-04  0.930E-03    0.03       1.0  T
  48   -222.2075099  0.253387E-04  0.117E-02    0.03       1.0  T
  49   -222.2071886  0.321316E-03  0.233E-02    0.02       1.0  T
  50   -222.2075531 -0.364493E-03  0.534E-03    0.02       1.7  T
  51   -222.2075544 -0.132584E-05  0.496E-03    0.03       1.8  T
  52   -222.2075581 -0.365490E-05  0.411E-03    0.03       2.2  T
  53   -222.2075612 -0.315433E-05  0.317E-03    0.03       2.8  T
  54   -222.2075622 -0.992509E-06  0.274E-03    0.03       3.2  T
  55   -222.2075669 -0.466538E-05  0.114E-03    0.02       7.8  T
  56   -222.2075665  0.362342E-06  0.108E-03    0.03       8.3  T
  57   -222.2075672 -0.666583E-06  0.519E-04    0.03      17.2  T
  58   -222.2075673 -0.131212E-06  0.333E-04    0.02      26.8  T
  59   -222.2075673 -0.659455E-08  0.293E-04    0.02      30.4  T
  60   -222.2075673 -0.251816E-08  0.284E-04    0.02      31.3  T
  61   -222.2075674 -0.296682E-07  0.132E-04    0.02      67.4  T
  62   -222.2075674 -0.654001E-08  0.348E-05    0.02     255.7  T

   *** convergence criteria satisfied after 62 iterations ***

         #    Occupation            Energy/Eh            Energy/eV
      -------------------------------------------------------------
         1        2.0000           -0.8168173             -22.2267
       ...           ...                  ...                  ...
       195        2.0000           -0.4020328             -10.9399
       196        2.0000           -0.3904573             -10.6249
       197        2.0000           -0.3884828             -10.5712
       198        1.9991           -0.3834140             -10.4332
       199        1.7551           -0.3779184             -10.2837
       200        1.7088           -0.3777288             -10.2785
       201        1.2900           -0.3766147             -10.2482 (HOMO)
       202        0.8180           -0.3756978             -10.2233 (LUMO)
       203        0.4288           -0.3748137             -10.1992
       204        0.0002           -0.3673779              -9.9969
       205                         -0.3509738              -9.5505
       206                         -0.3487283              -9.4894
       ...                                ...                  ...
       428                          3.2745332              89.1046
      -------------------------------------------------------------
                  HL-Gap            0.0009170 Eh            0.0250 eV
             Fermi-level           -0.3760475 Eh          -10.2328 eV

 SCC (total)                   0 d,  0 h,  0 min,  2.485 sec
 SCC setup                      ...        0 min,  0.004 sec (  0.167%)
 Dispersion                     ...        0 min,  0.003 sec (  0.104%)
 classical contributions        ...        0 min,  0.001 sec (  0.031%)
 integral evaluation            ...        0 min,  0.089 sec (  3.569%)
 iterations                     ...        0 min,  2.200 sec ( 88.535%)
 molecular gradient             ...        0 min,  0.180 sec (  7.258%)
 printout                       ...        0 min,  0.008 sec (  0.333%)

         :::::::::::::::::::::::::::::::::::::::::::::::::::::
         ::                     SUMMARY                     ::
         :::::::::::::::::::::::::::::::::::::::::::::::::::::
         :: total energy            -217.547780031713 Eh    ::
         :: gradient norm              2.031010178432 Eh/a0 ::
         :: HOMO-LUMO gap              0.024952542388 eV    ::
         ::.................................................::
         :: SCC energy              -222.207567374032 Eh    ::
         :: -> electrostatic           0.176855432794 Eh    ::
         :: repulsion energy           4.752182935306 Eh    ::
         :: dispersion energy         -0.092395592988 Eh    ::
         :: halogen bond corr.         0.000000000000 Eh    ::
         :: add. restraining           0.000000000000 Eh    ::
         :: total charge               0.000000000002 e     ::
         :::::::::::::::::::::::::::::::::::::::::::::::::::::

      ----------------------------------------------------------- 
     |                   =====================                   |
     |                        A N C O P T                        |
     |                   =====================                   |
     |               Approximate Normal Coordinate               |
     |                Rational Function Optimizer                |
      ----------------------------------------------------------- 

          ...................................................
          :                      SETUP                      :
          :.................................................:
          :   optimization level            normal          :
          :   max. optcycles                   378          :
          :   ANC micro-cycles                  20          :
          :   degrees of freedom               372          :
          :.................................................:
          :   RF solver                   davidson          :
          :   write xtbopt.log                true          :
          :   linear?                        false          :
          :   energy convergence         0.5000000E-05 Eh   :
          :   grad. convergence          0.1000000E-02 Eh/α :
          :   maximium RF displ.         1.0000000          :
          :   Hlow (freq-cutoff)         0.1000000E-01      :
          :   Hmax (freq-cutoff)         5.0000000          :
          :   S6 in model hess.         20.0000000          :
          ...................................................

generating ANC from model Hessian ...
Using Lindh-Hessian (1995)
 Shifting diagonal of input Hessian by    1.0073334592867548E-002
 Lowest  eigenvalues of input Hessian
    0.010000    0.010013    0.010067    0.010070    0.010072    0.010073
    0.000000    0.000000    0.000000    0.000000    0.000000    0.000000
    0.010077    0.010088    0.010098    0.010100    0.010102    0.010106
 Highest eigenvalues
    2.827164    2.925786    3.135706    3.230985    3.600883    3.978237


........................................................................
.............................. CYCLE    1 ..............................
........................................................................
   1   -222.2075674 -0.222208E+03  0.343E-05    0.02       0.0  T
   2   -222.2075641  0.327899E-05  0.225E-03    0.02       4.0  T
   3   -222.2075674 -0.327347E-05  0.101E-04    0.02      88.3  T
   4   -222.2075674 -0.179364E-08  0.843E-05    0.02     105.7  T
   5   -222.2075674 -0.593815E-09  0.755E-05    0.02     117.9  T
     SCC iter.                  ...        0 min,  0.180 sec
     gradient                   ...        0 min,  0.188 sec
 * total energy  :  -217.5477800 Eh     change        0.3446502E-08 Eh
   gradient norm :     2.0310095 Eh/α   predicted     0.0000000E+00 (-100.00%)
   displ. norm   :     0.5527724 α      lambda       -0.1064356E+01
   maximum displ.:     0.3262673 α      in ANC's #371, #367, #301, ...

........................................................................
.............................. CYCLE    2 ..............................
........................................................................
   1   -221.8741445 -0.221874E+03  0.887E-01    0.10       0.0  T
   2   -220.1236161  0.175053E+01  0.226E+00    0.13       1.0  T
   3   -221.6012053 -0.147759E+01  0.133E+00    0.05       1.0  T
   4   -221.7794980 -0.178293E+00  0.985E-01    0.06       1.0  T
   5   -221.8574522 -0.779542E-01  0.833E-01    0.16       1.0  T
   6   -221.6867201  0.170732E+00  0.101E+00    0.16       1.0  T
   7   -221.5834470  0.103273E+00  0.884E-01    0.06       1.0  T
   8   -222.1010953 -0.517648E+00  0.503E-01    0.00       1.0  T
   9   -222.0377532  0.633421E-01  0.491E-01    0.11       1.0  T
  10   -221.6677796  0.369974E+00  0.957E-01    0.04       1.0  T
  11   -221.8113804 -0.143601E+00  0.847E-01    0.01       1.0  T
  12   -221.8685296 -0.571492E-01  0.774E-01    0.08       1.0  T
  13   -222.1530295 -0.284500E+00  0.260E-01    0.02       1.0  T
  14   -222.0859163  0.671132E-01  0.420E-01    0.03       1.0  T
  15   -222.1107619 -0.248456E-01  0.370E-01    0.07       1.0  T
  16   -222.0205118  0.902501E-01  0.538E-01    0.03       1.0  T
  17   -222.1867919 -0.166280E+00  0.742E-02    0.00       1.0  T
  18   -222.1845466  0.224529E-02  0.958E-02    0.03       1.0  T
  19   -222.1787405  0.580615E-02  0.138E-01    0.00       1.0  T
  20   -222.1899292 -0.111888E-01  0.248E-02    0.01       1.0  T
  21   -222.1901284 -0.199215E-03  0.171E-02    0.02       1.0  T
  22   -222.1902288 -0.100388E-03  0.774E-03    0.02       1.2  T
  23   -222.1902448 -0.159662E-04  0.476E-03    0.01       1.9  T
  24   -222.1901953  0.494937E-04  0.102E-02    0.02       1.0  T
  25   -222.1902555 -0.602274E-04  0.187E-03    0.01       4.8  T
  26   -222.1902568 -0.122022E-05  0.111E-03    0.01       8.0  T
  27   -222.1902572 -0.450828E-06  0.568E-04    0.01      15.7  T
  28   -222.1902567  0.537241E-06  0.115E-03    0.01       7.8  T
  29   -222.1902571 -0.439849E-06  0.691E-04    0.01      12.9  T
  30   -222.1902574 -0.258462E-06  0.804E-05    0.01     110.8  T
  31   -222.1902574  0.696650E-08  0.131E-04    0.01      67.9  T
     SCC iter.                  ...        0 min,  1.196 sec
     gradient                   ...        0 min,  0.181 sec
 * total energy  :  -218.1703250 Eh     change       -0.6225450E+00 Eh
   gradient norm :     0.6070892 Eh/α   predicted    -0.6947921E+00 (  11.61%)
   displ. norm   :     0.5185529 α      lambda       -0.2422548E+00
   maximum displ.:     0.1454099 α      in ANC's #217, #216, #182, ...

........................................................................
.............................. CYCLE    3 ..............................
........................................................................
   1   -221.9430948 -0.221943E+03  0.917E-01    0.21       0.0  T
   2   -220.3887230  0.155437E+01  0.232E+00    0.03       1.0  T
   3   -221.0937876 -0.705065E+00  0.165E+00    0.09       1.0  T
   4   -221.7724513 -0.678664E+00  0.113E+00    0.14       1.0  T
   5   -221.7081949  0.642564E-01  0.114E+00    0.16       1.0  T
   6   -221.8231839 -0.114989E+00  0.927E-01    0.14       1.0  T
   7   -221.8309574 -0.777347E-02  0.803E-01    0.01       1.0  T
   8   -221.9785757 -0.147618E+00  0.684E-01    0.09       1.0  T
   9   -222.0326391 -0.540634E-01  0.548E-01    0.01       1.0  T
  10   -221.9524344  0.802047E-01  0.874E-01    0.13       1.0  T
  11   -222.0658815 -0.113447E+00  0.573E-01    0.07       1.0  T
  12   -222.1458473 -0.799658E-01  0.437E-01    0.01       1.0  T
  13   -222.2439630 -0.981157E-01  0.232E-01    0.02       1.0  T
  14   -222.2540156 -0.100526E-01  0.172E-01    0.01       1.0  T
  15   -222.2474818  0.653374E-02  0.179E-01    0.02       1.0  T
  16   -222.2422895  0.519236E-02  0.237E-01    0.02       1.0  T
  17   -222.2639661 -0.216766E-01  0.832E-02    0.01       1.0  T
  18   -222.2631354  0.830723E-03  0.894E-02    0.01       1.0  T
  19   -222.2663936 -0.325824E-02  0.329E-02    0.00       1.0  T
  20   -222.2669264 -0.532734E-03  0.130E-02    0.01       1.0  T
  21   -222.2669493 -0.229433E-04  0.111E-02    0.01       1.0  T
  22   -222.2669291  0.201954E-04  0.125E-02    0.01       1.0  T
  23   -222.2669925 -0.634200E-04  0.740E-03    0.01       1.2  T
  24   -222.2670149 -0.223730E-04  0.392E-03    0.01       2.3  T
  25   -222.2670211 -0.615549E-05  0.186E-03    0.01       4.8  T
  26   -222.2670214 -0.333643E-06  0.191E-03    0.01       4.7  T
  27   -222.2670225 -0.115352E-05  0.895E-04    0.01      10.0  T
  28   -222.2670227 -0.138184E-06  0.680E-04    0.01      13.1  T
  29   -222.2670228 -0.161379E-06  0.286E-04    0.01      31.1  T
  30   -222.2670228  0.115764E-08  0.244E-04    0.01      36.5  T
  31   -222.2670229 -0.295515E-07  0.100E-04    0.01      89.0  T
  32   -222.2670229 -0.171906E-08  0.652E-05    0.01     136.7  T
     SCC iter.                  ...        0 min,  1.127 sec
     gradient                   ...        0 min,  0.192 sec
 * total energy  :  -218.3468860 Eh     change       -0.1765610E+00 Eh
   gradient norm :     0.2706522 Eh/α   predicted    -0.1536982E+00 ( -12.95%)
   displ. norm   :     0.5960086 α      lambda       -0.1163705E+00
   maximum displ.:     0.1738645 α      in ANC's #104, #97, #110, ...

........................................................................
.............................. CYCLE    4 ..............................
........................................................................
   1   -222.0872946 -0.222087E+03  0.777E-01    0.30       0.0  T
   2   -220.8515840  0.123571E+01  0.214E+00    0.11       1.0  T
   3   -220.0613929  0.790191E+00  0.209E+00    0.05       1.0  T
   4   -221.5208067 -0.145941E+01  0.138E+00    0.14       1.0  T
   5   -221.9596734 -0.438867E+00  0.108E+00    0.02       1.0  T
   6   -222.2513121 -0.291639E+00  0.409E-01    0.00       1.0  T
   7   -222.1766345  0.746775E-01  0.601E-01    0.16       1.0  T
   8   -222.1783292 -0.169461E-02  0.576E-01    0.03       1.0  T
   9   -222.2735678 -0.952386E-01  0.410E-01    0.06       1.0  T
  10   -222.3023031 -0.287353E-01  0.275E-01    0.02       1.0  T
  11   -222.2823407  0.199624E-01  0.298E-01    0.01       1.0  T
  12   -222.3015296 -0.191888E-01  0.250E-01    0.02       1.0  T
  13   -222.3083704 -0.684083E-02  0.216E-01    0.01       1.0  T
  14   -222.3217791 -0.134087E-01  0.137E-01    0.01       1.0  T
  15   -222.3214134  0.365664E-03  0.140E-01    0.01       1.0  T
  16   -222.3297458 -0.833236E-02  0.716E-02    0.02       1.0  T
  17   -222.3314489 -0.170312E-02  0.418E-02    0.03       1.0  T
  18   -222.3323557 -0.906815E-03  0.166E-02    0.03       1.0  T
  19   -222.3322898  0.658782E-04  0.205E-02    0.03       1.0  T
  20   -222.3323848 -0.949563E-04  0.150E-02    0.03       1.0  T
  21   -222.3324450 -0.601867E-04  0.115E-02    0.03       1.0  T
  22   -222.3325106 -0.656696E-04  0.472E-03    0.03       1.9  T
  23   -222.3325208 -0.101551E-04  0.238E-03    0.03       3.7  T
  24   -222.3325239 -0.314636E-05  0.577E-04    0.03      15.4  T
  25   -222.3325241 -0.132303E-06  0.275E-04    0.03      32.4  T
  26   -222.3325240  0.666894E-07  0.508E-04    0.03      17.5  T
  27   -222.3325241 -0.108723E-06  0.105E-04    0.03      84.5  T
  28   -222.3325241 -0.377690E-08  0.672E-05    0.03     132.5  T
     SCC iter.                  ...        0 min,  0.989 sec
     gradient                   ...        0 min,  0.187 sec
 * total energy  :  -218.4231204 Eh     change       -0.7623434E-01 Eh
   gradient norm :     0.1207361 Eh/α   predicted    -0.7885466E-01 (   3.44%)
   displ. norm   :     0.5608388 α      lambda       -0.3685558E-01
   maximum displ.:     0.2069501 α      in ANC's #104, #97, #73, ...

........................................................................
.............................. CYCLE    5 ..............................
........................................................................
   1   -222.2241303 -0.222224E+03  0.562E-01    0.20       0.0  T
   2   -221.1701065  0.105402E+01  0.187E+00    0.08       1.0  T
   3   -220.5228536  0.647253E+00  0.188E+00    0.02       1.0  T
   4   -221.8584205 -0.133557E+01  0.106E+00    0.15       1.0  T
   5   -221.9784909 -0.120070E+00  0.102E+00    0.04       1.0  T
   6   -222.2348109 -0.256320E+00  0.536E-01    0.03       1.0  T
   7   -222.3432335 -0.108423E+00  0.158E-01    0.02       1.0  T
   8   -222.3427160  0.517447E-03  0.169E-01    0.05       1.0  T
   9   -222.3395580  0.315802E-02  0.200E-01    0.06       1.0  T
  10   -222.3512952 -0.117372E-01  0.116E-01    0.05       1.0  T
  11   -222.3515958 -0.300647E-03  0.931E-02    0.02       1.0  T
  12   -222.3541401 -0.254424E-02  0.742E-02    0.04       1.0  T
  13   -222.3545870 -0.446913E-03  0.722E-02    0.04       1.0  T
  14   -222.3548397 -0.252738E-03  0.670E-02    0.04       1.0  T
  15   -222.3555568 -0.717059E-03  0.365E-02    0.04       1.0  T
  16   -222.3559069 -0.350158E-03  0.264E-02    0.04       1.0  T
  17   -222.3561578 -0.250870E-03  0.172E-02    0.04       1.0  T
  18   -222.3562427 -0.849001E-04  0.109E-02    0.04       1.0  T
  19   -222.3562775 -0.348331E-04  0.872E-03    0.04       1.0  T
  20   -222.3562840 -0.652087E-05  0.795E-03    0.04       1.1  T
  21   -222.3563028 -0.187997E-04  0.441E-03    0.04       2.0  T
  22   -222.3563108 -0.798359E-05  0.422E-04    0.04      21.1  T
  23   -222.3563108 -0.154934E-07  0.380E-04    0.04      23.4  T
  24   -222.3563109 -0.410179E-07  0.249E-04    0.04      35.7  T
  25   -222.3563109 -0.283129E-07  0.526E-05    0.04     169.3  T
  26   -222.3563109 -0.108372E-08  0.210E-05    0.04     423.3  T
     SCC iter.                  ...        0 min,  0.945 sec
     gradient                   ...        0 min,  0.189 sec
 * total energy  :  -218.4480716 Eh     change       -0.2495121E-01 Eh
   gradient norm :     0.0790325 Eh/α   predicted    -0.2422410E-01 (  -2.91%)
   displ. norm   :     0.5381785 α      lambda       -0.1794611E-01
   maximum displ.:     0.2004459 α      in ANC's #104, #97, #73, ...

........................................................................
.............................. CYCLE    6 ..............................
........................................................................
   1   -222.3110109 -0.222311E+03  0.350E-01    0.16       0.0  T
   2   -221.4618780  0.849133E+00  0.154E+00    0.03       1.0  T
   3   -221.2715171  0.190361E+00  0.146E+00    0.13       1.0  T
   4   -222.1894411 -0.917924E+00  0.700E-01    0.01       1.0  T
   5   -222.2627334 -0.732923E-01  0.463E-01    0.02       1.0  T
   6   -222.3005851 -0.378517E-01  0.362E-01    0.01       1.0  T
   7   -222.3551987 -0.546136E-01  0.152E-01    0.04       1.0  T
   8   -222.3569086 -0.170989E-02  0.134E-01    0.06       1.0  T
   9   -222.3622257 -0.531714E-02  0.633E-02    0.05       1.0  T
  10   -222.3504337  0.117921E-01  0.157E-01    0.02       1.0  T
  11   -222.3586500 -0.821629E-02  0.921E-02    0.04       1.0  T
  12   -222.3610487 -0.239876E-02  0.662E-02    0.04       1.0  T
  13   -222.3624277 -0.137895E-02  0.450E-02    0.04       1.0  T
  14   -222.3633999 -0.972240E-03  0.126E-02    0.05       1.0  T
  15   -222.3633853  0.146683E-04  0.134E-02    0.05       1.0  T
  16   -222.3634364 -0.511402E-04  0.857E-03    0.05       1.0  T
  17   -222.3634597 -0.233446E-04  0.486E-03    0.05       1.8  T
  18   -222.3634679 -0.814611E-05  0.261E-03    0.05       3.4  T
  19   -222.3634710 -0.308617E-05  0.866E-04    0.05      10.3  T
  20   -222.3634713 -0.369026E-06  0.815E-05    0.05     109.2  T
  21   -222.3634713  0.391481E-09  0.101E-04    0.05      87.8  T
     SCC iter.                  ...        0 min,  0.861 sec
     gradient                   ...        0 min,  0.189 sec
 * total energy  :  -218.4599839 Eh     change       -0.1191231E-01 Eh
   gradient norm :     0.0665456 Eh/α   predicted    -0.1157199E-01 (  -2.86%)
   displ. norm   :     0.5319284 α      lambda       -0.9115310E-02
   maximum displ.:     0.2560488 α      in ANC's #40, #37, #11, ...

........................................................................
.............................. CYCLE    7 ..............................
........................................................................
   1   -222.3450516 -0.222345E+03  0.211E-01    0.15       0.0  T
   2   -221.5075647  0.837487E+00  0.141E+00    0.05       1.0  T
   3   -221.8773522 -0.369787E+00  0.939E-01    0.19       1.0  T
   4   -222.3175515 -0.440199E+00  0.330E-01    0.01       1.0  T
   5   -222.3498883 -0.323368E-01  0.201E-01    0.03       1.0  T
   6   -222.3632169 -0.133286E-01  0.823E-02    0.05       1.0  T
   7   -222.3640404 -0.823464E-03  0.620E-02    0.08       1.0  T
   8   -222.3649823 -0.941904E-03  0.548E-02    0.05       1.0  T
   9   -222.3659774 -0.995156E-03  0.316E-02    0.07       1.0  T
  10   -222.3662950 -0.317586E-03  0.883E-03    0.07       1.0  T
  11   -222.3663009 -0.583280E-05  0.733E-03    0.07       1.2  T
  12   -222.3663163 -0.153982E-04  0.431E-03    0.07       2.1  T
  13   -222.3663103  0.595353E-05  0.497E-03    0.07       1.8  T
  14   -222.3663166 -0.630772E-05  0.445E-03    0.07       2.0  T
  15   -222.3663215 -0.483737E-05  0.280E-03    0.07       3.2  T
  16   -222.3663249 -0.340870E-05  0.642E-04    0.07      13.9  T
  17   -222.3663250 -0.151216E-06  0.225E-04    0.07      39.5  T
  18   -222.3663250 -0.203584E-07  0.101E-04    0.07      88.4  T
  19   -222.3663250 -0.180529E-08  0.753E-05    0.07     118.3  T
     SCC iter.                  ...        0 min,  0.689 sec
     gradient                   ...        0 min,  0.188 sec
 * total energy  :  -218.4665049 Eh     change       -0.6521007E-02 Eh
   gradient norm :     0.0360832 Eh/α   predicted    -0.5847237E-02 ( -10.33%)
   displ. norm   :     0.6581166 α      lambda       -0.6932928E-02
   maximum displ.:     0.3537091 α      in ANC's #40, #37, #11, ...

........................................................................
.............................. CYCLE    8 ..............................
........................................................................
   1   -222.3376551 -0.222338E+03  0.133E-01    0.14       0.0  T
   2   -222.0283055  0.309350E+00  0.774E-01    0.01       1.0  T
   3   -222.2824297 -0.254124E+00  0.361E-01    0.01       1.0  T
   4   -222.2902509 -0.782120E-02  0.334E-01    0.02       1.0  T
   5   -222.3438935 -0.536427E-01  0.955E-02    0.06       1.0  T
   6   -222.3455123 -0.161880E-02  0.805E-02    0.09       1.0  T
   7   -222.3454606  0.517189E-04  0.623E-02    0.08       1.0  T
   8   -222.3476631 -0.220252E-02  0.109E-02    0.08       1.0  T
   9   -222.3476235  0.396007E-04  0.106E-02    0.08       1.0  T
  10   -222.3476840 -0.604844E-04  0.301E-03    0.08       3.0  T
  11   -222.3476869 -0.286482E-05  0.159E-03    0.08       5.6  T
  12   -222.3476874 -0.486293E-06  0.134E-03    0.08       6.6  T
  13   -222.3476878 -0.431254E-06  0.944E-04    0.08       9.4  T
  14   -222.3476882 -0.395495E-06  0.384E-04    0.08      23.2  T
  15   -222.3476883 -0.487205E-07  0.240E-04    0.08      37.2  T
  16   -222.3476883 -0.285320E-07  0.467E-05    0.08     190.6  T
  17   -222.3476883 -0.820449E-09  0.213E-05    0.08     418.2  T
     SCC iter.                  ...        0 min,  0.611 sec
     gradient                   ...        0 min,  0.189 sec
 * total energy  :  -218.4712995 Eh     change       -0.4794581E-02 Eh
   gradient norm :     0.0322168 Eh/α   predicted    -0.4967857E-02 (   3.61%)
   displ. norm   :     0.7731803 α      lambda       -0.9166058E-02
   maximum displ.:     0.4235598 α      in ANC's #40, #37, #11, ...

........................................................................
.............................. CYCLE    9 ..............................
........................................................................
   1   -222.3107605 -0.222311E+03  0.150E-01    0.16       0.0  T
   2   -221.8896101  0.421150E+00  0.899E-01    0.07       1.0  T
   3   -222.0495888 -0.159979E+00  0.726E-01    0.05       1.0  T
   4   -222.2677295 -0.218141E+00  0.406E-01    0.21       1.0  T
   5   -222.3162636 -0.485341E-01  0.131E-01    0.13       1.0  T
   6   -222.3041914  0.120722E-01  0.169E-01    0.05       1.0  T
   7   -222.2988287  0.536270E-02  0.190E-01    0.04       1.0  T
   8   -222.3199276 -0.210989E-01  0.606E-02    0.12       1.0  T
   9   -222.3210610 -0.113341E-02  0.391E-02    0.11       1.0  T
  10   -222.3218114 -0.750397E-03  0.177E-02    0.10       1.0  T
  11   -222.3219659 -0.154534E-03  0.690E-03    0.10       1.3  T
  12   -222.3219943 -0.283868E-04  0.258E-03    0.10       3.5  T
  13   -222.3219861  0.818371E-05  0.440E-03    0.10       2.0  T
  14   -222.3219950 -0.883626E-05  0.226E-03    0.10       3.9  T
  15   -222.3219971 -0.214795E-05  0.103E-03    0.10       8.7  T
  16   -222.3219978 -0.656887E-06  0.196E-04    0.10      45.4  T
  17   -222.3219978 -0.168453E-07  0.118E-04    0.10      75.8  T
     SCC iter.                  ...        0 min,  0.602 sec
     gradient                   ...        0 min,  0.183 sec
 * total energy  :  -218.4779526 Eh     change       -0.6653193E-02 Eh
   gradient norm :     0.0323525 Eh/α   predicted    -0.7322808E-02 (  10.06%)
   displ. norm   :     0.7953104 α      lambda       -0.8406272E-02
   maximum displ.:     0.4304056 α      in ANC's #40, #37, #11, ...

........................................................................
.............................. CYCLE   10 ..............................
........................................................................
   1   -222.2868003 -0.222287E+03  0.136E-01    0.19       0.0  T
   2   -221.9319387  0.354862E+00  0.785E-01    0.01       1.0  T
   3   -222.2542477 -0.322309E+00  0.368E-01    0.24       1.0  T
   4   -222.2912864 -0.370387E-01  0.111E-01    0.14       1.0  T
   5   -222.2911890  0.974705E-04  0.112E-01    0.15       1.0  T
   6   -222.2907768  0.412203E-03  0.875E-02    0.08       1.0  T
   7   -222.2699435  0.208332E-01  0.197E-01    0.06       1.0  T
   8   -222.2952561 -0.253126E-01  0.284E-02    0.13       1.0  T
   9   -222.2954238 -0.167644E-03  0.213E-02    0.12       1.0  T
  10   -222.2956574 -0.233633E-03  0.881E-03    0.11       1.0  T
  11   -222.2956928 -0.354272E-04  0.324E-03    0.11       2.7  T
  12   -222.2956945 -0.171130E-05  0.264E-03    0.12       3.4  T
  13   -222.2956986 -0.402489E-05  0.706E-04    0.12      12.6  T
  14   -222.2956987 -0.115923E-06  0.509E-04    0.12      17.5  T
  15   -222.2956988 -0.141426E-06  0.129E-04    0.12      69.2  T
  16   -222.2956988  0.226445E-07  0.211E-04    0.11      42.1  T
  17   -222.2956988 -0.250170E-07  0.732E-05    0.12     121.7  T
     SCC iter.                  ...        0 min,  0.602 sec
     gradient                   ...        0 min,  0.193 sec
 * total energy  :  -218.4871754 Eh     change       -0.9222742E-02 Eh
   gradient norm :     0.0330729 Eh/α   predicted    -0.6861700E-02 ( -25.60%)
   displ. norm   :     0.8302198 α      lambda       -0.1133121E-01
   maximum displ.:     0.4302736 α      in ANC's #40, #11, #37, ...

........................................................................
.............................. CYCLE   11 ..............................
........................................................................
   1   -222.2678898 -0.222268E+03  0.114E-01    0.26       0.0  T
   2   -221.7250683  0.542822E+00  0.958E-01    0.16       1.0  T
   3   -222.2451667 -0.520098E+00  0.309E-01    0.12       1.0  T
   4   -222.2704694 -0.253027E-01  0.935E-02    0.24       1.0  T
   5   -222.2710017 -0.532258E-03  0.864E-02    0.18       1.0  T
   6   -222.2725813 -0.157963E-02  0.587E-02    0.17       1.0  T
   7   -222.2727759 -0.194621E-03  0.439E-02    0.12       1.0  T
   8   -222.2730401 -0.264230E-03  0.379E-02    0.12       1.0  T
   9   -222.2733365 -0.296336E-03  0.290E-02    0.13       1.0  T
  10   -222.2738133 -0.476841E-03  0.963E-03    0.14       1.0  T
  11   -222.2738445 -0.311826E-04  0.402E-03    0.14       2.2  T
  12   -222.2738523 -0.781354E-05  0.925E-04    0.15       9.6  T
  13   -222.2738527 -0.360803E-06  0.480E-04    0.15      18.6  T
  14   -222.2738528 -0.827253E-07  0.220E-04    0.15      40.4  T
  15   -222.2738528 -0.178327E-07  0.824E-05    0.15     108.1  T
  16   -222.2738528 -0.191778E-08  0.389E-05    0.15     229.1  T
     SCC iter.                  ...        0 min,  0.569 sec
     gradient                   ...        0 min,  0.186 sec
 * total energy  :  -218.5006946 Eh     change       -0.1351918E-01 Eh
   gradient norm :     0.0431665 Eh/α   predicted    -0.9570719E-02 ( -29.21%)
   displ. norm   :     0.8467576 α      lambda       -0.1743090E-01
   maximum displ.:     0.3971723 α      in ANC's #37, #40, #11, ...

........................................................................
.............................. CYCLE   12 ..............................
........................................................................
   1   -222.2412647 -0.222241E+03  0.990E-02    0.35       0.0  T
   2   -222.1710976  0.701671E-01  0.369E-01    0.04       1.0  T
   3   -222.2385511 -0.674535E-01  0.150E-01    0.45       1.0  T
   4   -222.2440344 -0.548327E-02  0.540E-02    0.33       1.0  T
   5   -222.2442930 -0.258654E-03  0.495E-02    0.27       1.0  T
   6   -222.2449232 -0.630182E-03  0.215E-02    0.19       1.0  T
   7   -222.2416879  0.323531E-02  0.733E-02    0.13       1.0  T
   8   -222.2448321 -0.314422E-02  0.175E-02    0.18       1.0  T
   9   -222.2449821 -0.149946E-03  0.232E-03    0.19       3.8  T
  10   -222.2449830 -0.959058E-06  0.140E-03    0.20       6.4  T
  11   -222.2449834 -0.383292E-06  0.757E-04    0.20      11.8  T
  12   -222.2449836 -0.157934E-06  0.276E-04    0.20      32.3  T
  13   -222.2449836 -0.148768E-07  0.194E-04    0.20      45.9  T
  14   -222.2449836 -0.592314E-08  0.164E-04    0.20      54.3  T
     SCC iter.                  ...        0 min,  0.569 sec
     gradient                   ...        0 min,  0.187 sec
 * total energy  :  -218.5217071 Eh     change       -0.2101256E-01 Eh
   gradient norm :     0.0552347 Eh/α   predicted    -0.1496443E-01 ( -28.78%)
   displ. norm   :     0.8607958 α      lambda       -0.2662287E-01
   maximum displ.:     0.4162086 α      in ANC's #40, #11, #37, ...

........................................................................
.............................. CYCLE   13 ..............................
........................................................................
   1   -222.2163196 -0.222216E+03  0.886E-02    0.50       0.0  T
   2   -222.2136789  0.264073E-02  0.163E-01    0.35       1.0  T
   3   -222.2185087 -0.482984E-02  0.427E-02    0.37       1.0  T
   4   -222.2184012  0.107578E-03  0.366E-02    0.40       1.0  T
   5   -222.2186450 -0.243822E-03  0.105E-02    0.38       1.0  T
   6   -222.2186605 -0.154770E-04  0.611E-03    0.38       1.5  T
   7   -222.2186685 -0.808959E-05  0.151E-03    0.38       5.9  T
   8   -222.2186693 -0.728627E-06  0.822E-04    0.38      10.8  T
   9   -222.2186694 -0.104656E-06  0.223E-04    0.38      40.0  T
  10   -222.2186694 -0.580977E-08  0.149E-04    0.38      59.8  T
  11   -222.2186694 -0.396250E-08  0.454E-05    0.38     196.4  T
     SCC iter.                  ...        0 min,  0.392 sec
     gradient                   ...        0 min,  0.189 sec
 * total energy  :  -218.5527178 Eh     change       -0.3101067E-01 Eh
   gradient norm :     0.0696988 Eh/α   predicted    -0.2317481E-01 ( -25.27%)
   displ. norm   :     0.8724238 α      lambda       -0.3761876E-01
   maximum displ.:     0.3999598 α      in ANC's #37, #11, #40, ...

........................................................................
.............................. CYCLE   14 ..............................
........................................................................
   1   -222.1919962 -0.222192E+03  0.813E-02    0.85       0.0  T
   2   -222.1916041  0.392176E-03  0.108E-01    0.82       1.0  T
   3   -222.1934791 -0.187503E-02  0.331E-02    0.83       1.0  T
   4   -222.1934256  0.535048E-04  0.218E-02    0.86       1.0  T
   5   -222.1934984 -0.728220E-04  0.987E-03    0.85       1.0  T
   6   -222.1935162 -0.177962E-04  0.310E-03    0.86       2.9  T
   7   -222.1935187 -0.248793E-05  0.989E-04    0.85       9.0  T
   8   -222.1935189 -0.252481E-06  0.519E-04    0.86      17.2  T
   9   -222.1935190 -0.423046E-07  0.226E-04    0.86      39.5  T
  10   -222.1935190 -0.137998E-07  0.104E-04    0.85      86.0  T
  11   -222.1935190 -0.306287E-08  0.252E-05    0.85     353.7  T
     SCC iter.                  ...        0 min,  0.394 sec
     gradient                   ...        0 min,  0.183 sec
 * total energy  :  -218.5937690 Eh     change       -0.4105120E-01 Eh
   gradient norm :     0.0785897 Eh/α   predicted    -0.3312569E-01 ( -19.31%)
   displ. norm   :     0.8878601 α      lambda       -0.4574437E-01
   maximum displ.:     0.4099976 α      in ANC's #40, #11, #37, ...

........................................................................
.............................. CYCLE   15 ..............................
........................................................................
   1   -222.1755479 -0.222176E+03  0.786E-02    1.13       0.0  T
   2   -222.1758573 -0.309408E-03  0.853E-02    1.13       1.0  T
   3   -222.1765605 -0.703286E-03  0.361E-02    1.13       1.0  T
   4   -222.1764761  0.844771E-04  0.189E-02    1.13       1.0  T
   5   -222.1765499 -0.737960E-04  0.888E-03    1.12       1.0  T
   6   -222.1765744 -0.245398E-04  0.225E-03    1.12       4.0  T
   7   -222.1765754 -0.104202E-05  0.660E-04    1.13      13.5  T
   8   -222.1765755 -0.595348E-07  0.276E-04    1.13      32.2  T
   9   -222.1765755 -0.960793E-08  0.159E-04    1.13      55.9  T
  10   -222.1765755 -0.504710E-08  0.712E-05    1.13     125.1  T
     SCC iter.                  ...        0 min,  0.360 sec
     gradient                   ...        0 min,  0.182 sec
 * total energy  :  -218.6393364 Eh     change       -0.4556735E-01 Eh
   gradient norm :     0.0765665 Eh/α   predicted    -0.4090227E-01 ( -10.24%)
   displ. norm   :     0.9394100 α      lambda       -0.5311321E-01
   maximum displ.:     0.3924882 α      in ANC's #44, #11, #37, ...

........................................................................
.............................. CYCLE   16 ..............................
........................................................................
   1   -222.1534063 -0.222153E+03  0.956E-02    1.05       0.0  T
   2   -222.1539843 -0.578023E-03  0.102E-01    1.05       1.0  T
   3   -222.1547456 -0.761248E-03  0.462E-02    1.05       1.0  T
   4   -222.1545055  0.240039E-03  0.291E-02    1.05       1.0  T
   5   -222.1547450 -0.239433E-03  0.742E-03    1.05       1.2  T
   6   -222.1547657 -0.207124E-04  0.273E-03    1.05       3.3  T
   7   -222.1547674 -0.175446E-05  0.795E-04    1.05      11.2  T
   8   -222.1547675 -0.111292E-06  0.322E-04    1.05      27.6  T
   9   -222.1547676 -0.217691E-07  0.138E-04    1.05      64.6  T
  10   -222.1547676 -0.438035E-08  0.561E-05    1.05     158.9  T
     SCC iter.                  ...        0 min,  0.358 sec
     gradient                   ...        0 min,  0.185 sec
 * total energy  :  -218.6757307 Eh     change       -0.3639439E-01 Eh
   gradient norm :     0.1176198 Eh/α   predicted    -0.4999262E-01 (  37.36%)
   displ. norm   :     0.7227966 α      lambda       -0.3928418E-01
   maximum displ.:     0.3568572 α      in ANC's #40, #11, #44, ...

........................................................................
.............................. CYCLE   17 ..............................
........................................................................
   1   -222.1751219 -0.222175E+03  0.529E-02    1.07       0.0  T
   2   -222.1752526 -0.130669E-03  0.552E-02    1.07       1.0  T
   3   -222.1754371 -0.184485E-03  0.272E-02    1.07       1.0  T
   4   -222.1753603  0.767613E-04  0.178E-02    1.07       1.0  T
   5   -222.1754339 -0.736273E-04  0.433E-03    1.07       2.1  T
   6   -222.1754416 -0.769918E-05  0.875E-04    1.07      10.2  T
   7   -222.1754418 -0.139269E-06  0.450E-04    1.07      19.8  T
   8   -222.1754418 -0.550687E-07  0.183E-04    1.07      48.8  T
   9   -222.1754418 -0.105783E-07  0.900E-05    1.07      99.0  T
     SCC iter.                  ...        0 min,  0.319 sec
     gradient                   ...        0 min,  0.188 sec
 * total energy  :  -218.7064535 Eh     change       -0.3072278E-01 Eh
   gradient norm :     0.0887777 Eh/α   predicted    -0.2990382E-01 (  -2.67%)
   displ. norm   :     0.7722240 α      lambda       -0.4864413E-01
   maximum displ.:     0.3780077 α      in ANC's #37, #11, #44, ...

........................................................................
.............................. CYCLE   18 ..............................
........................................................................
   1   -222.2310550 -0.222231E+03  0.608E-02    1.09       0.0  T
   2   -222.2312865 -0.231509E-03  0.569E-02    1.09       1.0  T
   3   -222.2315124 -0.225894E-03  0.279E-02    1.09       1.0  T
   4   -222.2313529  0.159545E-03  0.233E-02    1.09       1.0  T
   5   -222.2315176 -0.164763E-03  0.451E-03    1.09       2.0  T
   6   -222.2315216 -0.393489E-05  0.111E-03    1.09       8.0  T
   7   -222.2315217 -0.169630E-06  0.573E-04    1.09      15.5  T
   8   -222.2315218 -0.100387E-06  0.268E-04    1.09      33.2  T
   9   -222.2315219 -0.274754E-07  0.791E-05    1.09     112.6  T
  10   -222.2315219 -0.113744E-08  0.347E-05    1.09     256.5  T
     SCC iter.                  ...        0 min,  0.358 sec
     gradient                   ...        0 min,  0.184 sec
 * total energy  :  -218.7317422 Eh     change       -0.2528867E-01 Eh
   gradient norm :     0.0835463 Eh/α   predicted    -0.3882605E-01 (  53.53%)
   displ. norm   :     0.8183642 α      lambda       -0.2976213E-01
   maximum displ.:     0.4270313 α      in ANC's #11, #40, #44, ...

........................................................................
.............................. CYCLE   19 ..............................
........................................................................
   1   -222.2457576 -0.222246E+03  0.535E-02    1.05       0.0  T
   2   -222.2459186 -0.160963E-03  0.513E-02    1.06       1.0  T
   3   -222.2461124 -0.193824E-03  0.237E-02    1.06       1.0  T
   4   -222.2459827  0.129684E-03  0.212E-02    1.06       1.0  T
   5   -222.2461156 -0.132851E-03  0.401E-03    1.06       2.2  T
   6   -222.2461201 -0.449363E-05  0.904E-04    1.06       9.9  T
   7   -222.2461202 -0.117149E-06  0.377E-04    1.06      23.6  T
   8   -222.2461202 -0.330723E-07  0.202E-04    1.06      44.1  T
   9   -222.2461202 -0.147181E-07  0.674E-05    1.06     132.2  T
  10   -222.2461202 -0.143859E-08  0.242E-05    1.06     367.9  T
     SCC iter.                  ...        0 min,  0.358 sec
     gradient                   ...        0 min,  0.184 sec
 * total energy  :  -218.7496633 Eh     change       -0.1792111E-01 Eh
   gradient norm :     0.0844246 Eh/α   predicted    -0.2484722E-01 (  38.65%)
   displ. norm   :     0.6243768 α      lambda       -0.2710462E-01
   maximum displ.:     0.3403756 α      in ANC's #11, #12, #182, ...

........................................................................
.............................. CYCLE   20 ..............................
........................................................................
   1   -222.2941181 -0.222294E+03  0.520E-02    1.03       0.0  T
   2   -222.2943752 -0.257047E-03  0.455E-02    1.03       1.0  T
   3   -222.2945080 -0.132791E-03  0.221E-02    1.03       1.0  T
   4   -222.2944692  0.387282E-04  0.125E-02    1.03       1.0  T
   5   -222.2945065 -0.372851E-04  0.418E-03    1.03       2.1  T
   6   -222.2945103 -0.375056E-05  0.101E-03    1.03       8.9  T
   7   -222.2945107 -0.464761E-06  0.367E-04    1.03      24.3  T
   8   -222.2945108 -0.381619E-07  0.125E-04    1.03      71.1  T
   9   -222.2945108 -0.292434E-08  0.510E-05    1.03     174.6  T
     SCC iter.                  ...        0 min,  0.371 sec
     gradient                   ...        0 min,  0.198 sec
 * total energy  :  -218.7625310 Eh     change       -0.1286774E-01 Eh
   gradient norm :     0.0832798 Eh/α   predicted    -0.1883552E-01 (  46.38%)
   displ. norm   :     0.6269043 α      lambda       -0.2073387E-01
   maximum displ.:     0.3943890 α      in ANC's #11, #12, #44, ...
 * RMSD in coord.:     0.9640705 α      energy gain  -0.1214751E+01 Eh

generating ANC from model Hessian ...
Using Lindh-Hessian (1995)
 Shifting diagonal of input Hessian by    9.9980329332506022E-003
 Lowest  eigenvalues of input Hessian
    0.000000    0.000000    0.000000    0.000000    0.000000    0.000000
    0.010000    0.010002    0.010011    0.010019    0.010021    0.010028
    0.010032    0.010035    0.010038    0.010045    0.010104    0.010137
 Highest eigenvalues
    2.213842    2.216739    2.422462    2.496055    2.618013    2.689457


........................................................................
.............................. CYCLE   21 ..............................
........................................................................
   1   -222.3327357 -0.222333E+03  0.376E-02    1.02       0.0  T
   2   -222.3328240 -0.883212E-04  0.329E-02    1.02       1.0  T
   3   -222.3329198 -0.957653E-04  0.143E-02    1.02       1.0  T
   4   -222.3328755  0.442781E-04  0.133E-02    1.02       1.0  T
   5   -222.3329236 -0.480699E-04  0.321E-03    1.02       2.8  T
   6   -222.3329256 -0.202042E-05  0.697E-04    1.02      12.8  T
   7   -222.3329257 -0.812796E-07  0.342E-04    1.02      26.1  T
   8   -222.3329257 -0.336526E-07  0.168E-04    1.02      53.2  T
   9   -222.3329257 -0.103040E-07  0.603E-05    1.02     147.6  T
     SCC iter.                  ...        0 min,  0.402 sec
     gradient                   ...        0 min,  0.233 sec
 * total energy  :  -218.7768251 Eh     change       -0.1429409E-01 Eh
   gradient norm :     0.0483876 Eh/α   predicted     0.0000000E+00 (-100.00%)
   displ. norm   :     0.6249141 α      lambda       -0.1261310E-01
   maximum displ.:     0.5284623 α      in ANC's #18, #65, #22, ...

........................................................................
.............................. CYCLE   22 ..............................
........................................................................
   1   -222.3609445 -0.222361E+03  0.148E-02    1.02       0.0  T
   2   -222.3609576 -0.131383E-04  0.107E-02    1.02       1.0  T
   3   -222.3609616 -0.400252E-05  0.555E-03    1.02       1.6  T
   4   -222.3609592  0.248194E-05  0.385E-03    1.02       2.3  T
   5   -222.3609625 -0.338854E-05  0.130E-03    1.02       6.9  T
   6   -222.3609631 -0.597649E-06  0.335E-04    1.02      26.6  T
   7   -222.3609632 -0.228984E-07  0.124E-04    1.02      71.7  T
   8   -222.3609632 -0.220930E-08  0.475E-05    1.02     187.7  T
     SCC iter.                  ...        0 min,  0.356 sec
     gradient                   ...        0 min,  0.231 sec
 * total energy  :  -218.7880027 Eh     change       -0.1117760E-01 Eh
   gradient norm :     0.0336235 Eh/α   predicted    -0.8773674E-02 ( -21.51%)
   displ. norm   :     0.8260403 α      lambda       -0.1400991E-01
   maximum displ.:     0.6719576 α      in ANC's #18, #65, #22, ...

........................................................................
.............................. CYCLE   23 ..............................
........................................................................
   1   -222.3854165 -0.222385E+03  0.183E-02    1.00       0.0  T
   2   -222.3854408 -0.243078E-04  0.137E-02    1.00       1.0  T
   3   -222.3854514 -0.106425E-04  0.677E-03    1.00       1.3  T
   4   -222.3854486  0.280792E-05  0.443E-03    1.00       2.0  T
   5   -222.3854511 -0.247410E-05  0.180E-03    1.00       4.9  T
   6   -222.3854526 -0.148853E-05  0.508E-04    1.00      17.5  T
   7   -222.3854526 -0.626716E-07  0.211E-04    1.00      42.2  T
   8   -222.3854526 -0.657315E-08  0.121E-04    1.00      73.3  T
   9   -222.3854526 -0.561923E-08  0.349E-05    1.00     255.4  T
     SCC iter.                  ...        0 min,  0.399 sec
     gradient                   ...        0 min,  0.231 sec
 * total energy  :  -218.7980648 Eh     change       -0.1006206E-01 Eh
   gradient norm :     0.0329123 Eh/α   predicted    -0.1178475E-01 (  17.12%)
   displ. norm   :     0.8103101 α      lambda       -0.1457919E-01
   maximum displ.:     0.6752074 α      in ANC's #18, #65, #22, ...

........................................................................
.............................. CYCLE   24 ..............................
........................................................................
   1   -222.4073402 -0.222407E+03  0.156E-02    0.97       0.0  T
   2   -222.4073548 -0.146325E-04  0.108E-02    0.97       1.0  T
   3   -222.4073609 -0.607815E-05  0.576E-03    0.97       1.5  T
   4   -222.4073598  0.110338E-05  0.361E-03    0.97       2.5  T
   5   -222.4073614 -0.161256E-05  0.139E-03    0.97       6.4  T
   6   -222.4073623 -0.883414E-06  0.456E-04    0.97      19.5  T
   7   -222.4073624 -0.754252E-07  0.175E-04    0.97      51.0  T
   8   -222.4073624 -0.508146E-08  0.794E-05    0.97     112.2  T
     SCC iter.                  ...        0 min,  0.354 sec
     gradient                   ...        0 min,  0.242 sec
 * total energy  :  -218.8068790 Eh     change       -0.8814222E-02 Eh
   gradient norm :     0.0402291 Eh/α   predicted    -0.1207596E-01 (  37.01%)
   displ. norm   :     0.7160931 α      lambda       -0.1117430E-01
   maximum displ.:     0.6162053 α      in ANC's #18, #65, #16, ...

........................................................................
.............................. CYCLE   25 ..............................
........................................................................
   1   -222.4316229 -0.222432E+03  0.100E-02    0.96       0.0  T
   2   -222.4316297 -0.683516E-05  0.776E-03    0.96       1.1  T
   3   -222.4316351 -0.541976E-05  0.366E-03    0.96       2.4  T
   4   -222.4316344  0.740506E-06  0.212E-03    0.96       4.2  T
   5   -222.4316350 -0.633039E-06  0.101E-03    0.96       8.9  T
   6   -222.4316355 -0.430229E-06  0.264E-04    0.96      33.7  T
   7   -222.4316355 -0.223505E-07  0.866E-05    0.96     102.8  T
   8   -222.4316355 -0.694712E-09  0.524E-05    0.96     170.0  T
     SCC iter.                  ...        0 min,  0.349 sec
     gradient                   ...        0 min,  0.223 sec
 * total energy  :  -218.8145005 Eh     change       -0.7621496E-02 Eh
   gradient norm :     0.0383127 Eh/α   predicted    -0.8452186E-02 (  10.90%)
   displ. norm   :     0.6881018 α      lambda       -0.1055716E-01
   maximum displ.:     0.6038716 α      in ANC's #18, #22, #17, ...

........................................................................
.............................. CYCLE   26 ..............................
........................................................................
   1   -222.4618549 -0.222462E+03  0.117E-02    0.95       0.0  T
   2   -222.4618637 -0.876207E-05  0.958E-03    0.96       1.0  T
   3   -222.4618736 -0.997459E-05  0.423E-03    0.96       2.1  T
   4   -222.4618699  0.369967E-05  0.393E-03    0.96       2.3  T
   5   -222.4618744 -0.448435E-05  0.122E-03    0.96       7.3  T
   6   -222.4618747 -0.256906E-06  0.337E-04    0.96      26.4  T
   7   -222.4618747 -0.345118E-07  0.148E-04    0.96      60.1  T
   8   -222.4618747 -0.759272E-08  0.615E-05    0.96     144.8  T
     SCC iter.                  ...        0 min,  0.336 sec
     gradient                   ...        0 min,  0.200 sec
 * total energy  :  -218.8225825 Eh     change       -0.8082009E-02 Eh
   gradient norm :     0.0219469 Eh/α   predicted    -0.7777906E-02 (  -3.76%)
   displ. norm   :     0.7229598 α      lambda       -0.8857796E-02
   maximum displ.:     0.6747159 α      in ANC's #18, #22, #26, ...

........................................................................
.............................. CYCLE   27 ..............................
........................................................................
   1   -222.4877144 -0.222488E+03  0.973E-03    0.95       0.0  T
   2   -222.4877208 -0.636453E-05  0.670E-03    0.95       1.3  T
   3   -222.4877265 -0.571276E-05  0.281E-03    0.95       3.2  T
   4   -222.4877258  0.716805E-06  0.287E-03    0.95       3.1  T
   5   -222.4877280 -0.215213E-05  0.795E-04    0.95      11.2  T
   6   -222.4877280 -0.672953E-07  0.362E-04    0.95      24.6  T
   7   -222.4877281 -0.468027E-07  0.128E-04    0.95      69.7  T
   8   -222.4877281 -0.481754E-08  0.489E-05    0.95     182.3  T
     SCC iter.                  ...        0 min,  0.347 sec
     gradient                   ...        0 min,  0.190 sec
 * total energy  :  -218.8295387 Eh     change       -0.6956195E-02 Eh
   gradient norm :     0.0222221 Eh/α   predicted    -0.6743753E-02 (  -3.05%)
   displ. norm   :     0.6917819 α      lambda       -0.8568901E-02
   maximum displ.:     0.6298279 α      in ANC's #18, #22, #15, ...

........................................................................
.............................. CYCLE   28 ..............................
........................................................................
   1   -222.5067078 -0.222507E+03  0.870E-03    0.95       0.0  T
   2   -222.5067122 -0.444223E-05  0.570E-03    0.95       1.6  T
   3   -222.5067155 -0.333477E-05  0.280E-03    0.95       3.2  T
   4   -222.5067154  0.132194E-06  0.231E-03    0.95       3.9  T
   5   -222.5067166 -0.118192E-05  0.681E-04    0.95      13.1  T
   6   -222.5067167 -0.102195E-06  0.185E-04    0.95      48.2  T
   7   -222.5067167 -0.645764E-08  0.889E-05    0.95     100.2  T
     SCC iter.                  ...        0 min,  0.291 sec
     gradient                   ...        0 min,  0.199 sec
 * total energy  :  -218.8352854 Eh     change       -0.5746690E-02 Eh
   gradient norm :     0.0281621 Eh/α   predicted    -0.6334835E-02 (  10.23%)
   displ. norm   :     0.6622794 α      lambda       -0.9066086E-02
   maximum displ.:     0.5756913 α      in ANC's #18, #16, #15, ...

........................................................................
.............................. CYCLE   29 ..............................
........................................................................
   1   -222.5181341 -0.222518E+03  0.673E-03    0.95       0.0  T
   2   -222.5181359 -0.173580E-05  0.536E-03    0.95       1.7  T
   3   -222.5181400 -0.419455E-05  0.234E-03    0.95       3.8  T
   4   -222.5181396  0.439606E-06  0.197E-03    0.95       4.5  T
   5   -222.5181405 -0.871968E-06  0.681E-04    0.95      13.1  T
   6   -222.5181406 -0.138985E-06  0.237E-04    0.95      37.6  T
   7   -222.5181406 -0.168195E-07  0.748E-05    0.95     119.1  T
   8   -222.5181406 -0.144664E-08  0.386E-05    0.95     230.9  T
     SCC iter.                  ...        0 min,  0.343 sec
     gradient                   ...        0 min,  0.226 sec
 * total energy  :  -218.8408277 Eh     change       -0.5542316E-02 Eh
   gradient norm :     0.0250302 Eh/α   predicted    -0.6521302E-02 (  17.66%)
   displ. norm   :     0.6213873 α      lambda       -0.8205778E-02
   maximum displ.:     0.5338754 α      in ANC's #18, #22, #12, ...

........................................................................
.............................. CYCLE   30 ..............................
........................................................................
   1   -222.5321568 -0.222532E+03  0.672E-03    0.94       0.0  T
   2   -222.5321592 -0.242674E-05  0.504E-03    0.94       1.8  T
   3   -222.5321609 -0.170447E-05  0.258E-03    0.94       3.4  T
   4   -222.5321599  0.979375E-06  0.191E-03    0.94       4.7  T
   5   -222.5321610 -0.108973E-05  0.617E-04    0.94      14.4  T
   6   -222.5321612 -0.169940E-06  0.211E-04    0.94      42.3  T
   7   -222.5321612 -0.124940E-07  0.623E-05    0.94     143.0  T
   8   -222.5321612 -0.504400E-09  0.371E-05    0.94     240.1  T
     SCC iter.                  ...        0 min,  0.365 sec
     gradient                   ...        0 min,  0.195 sec
 * total energy  :  -218.8465601 Eh     change       -0.5732412E-02 Eh
   gradient norm :     0.0222022 Eh/α   predicted    -0.5687102E-02 (  -0.79%)
   displ. norm   :     0.6284343 α      lambda       -0.7111934E-02
   maximum displ.:     0.5812203 α      in ANC's #18, #22, #13, ...

........................................................................
.............................. CYCLE   31 ..............................
........................................................................
   1   -222.5510714 -0.222551E+03  0.635E-03    0.94       0.0  T
   2   -222.5510732 -0.177880E-05  0.428E-03    0.94       2.1  T
   3   -222.5510734 -0.210722E-06  0.246E-03    0.94       3.6  T
   4   -222.5510733  0.140313E-06  0.158E-03    0.94       5.7  T
   5   -222.5510739 -0.584864E-06  0.529E-04    0.94      16.9  T
   6   -222.5510740 -0.116504E-06  0.165E-04    0.94      53.9  T
   7   -222.5510740 -0.839597E-08  0.689E-05    0.94     129.3  T
     SCC iter.                  ...        0 min,  0.303 sec
     gradient                   ...        0 min,  0.196 sec
 * total energy  :  -218.8521977 Eh     change       -0.5637613E-02 Eh
   gradient norm :     0.0196594 Eh/α   predicted    -0.4960326E-02 ( -12.01%)
   displ. norm   :     0.6355633 α      lambda       -0.6398547E-02
   maximum displ.:     0.5904533 α      in ANC's #18, #22, #13, ...

........................................................................
.............................. CYCLE   32 ..............................
........................................................................
   1   -222.5705889 -0.222571E+03  0.715E-03    0.95       0.0  T
   2   -222.5705926 -0.365483E-05  0.512E-03    0.95       1.7  T
   3   -222.5705948 -0.226664E-05  0.255E-03    0.95       3.5  T
   4   -222.5705946  0.265321E-06  0.207E-03    0.95       4.3  T
   5   -222.5705954 -0.824320E-06  0.854E-04    0.95      10.4  T
   6   -222.5705956 -0.191803E-06  0.251E-04    0.95      35.4  T
   7   -222.5705956 -0.130180E-07  0.958E-05    0.95      93.0  T
   8   -222.5705956 -0.126130E-08  0.599E-05    0.95     148.6  T
     SCC iter.                  ...        0 min,  0.358 sec
     gradient                   ...        0 min,  0.212 sec
 * total energy  :  -218.8575763 Eh     change       -0.5378537E-02 Eh
   gradient norm :     0.0182230 Eh/α   predicted    -0.4491591E-02 ( -16.49%)
   displ. norm   :     0.6417536 α      lambda       -0.5887032E-02
   maximum displ.:     0.6004101 α      in ANC's #18, #22, #65, ...

........................................................................
.............................. CYCLE   33 ..............................
........................................................................
   1   -222.5884621 -0.222588E+03  0.946E-03    0.94       0.0  T
   2   -222.5884702 -0.814423E-05  0.577E-03    0.94       1.5  T
   3   -222.5884738 -0.363840E-05  0.272E-03    0.94       3.3  T
   4   -222.5884742 -0.403826E-06  0.195E-03    0.94       4.6  T
   5   -222.5884747 -0.475302E-06  0.101E-03    0.94       8.8  T
   6   -222.5884750 -0.242719E-06  0.306E-04    0.94      29.1  T
   7   -222.5884750 -0.184831E-07  0.113E-04    0.94      78.8  T
   8   -222.5884750 -0.690676E-09  0.546E-05    0.94     163.1  T
     SCC iter.                  ...        0 min,  0.350 sec
     gradient                   ...        0 min,  0.201 sec
 * total energy  :  -218.8628951 Eh     change       -0.5318778E-02 Eh
   gradient norm :     0.0180077 Eh/α   predicted    -0.4155810E-02 ( -21.87%)
   displ. norm   :     0.6497548 α      lambda       -0.5700636E-02
   maximum displ.:     0.6093951 α      in ANC's #18, #22, #65, ...

........................................................................
.............................. CYCLE   34 ..............................
........................................................................
   1   -222.6035156 -0.222604E+03  0.109E-02    0.94       0.0  T
   2   -222.6035275 -0.118756E-04  0.587E-03    0.94       1.5  T
   3   -222.6035317 -0.421397E-05  0.298E-03    0.94       3.0  T
   4   -222.6035328 -0.114362E-05  0.179E-03    0.94       5.0  T
   5   -222.6035331 -0.258131E-06  0.996E-04    0.94       8.9  T
   6   -222.6035333 -0.243803E-06  0.365E-04    0.94      24.4  T
   7   -222.6035333 -0.271163E-07  0.135E-04    0.94      66.0  T
   8   -222.6035333 -0.790010E-09  0.591E-05    0.94     150.8  T
     SCC iter.                  ...        0 min,  0.357 sec
     gradient                   ...        0 min,  0.203 sec
 * total energy  :  -218.8680153 Eh     change       -0.5120200E-02 Eh
   gradient norm :     0.0133292 Eh/α   predicted    -0.4053676E-02 ( -20.83%)
   displ. norm   :     0.6657250 α      lambda       -0.5558148E-02
   maximum displ.:     0.6240236 α      in ANC's #18, #22, #65, ...

........................................................................
.............................. CYCLE   35 ..............................
........................................................................
   1   -222.6171686 -0.222617E+03  0.113E-02    0.93       0.0  T
   2   -222.6171805 -0.118736E-04  0.600E-03    0.93       1.5  T
   3   -222.6171849 -0.437113E-05  0.307E-03    0.93       2.9  T
   4   -222.6171860 -0.115846E-05  0.178E-03    0.93       5.0  T
   5   -222.6171862 -0.150861E-06  0.964E-04    0.93       9.2  T
   6   -222.6171864 -0.246754E-06  0.416E-04    0.93      21.4  T
   7   -222.6171865 -0.401315E-07  0.146E-04    0.93      60.9  T
   8   -222.6171865 -0.616211E-09  0.780E-05    0.93     114.3  T
     SCC iter.                  ...        0 min,  0.358 sec
     gradient                   ...        0 min,  0.203 sec
 * total energy  :  -218.8727082 Eh     change       -0.4692900E-02 Eh
   gradient norm :     0.0149501 Eh/α   predicted    -0.4010725E-02 ( -14.54%)
   displ. norm   :     0.6405709 α      lambda       -0.4948841E-02
   maximum displ.:     0.5991982 α      in ANC's #18, #22, #16, ...

........................................................................
.............................. CYCLE   36 ..............................
........................................................................
   1   -222.6333958 -0.222633E+03  0.953E-03    0.93       0.0  T
   2   -222.6334033 -0.755304E-05  0.575E-03    0.93       1.5  T
   3   -222.6334074 -0.403419E-05  0.283E-03    0.93       3.2  T
   4   -222.6334081 -0.666227E-06  0.163E-03    0.93       5.5  T
   5   -222.6334082 -0.139320E-06  0.708E-04    0.93      12.6  T
   6   -222.6334083 -0.669515E-07  0.302E-04    0.93      29.5  T
   7   -222.6334083 -0.224179E-07  0.145E-04    0.93      61.6  T
   8   -222.6334083 -0.521899E-08  0.505E-05    0.93     176.3  T
     SCC iter.                  ...        0 min,  0.349 sec
     gradient                   ...        0 min,  0.203 sec
 * total energy  :  -218.8772578 Eh     change       -0.4549642E-02 Eh
   gradient norm :     0.0138138 Eh/α   predicted    -0.3489759E-02 ( -23.30%)
   displ. norm   :     0.6417164 α      lambda       -0.4569573E-02
   maximum displ.:     0.6128939 α      in ANC's #18, #22, #16, ...

........................................................................
.............................. CYCLE   37 ..............................
........................................................................
   1   -222.6490919 -0.222649E+03  0.808E-03    0.93       0.0  T
   2   -222.6490973 -0.542665E-05  0.509E-03    0.93       1.7  T
   3   -222.6491007 -0.337739E-05  0.250E-03    0.93       3.6  T
   4   -222.6491011 -0.459371E-06  0.145E-03    0.93       6.2  T
   5   -222.6491012 -0.624988E-07  0.669E-04    0.93      13.3  T
   6   -222.6491013 -0.832082E-07  0.327E-04    0.93      27.3  T
   7   -222.6491013 -0.370658E-07  0.114E-04    0.93      78.0  T
   8   -222.6491013 -0.254732E-08  0.377E-05    0.93     236.3  T
     SCC iter.                  ...        0 min,  0.348 sec
     gradient                   ...        0 min,  0.206 sec
 * total energy  :  -218.8814062 Eh     change       -0.4148351E-02 Eh
   gradient norm :     0.0109926 Eh/α   predicted    -0.3225660E-02 ( -22.24%)
   displ. norm   :     0.6255809 α      lambda       -0.4229132E-02
   maximum displ.:     0.5829082 α      in ANC's #18, #22, #65, ...

........................................................................
.............................. CYCLE   38 ..............................
........................................................................
   1   -222.6635436 -0.222664E+03  0.640E-03    0.93       0.0  T
   2   -222.6635470 -0.336995E-05  0.428E-03    0.92       2.1  T
   3   -222.6635492 -0.224383E-05  0.202E-03    0.93       4.4  T
   4   -222.6635494 -0.186752E-06  0.122E-03    0.92       7.3  T
   5   -222.6635495 -0.921416E-07  0.418E-04    0.93      21.3  T
   6   -222.6635495 -0.197462E-07  0.168E-04    0.93      52.9  T
   7   -222.6635495 -0.524128E-08  0.925E-05    0.93      96.3  T
     SCC iter.                  ...        0 min,  0.289 sec
     gradient                   ...        0 min,  0.203 sec
 * total energy  :  -218.8852246 Eh     change       -0.3818468E-02 Eh
   gradient norm :     0.0106750 Eh/α   predicted    -0.2942110E-02 ( -22.95%)
   displ. norm   :     0.5900998 α      lambda       -0.3665923E-02
   maximum displ.:     0.5634874 α      in ANC's #18, #22, #19, ...

........................................................................
.............................. CYCLE   39 ..............................
........................................................................
   1   -222.6772863 -0.222677E+03  0.471E-03    0.92       0.0  T
   2   -222.6772879 -0.167073E-05  0.301E-03    0.92       3.0  T
   3   -222.6772887 -0.815157E-06  0.160E-03    0.92       5.6  T
   4   -222.6772888 -0.567985E-07  0.955E-04    0.92       9.3  T
   5   -222.6772889 -0.551444E-07  0.438E-04    0.92      20.3  T
   6   -222.6772889 -0.752030E-07  0.186E-04    0.92      47.8  T
   7   -222.6772889 -0.127586E-07  0.551E-05    0.92     161.7  T
     SCC iter.                  ...        0 min,  0.272 sec
     gradient                   ...        0 min,  0.203 sec
 * total energy  :  -218.8887128 Eh     change       -0.3488138E-02 Eh
   gradient norm :     0.0098436 Eh/α   predicted    -0.2471218E-02 ( -29.15%)
   displ. norm   :     0.5359609 α      lambda       -0.3219565E-02
   maximum displ.:     0.5155016 α      in ANC's #18, #22, #19, ...

........................................................................
.............................. CYCLE   40 ..............................
........................................................................
   1   -222.6896001 -0.222690E+03  0.371E-03    0.92       0.0  T
   2   -222.6896011 -0.963911E-06  0.220E-03    0.92       4.0  T
   3   -222.6896015 -0.415607E-06  0.128E-03    0.92       6.9  T
   4   -222.6896014  0.182332E-07  0.832E-04    0.92      10.7  T
   5   -222.6896016 -0.167643E-06  0.304E-04    0.92      29.3  T
   6   -222.6896017 -0.365566E-07  0.861E-05    0.92     103.5  T
   7   -222.6896017 -0.131868E-08  0.460E-05    0.92     193.9  T
     SCC iter.                  ...        0 min,  0.268 sec
     gradient                   ...        0 min,  0.202 sec
 * total energy  :  -218.8917907 Eh     change       -0.3077892E-02 Eh
   gradient norm :     0.0081093 Eh/α   predicted    -0.2072201E-02 ( -32.67%)
   displ. norm   :     0.5171832 α      lambda       -0.2905295E-02
   maximum displ.:     0.4953680 α      in ANC's #18, #22, #19, ...

........................................................................
.............................. CYCLE   41 ..............................
........................................................................
   1   -222.7009447 -0.222701E+03  0.362E-03    0.92       0.0  T
   2   -222.7009458 -0.106619E-05  0.223E-03    0.92       4.0  T
   3   -222.7009465 -0.755700E-06  0.120E-03    0.92       7.5  T
   4   -222.7009466 -0.212555E-07  0.836E-04    0.92      10.7  T
   5   -222.7009467 -0.144160E-06  0.226E-04    0.92      39.4  T
   6   -222.7009467 -0.156802E-07  0.606E-05    0.92     147.1  T
   7   -222.7009467 -0.709349E-09  0.232E-05    0.92     384.3  T
     SCC iter.                  ...        0 min,  0.247 sec
     gradient                   ...        0 min,  0.187 sec
 * total energy  :  -218.8945818 Eh     change       -0.2791160E-02 Eh
   gradient norm :     0.0062954 Eh/α   predicted    -0.1841205E-02 ( -34.03%)
   displ. norm   :     0.5019144 α      lambda       -0.2623393E-02
   maximum displ.:     0.4815925 α      in ANC's #18, #22, #19, ...

........................................................................
.............................. CYCLE   42 ..............................
........................................................................
   1   -222.7121701 -0.222712E+03  0.347E-03    0.92       0.0  T
   2   -222.7121709 -0.766969E-06  0.216E-03    0.92       4.1  T
   3   -222.7121717 -0.760304E-06  0.123E-03    0.92       7.2  T
   4   -222.7121718 -0.113086E-06  0.824E-04    0.92      10.8  T
   5   -222.7121719 -0.118584E-06  0.176E-04    0.92      50.7  T
   6   -222.7121719 -0.959537E-08  0.671E-05    0.92     132.8  T
     SCC iter.                  ...        0 min,  0.205 sec
     gradient                   ...        0 min,  0.199 sec
 * total energy  :  -218.8971123 Eh     change       -0.2530433E-02 Eh
   gradient norm :     0.0055373 Eh/α   predicted    -0.1642136E-02 ( -35.10%)
   displ. norm   :     0.4847647 α      lambda       -0.2369288E-02
   maximum displ.:     0.4652927 α      in ANC's #18, #22, #19, ...
 * RMSD in coord.:     1.1848855 α      energy gain  -0.1345812E+00 Eh

generating ANC from model Hessian ...
Using Lindh-Hessian (1995)
 Shifting diagonal of input Hessian by    9.9966520341991071E-003
 Lowest  eigenvalues of input Hessian
    0.000000    0.000000    0.000000    0.000000    0.000000    0.000000
    0.010000    0.010003    0.010009    0.010017    0.010020    0.010021
    0.010027    0.010037    0.010043    0.010063    0.010178    0.010228
 Highest eigenvalues
    2.405141    2.405218    2.712902    2.712960    2.926958    2.927117


........................................................................
.............................. CYCLE   43 ..............................
........................................................................
   1   -222.7231639 -0.222723E+03  0.321E-03    0.92       0.0  T
   2   -222.7231643 -0.419383E-06  0.208E-03    0.92       4.3  T
   3   -222.7231649 -0.609604E-06  0.122E-03    0.92       7.3  T
   4   -222.7231651 -0.147644E-06  0.784E-04    0.92      11.4  T
   5   -222.7231652 -0.111670E-06  0.143E-04    0.92      62.3  T
   6   -222.7231652 -0.629623E-08  0.546E-05    0.92     163.0  T
     SCC iter.                  ...        0 min,  0.205 sec
     gradient                   ...        0 min,  0.187 sec
 * total energy  :  -218.8994051 Eh     change       -0.2292806E-02 Eh
   gradient norm :     0.0052937 Eh/α   predicted     0.0000000E+00 (-100.00%)
   displ. norm   :     0.3723901 α      lambda       -0.1752499E-02
   maximum displ.:     0.3322484 α      in ANC's #15, #16, #20, ...

........................................................................
.............................. CYCLE   44 ..............................
........................................................................
   1   -222.7333139 -0.222733E+03  0.253E-03    0.92       0.0  T
   2   -222.7333140 -0.159539E-06  0.159E-03    0.92       5.6  T
   3   -222.7333142 -0.145187E-06  0.102E-03    0.92       8.8  T
   4   -222.7333143 -0.130258E-06  0.567E-04    0.92      15.7  T
   5   -222.7333144 -0.699277E-07  0.171E-04    0.92      52.2  T
   6   -222.7333144 -0.642859E-08  0.585E-05    0.92     152.2  T
     SCC iter.                  ...        0 min,  0.208 sec
     gradient                   ...        0 min,  0.188 sec
 * total energy  :  -218.9011050 Eh     change       -0.1699922E-02 Eh
   gradient norm :     0.0053892 Eh/α   predicted    -0.9985047E-03 ( -41.26%)
   displ. norm   :     0.5344813 α      lambda       -0.2374593E-02
   maximum displ.:     0.4308062 α      in ANC's #15, #16, #20, ...

........................................................................
.............................. CYCLE   45 ..............................
........................................................................
   1   -222.7448729 -0.222745E+03  0.354E-03    0.91       0.0  T
   2   -222.7448733 -0.438938E-06  0.243E-03    0.91       3.7  T
   3   -222.7448740 -0.737842E-06  0.128E-03    0.91       6.9  T
   4   -222.7448742 -0.113196E-06  0.797E-04    0.91      11.2  T
   5   -222.7448743 -0.114547E-06  0.299E-04    0.91      29.8  T
   6   -222.7448743 -0.248108E-07  0.937E-05    0.91      95.0  T
   7   -222.7448743 -0.156513E-08  0.346E-05    0.91     257.5  T
     SCC iter.                  ...        0 min,  0.245 sec
     gradient                   ...        0 min,  0.199 sec
 * total energy  :  -218.9032942 Eh     change       -0.2189189E-02 Eh
   gradient norm :     0.0061457 Eh/α   predicted    -0.1526473E-02 ( -30.27%)
   displ. norm   :     0.6394629 α      lambda       -0.2860097E-02
   maximum displ.:     0.4968086 α      in ANC's #15, #16, #25, ...

........................................................................
.............................. CYCLE   46 ..............................
........................................................................
   1   -222.7566273 -0.222757E+03  0.434E-03    0.91       0.0  T
[...]
 ---------------------------------------------------------------------------
     1   6 C    3.930 --    23 C    1.364     2 C    1.349    25 H    0.972
     2   6 C    3.903 --     1 C    1.349     3 C    1.225     6 N    1.172
     3   6 C    3.954 --     4 C    1.602     2 C    1.225    26 H    0.977
     4   6 C    3.958 --     3 C    1.602     5 C    1.227    27 H    0.977
     5   6 C    3.897 --     7 C    1.342     4 C    1.227     6 N    1.175
     6   7 N    3.472 --     5 C    1.175     2 C    1.172    28 H    0.873
     7   6 C    3.945 --     8 C    1.380     5 C    1.342    29 H    0.971
     8   6 C    3.915 --     7 C    1.380    11 N    1.277     9 C    1.119
     9   6 C    3.965 --    10 C    1.717     8 C    1.119    30 H    0.976
    10   6 C    3.964 --     9 C    1.717    12 C    1.123    31 H    0.975
    11   7 N    3.026 --    12 C    1.354     8 C    1.277
    12   6 C    3.908 --    11 N    1.354    13 C    1.250    10 C    1.123
    13   6 C    3.942 --    14 C    1.252    12 C    1.250    75 C    1.196
    14   6 C    3.884 --    13 C    1.252    15 C    1.244    18 N    1.193
    15   6 C    3.959 --    16 C    1.590    14 C    1.244    32 H    0.975
    16   6 C    3.953 --    15 C    1.590    17 C    1.232    33 H    0.977
    17   6 C    3.898 --    19 C    1.351    16 C    1.232    18 N    1.161
    18   7 N    3.476 --    14 C    1.193    17 C    1.161    34 H    0.873
    19   6 C    3.929 --    20 C    1.363    17 C    1.351    35 H    0.971
    20   6 C    3.930 --    19 C    1.363    24 N    1.309    21 C    1.112
    21   6 C    3.967 --    22 C    1.730    20 C    1.112    36 H    0.976
    22   6 C    3.966 --    21 C    1.730    23 C    1.113    37 H    0.976
    23   6 C    3.929 --     1 C    1.364    24 N    1.307    22 C    1.113
    24   7 N    3.016 --    20 C    1.309    23 C    1.307
    25   1 H    1.002 --     1 C    0.972
    26   1 H    0.998 --     3 C    0.977
    27   1 H    0.998 --     4 C    0.977
    28   1 H    0.986 --     6 N    0.873
    29   1 H    1.002 --     7 C    0.971
    30   1 H    0.998 --     9 C    0.976
    31   1 H    1.002 --    10 C    0.975
    32   1 H    1.001 --    15 C    0.975
    33   1 H    0.998 --    16 C    0.977
    34   1 H    0.987 --    18 N    0.873
    35   1 H    1.002 --    19 C    0.971
    36   1 H    0.998 --    21 C    0.976
    37   1 H    0.998 --    22 C    0.976
    38   6 C    3.930 --    60 C    1.364    39 C    1.349    62 H    0.972
    39   6 C    3.903 --    38 C    1.349    40 C    1.225    43 N    1.172
    40   6 C    3.954 --    41 C    1.602    39 C    1.225    63 H    0.977
    41   6 C    3.958 --    40 C    1.602    42 C    1.227    64 H    0.977
    42   6 C    3.897 --    44 C    1.342    41 C    1.227    43 N    1.175
    43   7 N    3.472 --    42 C    1.175    39 C    1.172    65 H    0.873
    44   6 C    3.945 --    45 C    1.380    42 C    1.342    66 H    0.971
    45   6 C    3.915 --    44 C    1.380    48 N    1.277    46 C    1.119
    46   6 C    3.965 --    47 C    1.717    45 C    1.119    67 H    0.976
    47   6 C    3.964 --    46 C    1.717    49 C    1.123    68 H    0.975
    48   7 N    3.026 --    49 C    1.354    45 C    1.277
    49   6 C    3.908 --    48 N    1.354    50 C    1.250    47 C    1.123
    50   6 C    3.942 --    51 C    1.252    49 C    1.250    90 C    1.196
    51   6 C    3.884 --    50 C    1.252    52 C    1.244    55 N    1.193
    52   6 C    3.959 --    53 C    1.590    51 C    1.244    69 H    0.975
    53   6 C    3.953 --    52 C    1.590    54 C    1.232    70 H    0.977
    54   6 C    3.898 --    56 C    1.351    53 C    1.232    55 N    1.161
    55   7 N    3.476 --    51 C    1.193    54 C    1.161    71 H    0.873
    56   6 C    3.929 --    57 C    1.363    54 C    1.351    72 H    0.971
    57   6 C    3.930 --    56 C    1.363    61 N    1.309    58 C    1.112
    58   6 C    3.967 --    59 C    1.730    57 C    1.112    73 H    0.976
    59   6 C    3.966 --    58 C    1.730    60 C    1.113    74 H    0.976
    60   6 C    3.929 --    38 C    1.364    61 N    1.307    59 C    1.113
    61   7 N    3.016 --    57 C    1.309    60 C    1.307
    62   1 H    1.002 --    38 C    0.972
    63   1 H    0.998 --    40 C    0.977
    64   1 H    0.998 --    41 C    0.977
    65   1 H    0.986 --    43 N    0.873
    66   1 H    1.002 --    44 C    0.971
    67   1 H    0.998 --    46 C    0.976
    68   1 H    1.002 --    47 C    0.975
    69   1 H    1.001 --    52 C    0.975
    70   1 H    0.998 --    53 C    0.977
    71   1 H    0.987 --    55 N    0.873
    72   1 H    1.002 --    56 C    0.971
    73   1 H    0.998 --    58 C    0.976
    74   1 H    0.998 --    59 C    0.976
    75   6 C    3.876 --    76 C    2.434    13 C    1.196    78 C    0.186
    76   6 C    3.933 --    75 C    2.434    77 C    1.347
    77   6 C    3.891 --    78 C    2.331    76 C    1.347    80 C    0.182
    78   6 C    3.924 --    77 C    2.331    79 C    1.373    75 C    0.186
    79   6 C    3.922 --    80 C    2.330    78 C    1.373    82 C    0.186
    80   6 C    3.892 --    79 C    2.330    81 C    1.349    77 C    0.182
    81   6 C    3.929 --    82 C    2.431    80 C    1.349
    82   6 C    3.877 --    81 C    2.431    91 C    1.200    79 C    0.186
    83   6 C    3.877 --    84 C    2.431   103 C    1.200    86 C    0.186
    84   6 C    3.929 --    83 C    2.431    85 C    1.349
    85   6 C    3.892 --    86 C    2.330    84 C    1.349    88 C    0.182
    86   6 C    3.922 --    85 C    2.330    87 C    1.373    83 C    0.186
    87   6 C    3.924 --    88 C    2.331    86 C    1.373    90 C    0.186
    88   6 C    3.891 --    87 C    2.331    89 C    1.347    85 C    0.182
    89   6 C    3.933 --    90 C    2.435    88 C    1.347
    90   6 C    3.876 --    89 C    2.435    50 C    1.196    87 C    0.186
    91   6 C    3.929 --   113 C    1.249    92 C    1.247    82 C    1.200
    92   6 C    3.885 --    93 C    1.249    91 C    1.247    96 N    1.193
    93   6 C    3.956 --    94 C    1.583    92 C    1.249   115 H    0.975
    94   6 C    3.954 --    93 C    1.583    95 C    1.238   116 H    0.977
    95   6 C    3.894 --    97 C    1.339    94 C    1.238    96 N    1.163
    96   7 N    3.473 --    92 C    1.193    95 C    1.163   117 H    0.873
    97   6 C    3.932 --    98 C    1.382    95 C    1.339   118 H    0.971
    98   6 C    3.917 --    97 C    1.382   101 N    1.275    99 C    1.119
    99   6 C    3.965 --   100 C    1.717    98 C    1.119   119 H    0.976
   100   6 C    3.963 --    99 C    1.717   102 C    1.125   120 H    0.975
   101   7 N    3.014 --   102 C    1.353    98 C    1.275
   102   6 C    3.908 --   101 N    1.353   103 C    1.249   100 C    1.125
   103   6 C    3.929 --   102 C    1.249   104 C    1.247    83 C    1.200
   104   6 C    3.885 --   105 C    1.249   103 C    1.247   108 N    1.193
   105   6 C    3.956 --   106 C    1.583   104 C    1.249   121 H    0.975
   106   6 C    3.954 --   105 C    1.583   107 C    1.238   122 H    0.977
   107   6 C    3.894 --   109 C    1.339   106 C    1.238   108 N    1.163
   108   7 N    3.473 --   104 C    1.193   107 C    1.163   123 H    0.873
   109   6 C    3.932 --   110 C    1.382   107 C    1.339   124 H    0.971
   110   6 C    3.917 --   109 C    1.382   114 N    1.275   111 C    1.119
   111   6 C    3.965 --   112 C    1.717   110 C    1.119   125 H    0.976
   112   6 C    3.963 --   111 C    1.717   113 C    1.125   126 H    0.975
   113   6 C    3.908 --   114 N    1.353    91 C    1.249   112 C    1.125
   114   7 N    3.014 --   113 C    1.353   110 C    1.275
   115   1 H    1.001 --    93 C    0.975
   116   1 H    0.998 --    94 C    0.977
   117   1 H    0.986 --    96 N    0.873
   118   1 H    1.002 --    97 C    0.971
   119   1 H    0.998 --    99 C    0.976
   120   1 H    1.002 --   100 C    0.975
   121   1 H    1.001 --   105 C    0.975
   122   1 H    0.998 --   106 C    0.977
   123   1 H    0.986 --   108 N    0.873
   124   1 H    1.002 --   109 C    0.971
   125   1 H    0.998 --   111 C    0.976
   126   1 H    1.002 --   112 C    0.975
 ---------------------------------------------------------------------------

Topologies differ in total number of bonds
Writing topology from bond orders to xtbtopo.mol

 dipole moment from electron density (au)
     X       Y       Z   
  -0.0007  -0.0003  -0.0083  total (Debye):    0.021

           -------------------------------------------------
          |                Geometry Summary                 |
           -------------------------------------------------

      molecular mass/u    :     1119.1981154
   center of mass at/Å    :       29.4756647      -0.0030040      -0.0014571
  moments of inertia/u·Å² :        0.5638998E+04   0.2410520E+06   0.2465856E+06
rotational constants/cm⁻¹ :        0.2989473E-02   0.6993359E-04   0.6836423E-04

 * 126 selected distances

     #   Z          #   Z                                           value/Å
     1   6 C        2   6 C                                       1.3891203
     2   6 C        3   6 C                                       1.4245752
     3   6 C        4   6 C                                       1.3665393
     4   6 C        5   6 C                                       1.4246123
     2   6 C        6   7 N                                       1.3659050
     5   6 C        6   7 N                                       1.3648949
     5   6 C        7   6 C                                       1.3900796
     7   6 C        8   6 C                                       1.3873171
     8   6 C        9   6 C                                       1.4522489
     9   6 C       10   6 C                                       1.3490995
     8   6 C       11   7 N                                       1.3610625
    10   6 C       12   6 C                                       1.4519935
    11   7 N       12   6 C                                       1.3463583
    12   6 C       13   6 C                                       1.4108558
    13   6 C       14   6 C                                       1.4078927
    14   6 C       15   6 C                                       1.4211637
    15   6 C       16   6 C                                       1.3676287
    16   6 C       17   6 C                                       1.4230004
    14   6 C       18   7 N                                       1.3618430
    17   6 C       18   7 N                                       1.3689426
    17   6 C       19   6 C                                       1.3891228
    19   6 C       20   6 C                                       1.3894730
    21   6 C       22   6 C                                       1.3481531
     1   6 C       23   6 C                                       1.3897925
    20   6 C       24   7 N                                       1.3535935
    23   6 C       24   7 N                                       1.3544128
     1   6 C       25   1 H                                       1.0848618
     3   6 C       26   1 H                                       1.0784459
     4   6 C       27   1 H                                       1.0784864
     6   7 N       28   1 H                                       1.0144563 (min)
     7   6 C       29   1 H                                       1.0853379
     9   6 C       30   1 H                                       1.0787301
    10   6 C       31   1 H                                       1.0784294
    15   6 C       32   1 H                                       1.0782283
    16   6 C       33   1 H                                       1.0783402
    18   7 N       34   1 H                                       1.0146861
    19   6 C       35   1 H                                       1.0852578
    21   6 C       36   1 H                                       1.0789022
    22   6 C       37   1 H                                       1.0788791
    38   6 C       39   6 C                                       1.3891188
    39   6 C       40   6 C                                       1.4245805
    40   6 C       41   6 C                                       1.3665395
    41   6 C       42   6 C                                       1.4246095
    39   6 C       43   7 N                                       1.3659007
    42   6 C       43   7 N                                       1.3648976
    42   6 C       44   6 C                                       1.3900756
    44   6 C       45   6 C                                       1.3873148
    45   6 C       46   6 C                                       1.4522409
    46   6 C       47   6 C                                       1.3490936
    45   6 C       48   7 N                                       1.3610663
    47   6 C       49   6 C                                       1.4520075
    48   7 N       49   6 C                                       1.3463534
    49   6 C       50   6 C                                       1.4108742
    50   6 C       51   6 C                                       1.4078462
    51   6 C       52   6 C                                       1.4211656
    52   6 C       53   6 C                                       1.3676286
    53   6 C       54   6 C                                       1.4230074
    51   6 C       55   7 N                                       1.3618517
    54   6 C       55   7 N                                       1.3689378
    54   6 C       56   6 C                                       1.3891228
    56   6 C       57   6 C                                       1.3894767
    58   6 C       59   6 C                                       1.3481519
    38   6 C       60   6 C                                       1.3897912
    57   6 C       61   7 N                                       1.3535966
    60   6 C       61   7 N                                       1.3544126
    38   6 C       62   1 H                                       1.0848622
    40   6 C       63   1 H                                       1.0784460
    41   6 C       64   1 H                                       1.0784891
    43   7 N       65   1 H                                       1.0144586
    44   6 C       66   1 H                                       1.0853363
    46   6 C       67   1 H                                       1.0787285
    47   6 C       68   1 H                                       1.0784239
    52   6 C       69   1 H                                       1.0782320
    53   6 C       70   1 H                                       1.0783428
    55   7 N       71   1 H                                       1.0146860
    56   6 C       72   1 H                                       1.0852594
    58   6 C       73   1 H                                       1.0789042
    59   6 C       74   1 H                                       1.0788790
    75   6 C       76   6 C                                       1.2249710
    77   6 C       78   6 C                                       1.2311086
    79   6 C       80   6 C                                       1.2311847
    81   6 C       82   6 C                                       1.2251955
    83   6 C       84   6 C                                       1.2252039
    85   6 C       86   6 C                                       1.2311965
    87   6 C       88   6 C                                       1.2311044
    89   6 C       90   6 C                                       1.2249675
    91   6 C       92   6 C                                       1.4086540
    92   6 C       93   6 C                                       1.4199702
    93   6 C       94   6 C                                       1.3685528
    94   6 C       95   6 C                                       1.4219294
    92   6 C       96   7 N                                       1.3618907
    95   6 C       96   7 N                                       1.3680702
    95   6 C       97   6 C                                       1.3907524
    97   6 C       98   6 C                                       1.3864010
    98   6 C       99   6 C                                       1.4522389
    99   6 C      100   6 C                                       1.3492108
    98   6 C      101   7 N                                       1.3610284
   100   6 C      102   6 C                                       1.4513931
   101   7 N      102   6 C                                       1.3465015
   102   6 C      103   6 C                                       1.4107760
   103   6 C      104   6 C                                       1.4085990
   104   6 C      105   6 C                                       1.4199715
   105   6 C      106   6 C                                       1.3685504
   106   6 C      107   6 C                                       1.4219374
   104   6 C      108   7 N                                       1.3619002
   107   6 C      108   7 N                                       1.3680678
   107   6 C      109   6 C                                       1.3907501
   109   6 C      110   6 C                                       1.3864049
   110   6 C      111   6 C                                       1.4522516 (max)
   111   6 C      112   6 C                                       1.3492131
    91   6 C      113   6 C                                       1.4107459
   112   6 C      113   6 C                                       1.4513871
   110   6 C      114   7 N                                       1.3610280
   113   6 C      114   7 N                                       1.3465018
    93   6 C      115   1 H                                       1.0781916
    94   6 C      116   1 H                                       1.0783339
    96   7 N      117   1 H                                       1.0147372
    97   6 C      118   1 H                                       1.0855754
    99   6 C      119   1 H                                       1.0787213
   100   6 C      120   1 H                                       1.0784198
   105   6 C      121   1 H                                       1.0781959
   106   6 C      122   1 H                                       1.0783365
   108   7 N      123   1 H                                       1.0147358
   109   6 C      124   1 H                                       1.0855792
   111   6 C      125   1 H                                       1.0787239
   112   6 C      126   1 H                                       1.0784239

 * 4 distinct bonds (by element types)

   Z      Z             #   av. dist./Å        max./Å        min./Å
   1 H    6 C          32     1.0801970     1.0855792     1.0781916
   6 C    6 C          64     1.3798427     1.4522516     1.2249675
   1 H    7 N           6     1.0146267     1.0147372     1.0144563
   6 C    7 N          24     1.3595424     1.3689426     1.3463534


optimized geometry written to: xtbopt.xyz


           -------------------------------------------------
          | TOTAL ENERGY             -218.921699333734 Eh   |
          | GRADIENT NORM               0.000296279383 Eh/α |
          | HOMO-LUMO GAP               0.891272139743 eV   |
           -------------------------------------------------

------------------------------------------------------------------------
 * finished run on 2022/07/26 at 16:55:41.578     
------------------------------------------------------------------------
 total:
 * wall-time:     0 d,  0 h,  0 min, 56.021 sec
 *  cpu-time:     0 d,  0 h,  0 min, 55.704 sec
 * ratio c/w:     0.994 speedup
 SCF:
 * wall-time:     0 d,  0 h,  0 min,  2.486 sec
 *  cpu-time:     0 d,  0 h,  0 min,  2.472 sec
 * ratio c/w:     0.995 speedup
 ANC optimizer:
 * wall-time:     0 d,  0 h,  0 min, 53.417 sec
 *  cpu-time:     0 d,  0 h,  0 min, 53.120 sec
 * ratio c/w:     0.994 speedup

