380
 energy: -667.048450610859 gnorm: 0.000739105887 xtb: 6.5.1 (b24c23e)
C           75.02031080012627       -0.00606517982909       -0.08311242222039
C           75.62221970126330        0.99436244266771       -0.83765013312190
C           74.97205781488250        1.99915670611524       -1.60574542699690
C           75.93798055746144        2.77326467787165       -2.18813307965584
C           77.20362933616909        2.26318345170447       -1.79195025297021
N           76.96760590673965        1.19480180972540       -0.98109636050728
C           78.46988311063025        2.75422613641385       -2.15731111722972
C           78.48619559392355        3.87854326266519       -3.01238317804292
C           78.49136674530480        4.84541824478849       -3.74571649054490
C           78.50366897150664        5.97202567414347       -4.59933899724133
C           77.31318011986322        6.55551292619385       -5.04861915807375
C           77.37987832325811        7.65762612793991       -5.88219649086554
N           78.52772658081373        8.19783121874995       -6.28361021124520
C           79.66383360693219        7.64886036184319       -5.86103140587598
C           79.70670734508734        6.54640044309263       -5.02643433410894
C           79.70122918978571        2.22143869811780       -1.74204545701369
C           80.98146472513464        2.76681568469871       -2.14893680339607
C           81.92466746467325        2.00464374999198       -1.55649243141211
N           79.87832345891547        1.15522084740383       -0.92449528518121
C           81.21485075086835        0.99780665538810       -0.79125759855817
C           81.86810752963525        0.01402023006326       -0.02575395069759
C           81.24056653971299       -0.99132487516269        0.73528614527949
C           81.88414617247120       -1.99514367636452        1.50479657214344
C           80.91396116020138       -2.77379822994017        2.07611329979187
C           79.65289279830226       -2.26445445698896        1.67092471949060
N           79.89682335625638       -1.18969801977569        0.86426880066936
C           78.38794347592184       -2.76403216026007        2.02699709982623
C           78.36708870906655       -3.89616384266091        2.87001959339932
C           78.34750016063980       -4.87265620397069        3.59063841829839
C           78.31741273318964       -6.01058591376451        4.42818147564510
C           79.49787228307238       -6.61377342642112        4.87822432097827
C           79.41237710923163       -7.72699916274916        5.69509986386579
N           78.25548057315945       -8.26019756199327        6.07973729980693
C           77.12881481238857       -7.69257766296062        5.65636063050687
C           77.10467784115531       -6.57781154528845        4.83759096112927
C           77.15561300775309       -2.22841109635602        1.61110943219152
C           75.86875515078093       -2.77239745542633        2.00896077245377
C           74.93211728584262       -2.00055801033578        1.42099771479527
C           75.65005301278710       -0.98906902327955        0.66510164004952
N           76.99166857534091       -1.16027985711790        0.80581510281729
H           73.93507466927247       -0.01092567460974       -0.08749680732680
H           73.90268420268191        2.10570524250170       -1.69388614395740
H           75.79679565461400        3.62367641667116       -2.83580342455608
H           77.68810884992907        0.62876765670192       -0.54561401996606
H           76.35618709584618        6.14772426782402       -4.74609606601397
H           76.47191179124715        8.13031927000331       -6.24556069419273
H           80.58179399865294        8.11486883529131       -6.20727220719542
H           80.65454315956917        6.13131998467443       -4.70601295134238
H           81.11100991101260        3.61706869630083       -2.79934727585563
H           82.99772951206911        2.09263329026630       -1.61445647649624
H           82.95253030070106       -2.10116870284310        1.60206992187260
H           81.05147823874630       -3.62627467902584        2.72161749952415
H           79.17913809453977       -0.62347071149971        0.42397804894979
H           80.46164318779950       -6.21239339319576        4.58896732158457
H           80.31216657723220       -8.21500160949447        6.05859767180034
H           76.20293530077163       -8.15303334515407        5.98896267652095
H           76.16393297092158       -6.14759132154300        4.51594043735242
H           75.73362242772495       -3.62782560049192        2.65168668394880
H           73.85775616705230       -2.08156760628422        1.47320641610099
C          162.28573748744751       -0.10844031384010        0.03868589128576
C          161.67866338219326       -0.94629465691931        0.96715009451367
C          162.32330690126821       -1.80854620266014        1.89625063003819
C          161.35324464862080       -2.45113826404505        2.61571733913078
C          160.09061602628347       -1.99843078604763        2.14710531119710
N          160.33235994539456       -1.09549152035850        1.15671620379846
C          158.82165481913486       -2.39303797340379        2.60742605346573
C          158.79603137773788       -3.35364175158407        3.64282652824090
C          158.77701059045847       -4.18568491907879        4.52596925053081
C          158.74359114702935       -5.15808944167392        5.55132604259908
C          159.92179854594008       -5.68807270507633        6.09021043684740
C          159.83238201834266       -6.64025311690429        7.08990387472853
N          158.67371616418100       -7.08340073714713        7.57115482078003
C          157.54915029599360       -6.58423424272351        7.06435565248033
C          157.52902243258430       -5.62931777951542        6.06361761289560
C          157.59390188251871       -1.91549998962916        2.12065581903897
C          156.31089398673453       -2.34828376577285        2.63871808312039
C          155.37224953701008       -1.68599779410250        1.93036858746609
N          157.42289401284120       -1.01241350759376        1.12456795922726
C          156.08763507903586       -0.85366242479245        0.98240987603427
C          155.43902889078294       -0.02073209061434        0.05124570078705
C          156.07144275037584        0.80789190365522       -0.89597439629366
C          155.43313296883153        1.65318335259903       -1.84032654033848
C          156.40753298871397        2.28884608806381       -2.56191562966681
C          157.66590022716343        1.84753245857068       -2.07653460323511
N          157.41619466308234        0.95498194142621       -1.07334980703493
C          158.93379691884454        2.24851159374089       -2.53273567505133
C          158.96238919961814        3.19157466397135       -3.58280551748732
C          158.99127118872013        4.00277052602743       -4.48521852730299
C          159.03416850316120        4.94746806233355       -5.53545659121437
C          157.86105077914004        5.45253837711027       -6.10861872523834
C          157.95989879407023        6.37569180907365       -7.13424059823715
N          159.12307470028307        6.81362705301421       -7.60953250472093
C          160.24284767259766        6.33842694161400       -7.07000716946742
C          160.25359754699738        5.41337152512020       -6.04150940260038
C          160.16298187748512        1.78654251788489       -2.02832422874402
C          161.45297280317982        2.22802489674938       -2.52959655925871
C          162.38511038636972        1.56974294490377       -1.81092292047033
C          161.66139308789474        0.72863358658170       -0.87356045899712
N          160.32076973776807        0.88879025604981       -1.03562772050463
H          163.37093644771002       -0.11910884010954        0.03345723119797
H          163.39200309792744       -1.91532221020048        1.99200132001254
H          161.48964038853666       -3.17501017544140        3.40312763740937
H          159.61488424982775       -0.60483948440413        0.63356880955829
H          160.88693122629405       -5.35583710610362        5.72729171065095
H          160.73031764327192       -7.06879621388362        7.52560207462818
H          156.62172226225962       -6.96785491184962        7.47970886730800
H          156.58996350250055       -5.25004425926663        5.67925821396995
H          156.17635967876427       -3.06152255398027        3.43616181809749
H          154.29895285655883       -1.73754861656332        2.01918681087190
H          154.36526298350856        1.75599979604978       -1.94647399935273
H          156.27455227516901        3.00107302710636       -3.36027337808906
H          158.13093952079225        0.47263721439772       -0.53850927446889
H          156.89256965180053        5.12314593920908       -5.75202742874877
H          157.06607545574701        6.78391918894484       -7.59720071540245
H          161.17415938667531        6.71695258117979       -7.48142943564555
H          161.18909732972060        5.05275148367364       -5.63119482679992
H          161.59312204745973        2.94430932680261       -3.32357465952668
H          163.45989731812051        1.62527105393259       -1.88366352741053
C           87.07186733679453        0.01270408144572        0.03311317413385
C           85.84395344706677        0.02182500898131        0.01914798073897
C           84.49853981052036        0.02108862392784        0.00516345275797
C           83.27507737879799        0.02039104958869       -0.01097987608479
C           88.41709140130182       -0.00078235892958        0.04454614757366
C           89.64073644876387       -0.01041511819850        0.05130568431145
C          103.17001472738920       -0.08044672012529        0.03100682126817
C          101.94105326965925       -0.08032546801767        0.03449483758436
C          100.59723425455411       -0.08145441231426        0.03851653862787
C           99.37272055440049       -0.08451321273806        0.04031202928009
C          104.51380672402992       -0.08088010768475        0.02714603319915
C          105.73836302102229       -0.07956995026312        0.02823084099670
C          119.27029943570977       -0.02799595001989        0.01185095400210
C          118.04128210343193       -0.02406350077559        0.01129621202264
C          116.69752651339248       -0.02440582348153        0.01191548749678
C          115.47294305645080       -0.02949434967203        0.01122378869174
C          120.61404775610811       -0.03538693867353        0.01367870357926
C          121.83857640692935       -0.04626763717349        0.01802736565228
C          135.36884863401175       -0.03717775191531        0.02898099630687
C          134.13994435477079       -0.04835683991394        0.02801929733302
C          132.79629819702561       -0.06236543678183        0.02965073091226
C          131.57183667066471       -0.07515750900663        0.02609877932128
C          136.71256506443393       -0.03029839232953        0.03256318460724
C          137.93704278566668       -0.02811456012064        0.03860322134095
C          151.46373020859744       -0.01051442592268        0.05690192023250
C          150.23559288035398       -0.01844574744284        0.06036863766990
C          148.89067154224142       -0.02908555540964        0.06352063408420
C          147.66690037390788       -0.04136120174662        0.06283846192331
C          152.80880816803474       -0.00733333094725        0.05460647672061
C          154.03249679905917       -0.00958270497786        0.05294206907115
C           91.04676740039373       -0.03305340187172        0.05332018035844
C           91.67321010502015       -0.27442859908146       -1.18537793169584
C           91.03311539810434       -0.50829676667565       -2.42870723805202
C           92.00711709846165       -0.71409906599778       -3.36945289007884
C           93.26521253789880       -0.60809592732435       -2.72324118641323
N           93.01785555988990       -0.34106797998278       -1.40771435014730
C           94.53150014527694       -0.74920972149178       -3.32115623945150
C           94.53947007377404       -1.04529008283060       -4.70271728413135
C           94.54053466574456       -1.30961462557871       -5.88712612054525
C           94.54988950869981       -1.62228696474062       -7.26560496916099
C           95.75185256449922       -1.79732523555331       -7.96140471447035
C           95.70691194996760       -2.10622940025337       -9.30917573476698
N           94.56982833299402       -2.24704252982807       -9.98573227387455
C           93.42299490355713       -2.08185111825535       -9.33156513352439
C           93.35831421721929       -1.77182348130442       -7.98485151875459
C           95.76927087435767       -0.62394583183846       -2.67173570901518
C           97.04100752175177       -0.76398838154619       -3.35391042583612
C           97.99643535649362       -0.57388123121060       -2.41972369351072
N           95.96345640288997       -0.35845285295416       -1.35671272946677
C           97.30225532195523       -0.32304155288081       -1.17215778117391
C           97.96839486682532       -0.08646983828122        0.04552801303888
C           97.34110086824795        0.14405803563051        1.28664824819394
C           97.98088069522831        0.36932465032503        2.53161158543194
C           97.00637309446560        0.53664396138645        3.47953293720481
C           95.74821095224877        0.41961168939500        2.83531714356530
N           95.99649285040618        0.18358599378961        1.51363076221495
C           94.48181818684988        0.52756280319380        3.43917554802920
C           94.47222022868188        0.76354275121170        4.83215747667594
C           94.46813776267048        0.95998401444321        6.02971203817864
C           94.45652987655907        1.18616453219964        7.42495408013309
C           93.25350144182792        1.29235985175810        8.13278884422794
C           93.29661169004913        1.51117529091695        9.49816356996834
N           94.43286287028191        1.62741544310934       10.18079582803617
C           95.58073625014900        1.52799867020890        9.51513958480702
C           95.64725387780362        1.30979013351558        8.15063761150624
C           93.24375348714622        0.42305210880042        2.78531712821044
C           91.97179948133260        0.55865292216737        3.46831572362964
C           91.01670302832848        0.40669871491697        2.52689836555559
C           91.71099969424493        0.17633284601177        1.27552270732883
N           93.05054549604033        0.19252793816059        1.46445310494320
H           89.96529665098528       -0.51848129896303       -2.57611563265895
H           91.87231081903299       -0.92046106722499       -4.41895973373301
H           93.72976089827959       -0.21437702245812       -0.69602505519926
H           96.70038364223359       -1.69233878573138       -7.44883993202970
H           96.62403258856295       -2.24802480508806       -9.87357204256627
H           92.51436652483643       -2.20405627285691       -9.91399432880242
H           92.40226448643068       -1.64645895058907       -7.49113385581174
H           97.15747833089169       -0.97643276051303       -4.40461644124882
H           99.06815804379335       -0.59750481065461       -2.53540373167022
H           99.04882063377423        0.39692877591724        2.67588565959812
H           97.14085318343994        0.72543888714110        4.53238758918177
H           95.28477733117977        0.05405704974749        0.80225858791596
H           92.30553305010687        1.20353988577317        7.61608832582907
H           92.37864589911453        1.59723250720878       10.07242163709650
H           96.48867344177044        1.62768761149005       10.10301276211901
H           96.60405001695590        1.23499634774355        7.64807686237176
H           91.85502015736441        0.74614369521474        4.52371905260349
H           89.94501172965313        0.44107767877945        2.64022857856646
C          107.14258272462477       -0.08056952165740        0.02635838834265
C          107.77280614020393       -0.33135364843911       -1.20952407961887
C          107.13630677431456       -0.59076569575715       -2.44928446012130
C          108.11347337601165       -0.78602469179736       -3.38934262088980
C          109.36969084991337       -0.64851108724168       -2.74582699439375
N          109.11804983499781       -0.37444370440000       -1.43228167462353
C          110.63795943496746       -0.76822712420526       -3.34439334993605
C          110.65031708661942       -1.06736422237988       -4.72528825746188
C          110.65749871232289       -1.33073001101861       -5.90989537717611
C          110.67386255954266       -1.64002603899395       -7.28906965714696
C          111.87956131532893       -1.79866219071623       -7.98233159358680
C          111.84168259503240       -2.10355520419477       -9.33121693798838
N          110.70803247282102       -2.25525561984323      -10.01117486574653
C          109.55772673360094       -2.10576012304135       -9.35945558594181
C          109.48597922651662       -1.80115584060894       -8.01181806349293
C          111.87443441572294       -0.61916880963087       -2.69739485080740
C          113.14730224158318       -0.74447014428725       -3.38030735187659
C          114.10105484915547       -0.53841047988513       -2.44776268187406
N          112.06635272361537       -0.34469659798148       -1.38384239582147
C          113.40480039708184       -0.29103566522788       -1.20078001322026
C          114.06880244303004       -0.04048803563812        0.01528394669279
C          113.43866272483234        0.19529260826930        1.25417278251447
C          114.07520805194672        0.43913382366386        2.49706605557834
C          113.09817123619467        0.60781341793933        3.44237126412298
C          111.84195298873826        0.47243421228513        2.79838057292654
N          112.09350706641634        0.22497980179301        1.47951425397546
C          110.57384609939712        0.57492992589007        3.40038451091219
C          110.56221017248579        0.82729594476884        4.79058545323638
C          110.55684334459589        1.03733158383092        5.98581033442453
C          110.54430765924444        1.27878064269998        7.37849470799552
C          109.34084447866175        1.39136116250844        8.08462235765291
C          109.38313608038425        1.62545811977214        9.44746215750259
N          110.51901378364779        1.75059336374695       10.12918483840269
C          111.66724118471318        1.64516601245738        9.46515309203540
C          111.73457906011120        1.41197794335450        8.10312393517926
C          109.33717024842980        0.44885424034702        2.74883689800853
C          108.06430666380605        0.57851838868927        3.43088378508137
C          107.11036527163722        0.40050633547684        2.49275554889088
C          107.80655600888910        0.16044330724677        1.24432902344569
N          109.14515431870458        0.19710885585150        1.43079691458439
H          106.06876150083275       -0.62350285001649       -2.59537770612794
H          107.98174274025379       -1.00527387707528       -4.43662243549356
H          109.82769405156738       -0.22601087083878       -0.72251739688588
H          112.82546726537282       -1.68408443015740       -7.46698739938703
H          112.76174729049615       -2.23265069034782       -9.89381129368883
H          108.65200222481971       -2.23662653981234       -9.94459157438675
H          108.52726305616558       -1.68859596441669       -7.52014870763903
H          113.26571640902876       -0.95975453909099       -4.43020841936319
H          115.17288663938929       -0.54821685178461       -2.56443582939779
H          115.14269904400065        0.47809302547076        2.64201217014082
H          113.22998008819050        0.80894032843052        4.49327222200896
H          111.38384489697316        0.08085073525471        0.76887779638726
H          108.39323389818907        1.29569150318570        7.56849222687048
H          108.46488325790766        1.71687749983855       10.02042713617317
H          112.57487332222972        1.75234222616253       10.05215014842091
H          112.69170252351668        1.33274558018346        7.60184376321294
H          107.94598543162768        0.77972786438253        4.48358126258462
H          106.03845603569465        0.42262454230615        2.60699744841667
C          123.24268272406322       -0.06184224446670        0.02044887014682
C          123.87380688110217       -0.31969015288983       -1.21355433597028
C          123.23819067635768       -0.57107788063642       -2.45544978659260
C          124.21590861761229       -0.77703065344633       -3.39264448540874
C          125.47164715245752       -0.65450099887129       -2.74518236640812
N          125.21912003572292       -0.37843849825075       -1.43216006931243
C          126.74025369929677       -0.78739082254103       -3.34003476699889
C          126.75465618844849       -1.08267399244240       -4.72171419082931
C          126.76591526464262       -1.34000546293682       -5.90761275099694
C          126.78838707776789       -1.64040497203862       -7.28866554703621
C          127.99737734126151       -1.79384274801800       -7.97733293849491
C          127.96593323630968       -2.08850164128771       -9.32863937184749
N          126.83553557717579       -2.23526924519056      -10.01508261565167
C          125.68213663810175       -2.09095242114186       -9.36770064455005
C          125.60395904422406       -1.79640389904864       -8.01819082498527
C          127.97627093387584       -0.65169305905546       -2.68907526367894
C          129.24993012779655       -0.78853440996676       -3.36825178931544
C          130.20275623018230       -0.58895634016251       -2.43334240319254
N          128.16672629183202       -0.37839666918297       -1.37513467759907
C          129.50508531024124       -0.33463187733794       -1.18859085783785
C          130.16772774377066       -0.08609564904898        0.02852221916137
C          129.53655114694482        0.15120230361576        1.26654472047761
C          130.17223233854969        0.38845459251181        2.51112867124083
C          129.19443694808464        0.56431773304965        3.45434000475250
C          127.93867707555778        0.44043363338800        2.80719123008801
N          128.19117662283304        0.19086342268122        1.48896338233330
C          126.66994988176569        0.55704446461318        3.40546483140028
C          126.65774912313330        0.81439257594768        4.79474308281082
C          126.65438010680217        1.03167522783107        5.98867052982652
C          126.64498120478251        1.28376860571235        7.37949758059476
C          125.44340662713537        1.40674839583991        8.08705336642535
C          125.48939920930813        1.65230884897152        9.44776991114956
N          126.62711567774588        1.77921705115923       10.12606830076896
C          127.77360283489534        1.66384784992407        9.46065738759865
C          127.83724387473606        1.41864795253585        8.10058618379410
C          125.43412188897298        0.44363314843335        2.75020547832981
C          124.16055314660071        0.58852608719020        3.42781384511697
C          123.20782082787787        0.42077545833086        2.48656680387478
C          123.90543529791087        0.17188874259163        1.24059848583952
N          125.24364153366361        0.19306353376347        1.43162193725275
H          122.17079783275069       -0.59115357419667       -2.60491501875446
H          124.08494788072217       -0.99397152876443       -4.44050649689678
H          125.92835278778480       -0.23831773817269       -0.72030067169426
H          128.94081543635866       -1.68291622141556       -7.45669144506174
H          128.88864931028246       -2.21309014004572       -9.88782667665737
H          124.77918417867298       -2.21763664516644       -9.95805802142733
H          124.64288490873287       -1.68768820633372       -7.53023910142361
H          129.36958344370299       -1.00616231644988       -4.41752626966473
H          131.27479763971681       -0.60795728835992       -2.54692220997879
H          131.23967062309558        0.41807034387515        2.65862381372265
H          129.32551926932766        0.76324497215869        4.50574476720246
H          127.48195018188450        0.05416554013480        0.77643261476338
H          124.49438898180001        1.31022207212301        7.57368092221328
H          124.57267451210197        1.75202283411044       10.02179661045271
H          128.68281657398245        1.77287936354649       10.04485997462709
H          128.79300848012346        1.33171340843131        7.59798249394559
H          124.04110684149825        0.79195692070499        4.47996830828394
H          122.13586139828620        0.45553571112371        2.59714473172705
C          139.34128488466419       -0.03384529171769        0.04168824131370
C          139.97432585032783       -0.27969109410817       -1.19360878736652
C          139.34032594560549       -0.52462652109789       -2.43779998181840
C          140.31920344738433       -0.71872042274754       -3.37612365081887
C          141.57423705209175       -0.59501014696205       -2.72724419156047
N          141.31991487761678       -0.32993933418966       -1.41224420128124
C          142.84358134623716       -0.71675655479308       -3.32213730118331
C          142.86102392447444       -1.00477214238086       -4.70520592774788
C          142.87449523299884       -1.25984927173970       -5.89160175968187
C          142.89833370423943       -1.56080132332961       -7.27248117970729
C          144.10786783722412       -1.71020601862615       -7.96117135926031
C          144.07743751632941       -2.00747840890108       -9.31193102307054
N          142.94754875139500       -2.16032046971909       -9.99792036186541
C          141.79364807869612       -2.01964642482004       -9.35056770650211
C          141.71445984769562       -1.72295209883922       -8.00159488604571
C          144.07808307322975       -0.57949776011895       -2.66783135327585
C          145.35364965356354       -0.70082966156548       -3.34654338955616
C          146.30371138925906       -0.50896626098156       -2.40733487001505
N          144.26423992356260       -0.32223174781184       -1.35069460071447
C          145.60262552303899       -0.27581717141591       -1.16024262336962
C          146.26121209719668       -0.05145256800220        0.06270317387549
C          145.62887175398595        0.16100924020268        1.30381249115073
C          146.26298151507021        0.37411632394776        2.55384441705085
C          145.28413269718735        0.53924018772754        3.49768203547487
C          144.02907991348312        0.43271517387662        2.84576083230590
N          144.28301406855107        0.20309824837101        1.52439719184250
C          142.75947476269411        0.54862254827653        3.44209709890643
C          142.74324121191188        0.78565902036637        4.83493064520478
C          142.73454536520279        0.98238485358016        6.03238829954392
C          142.71571727299403        1.20857769615625        7.42756775802610
C          141.50883953088626        1.31845233921665        8.12826726352998
C          141.54448608144412        1.53710795457302        9.49387251650344
N          142.67701463951872        1.65002017714046       10.18321564648434
C          143.82849212168435        1.54737359687392        9.52431914769639
C          143.90246519032445        1.32893933752693        8.16021472750174
C          141.52547245681399        0.45029107174033        2.78094424541648
C          140.25010286288750        0.59416481645166        3.45546057445316
C          139.30003996953377        0.43603053298073        2.50992322256653
C          140.00110232217224        0.19443121390041        1.26435839652923
N          141.33869536902549        0.21207356553148        1.45958642037427
H          138.27308963320121       -0.54851885323891       -2.58779835026968
H          140.18970200091968       -0.92820893843592       -4.42568341082784
H          142.02849568550815       -0.19283830254458       -0.69915785810277
H          145.05095199419682       -1.59451549953018       -7.44092116973789
H          145.00059337801071       -2.12932683834724       -9.87107057091063
H          140.89115195356280       -2.15121902137872       -9.94052304905188
H          140.75305258469180       -1.61743898322828       -7.51364064506317
H          145.47620120902758       -0.90379518942415       -4.39841532535980
H          147.37602990601994       -0.52151411668144       -2.51910777437944
H          147.33026452185749        0.39612846805692        2.70389304397115
H          145.41372592996399        0.72016971584117        4.55252370090675
H          143.57431903073550        0.08179652416623        0.80857033029832
H          140.56371287733273        1.23244701272283        7.60591956569244
H          140.62339009392372        1.62573279834460       10.06271295570465
H          144.73322771138450        1.64440835925910       10.11752369312694
H          144.86203937540779        1.25147489409287        7.66335230836419
H          140.12773596237372        0.79018508828162        4.50868778633685
H          138.22781944669055        0.47333542397578        2.61710284073485
