189
 energy: -342.815130942901 gnorm: 1.306791364664 xtb: 6.5.1 (b24c23e)
Co          27.57343900000000       -0.02107800000000       -0.00655600000000
C           24.23544200000000        0.10207800000000        0.06552200000000
C           24.89741600000000        1.25152100000000        0.22644400000000
C           24.24654600000000        2.54882900000000        0.36361900000000
C           25.18651500000000        3.45948600000000        0.53630600000000
C           26.49159200000000        2.78407000000000        0.53030900000000
N           26.31480600000000        1.38205200000000        0.32322500000000
C           27.68352600000000        3.38992400000000        0.71196300000000
C           27.73273600000000        4.84838900000000        0.96423400000000
C           27.25005800000000        5.37753200000000        2.17194100000000
C           27.31301100000000        6.75337900000000        2.41242600000000
C           27.86384700000000        7.60992300000000        1.45076500000000
C           27.92985900000000        9.02614500000000        1.69947800000000
N           27.98291800000000       10.16472100000000        1.89952500000000
C           28.35295500000000        7.08492000000000        0.24783100000000
C           28.28963800000000        5.70926400000000        0.00603800000000
C           28.97495900000000        2.65420000000000        0.68044700000000
C           30.25830100000000        3.23928000000000        1.08774100000000
C           31.19310300000000        2.32938600000000        0.90293100000000
N           29.11798800000000        1.43235400000000        0.26685600000000
C           30.51331900000000        1.15165100000000        0.37774700000000
C           31.10787900000000        0.00961700000000       -0.00402500000000
C           30.34466600000000       -1.15047500000000       -0.51545200000000
C           30.87558400000000       -2.14299400000000       -1.21830900000000
C           29.83296700000000       -3.12879100000000       -1.42780400000000
C           28.73506000000000       -2.67489800000000       -0.83428800000000
N           28.96845500000000       -1.40157300000000       -0.23038300000000
C           27.45656600000000       -3.42623500000000       -0.74816700000000
C           27.47982400000000       -4.89177300000000       -0.97570900000000
C           26.79565400000000       -5.45581600000000       -2.06515400000000
C           26.83753600000000       -6.83581300000000       -2.28551800000000
C           27.56919000000000       -7.66268800000000       -1.42391200000000
C           27.61320600000000       -9.08325200000000       -1.65194800000000
N           27.64863000000000      -10.22533500000000       -1.83520400000000
C           28.26092200000000       -7.10374000000000       -0.34199500000000
C           28.21900500000000       -5.72391200000000       -0.12027700000000
C           26.29424500000000       -2.80710100000000       -0.46548300000000
C           24.98695600000000       -3.44486700000000       -0.31850500000000
C           24.12497500000000       -2.46991500000000       -0.10310900000000
C           24.87318500000000       -1.21393700000000       -0.09819900000000
N           26.13821100000000       -1.39825700000000       -0.30845200000000
H           23.15208200000000        0.12990400000000        0.05616500000000
H           23.18319600000000        2.74797000000000        0.32641200000000
H           24.99848000000000        4.51824200000000        0.65756600000000
H           26.82775200000000        4.72375400000000        2.92521200000000
H           26.93492800000000        7.14843400000000        3.34772700000000
H           28.78378400000000        7.73806500000000       -0.50151000000000
H           28.67268400000000        5.31403400000000       -0.92684200000000
H           30.42896800000000        4.23538200000000        1.47452400000000
H           32.24688100000000        2.46138200000000        1.10915400000000
H           31.90135300000000       -2.22339300000000       -1.55234200000000
H           29.94208100000000       -4.07124900000000       -1.94867400000000
H           26.23430000000000       -4.82576600000000       -2.74418600000000
H           26.30281100000000       -7.25704700000000       -3.12837600000000
H           28.83284200000000       -7.73373500000000        0.32867800000000
H           28.75937300000000       -5.30334500000000        0.71903700000000
H           24.74536000000000       -4.49833500000000       -0.36963500000000
H           23.06035700000000       -2.59279200000000        0.04674100000000
Co          66.89159600000001        0.04012900000000       -0.00821400000000
C           70.22959299999998       -0.07894300000000        0.07042600000000
C           69.56761800000000       -1.21799000000000        0.29333800000000
C           70.21848900000001       -2.50596800000000        0.50054300000000
C           69.27851899999999       -3.40594200000000        0.72227700000000
C           67.97344200000001       -2.73184100000000        0.67972500000000
N           68.15022800000000       -1.34309000000000        0.39704400000000
C           66.78150900000000       -3.32697300000000        0.89391100000000
C           66.73229800000000       -4.76964200000000        1.22476700000000
C           67.21497700000000       -5.23262800000000        2.45935000000000
C           67.15202300000000       -6.59343800000000        2.77396500000000
C           66.60118799999999       -7.50078700000000        1.86008500000000
C           66.53517600000001       -8.90146800000000        2.18510300000000
N           66.48211700000000      -10.02754400000000        2.44649400000000
C           66.11208000000001       -7.04167600000000        0.63049300000000
C           66.17539700000000       -5.68112700000000        0.31458100000000
C           65.49007500000000       -2.59403300000000        0.82261200000000
C           64.20673400000000       -3.15620600000000        1.26098200000000
C           63.27193200000000       -2.25765100000000        1.02718500000000
N           65.34704700000000       -1.39637000000000        0.34348100000000
C           63.95171600000000       -1.11007500000000        0.43901200000000
C           63.35715600000000        0.00961700000000       -0.00402500000000
C           64.12036900000000        1.14032100000000       -0.57750600000000
C           63.58945099999999        2.09333400000000       -1.33306300000000
C           64.63206800000000        3.06634400000000       -1.59561800000000
C           65.72997500000000        2.64524700000000       -0.97840100000000
N           65.49657900000000        1.40648300000000       -0.30644800000000
C           67.00846900000001        3.40014500000000       -0.93308000000000
C           66.98521000000000        4.85121600000000       -1.23962800000000
C           67.66938100000000        5.35545300000000       -2.35801000000000
C           67.62749900000000        6.72149600000000       -2.65275900000000
C           66.89584499999999        7.59380300000000       -1.83718100000000
C           66.85182900000000        8.99993900000000       -2.14178700000000
N           66.81640500000000       10.13042600000000       -2.38660200000000
C           66.20411300000001        7.09424500000000       -0.72659100000000
C           66.24603000000000        5.72844500000000       -0.43049900000000
C           68.17079000000000        2.79722200000000       -0.61729300000000
C           69.47807899999999        3.44201000000000       -0.50505700000000
C           70.34005899999998        2.48014800000000       -0.23719600000000
C           69.59184999999999        1.22627800000000       -0.16430000000000
N           68.32682399999999        1.39894600000000       -0.38422300000000
H           71.31295299999999       -0.10723500000000        0.06258900000000
H           71.28183900000001       -2.70683200000000        0.47417200000000
H           69.46655400000000       -4.45658000000000        0.90067700000000
H           67.63728300000000       -4.53902800000000        3.17612300000000
H           67.53010700000000       -6.93728000000000        3.72928200000000
H           65.68125100000000       -7.73443100000000       -0.08239000000000
H           65.79235100000000       -5.33698000000000       -0.63832700000000
H           64.03606700000000       -4.12990800000000        1.70112300000000
H           62.21815399999999       -2.37829000000000        1.24025100000000
H           62.56368200000000        2.15553200000000       -1.67095800000000
H           64.52295300000000        3.97922100000000       -2.16674600000000
H           68.23073500000000        4.68956600000000       -3.00193800000000
H           68.16222300000000        7.09648400000000       -3.51718500000000
H           65.63219200000000        7.75962500000000       -0.09100700000000
H           65.70566100000001        5.35393200000000        0.43035200000000
H           69.71967400000000        4.49116500000000       -0.61314400000000
H           71.40467799999999        2.61095800000000       -0.09421800000000
C           33.58756300000000        0.02430700000000        0.00625100000000
C           35.04579000000000        0.00247000000000       -0.01162300000000
C           36.17971800000000       -0.01828300000000       -0.01311300000000
C           37.54110000000000       -0.03087300000000       -0.01530400000000
C           38.81531799999999       -0.02056700000000       -0.02007000000000
C           40.00378099999999       -0.00176800000000       -0.02622600000000
C           41.35614199999999        0.02301600000000       -0.01035800000000
C           42.45640900000000        0.02430700000000        0.00625100000000
C           51.88458900000000        0.02430700000000        0.00625100000000
C           53.34281500000000        0.00247000000000       -0.01162300000000
C           54.47674299999999       -0.01828300000000       -0.01311300000000
C           55.83812499999999       -0.03087300000000       -0.01530400000000
C           57.11234399999999       -0.02056700000000       -0.02007000000000
C           58.30080599999999       -0.00176800000000       -0.02622600000000
C           59.65316700000000        0.02301600000000       -0.01035800000000
C           60.75343500000000        0.02430700000000        0.00625100000000
Co          47.21549099999999        0.02032600000000       -0.01712600000000
C           43.77894700000000       -0.02639400000000        0.00643700000000
C           44.43451600000000       -1.13583000000000       -0.38146300000000
C           43.79379300000000       -2.40687800000000       -0.72524900000000
C           44.73029099999999       -3.25404100000000       -1.10328200000000
C           46.02743600000000       -2.57421900000000       -1.02758700000000
N           45.84950099999999       -1.23421600000000       -0.56176000000000
C           47.21186300000000       -3.13004900000000       -1.36087600000000
C           47.24746600000000       -4.51340000000000       -1.88946100000000
C           46.72623200000000       -4.80161000000000       -3.16093300000000
C           46.77500400000000       -6.10577300000000       -3.66237800000000
C           47.34956200000000       -7.13042200000000       -2.89961300000000
C           47.40091499999999       -8.47272100000000       -3.41680300000000
N           47.44232899999999       -9.55187000000000       -3.83260400000000
C           47.87636400000000       -6.84554100000000       -1.63343400000000
C           47.82729999999999       -5.54183500000000       -1.13072200000000
C           48.50881500000000       -2.42076700000000       -1.21745000000000
C           49.77743299999999       -2.91726900000000       -1.76595300000000
C           50.72964600000000       -2.08364900000000       -1.39920000000000
N           48.67659199999999       -1.32384600000000       -0.54661100000000
C           50.07475200000000       -1.04361100000000       -0.61644600000000
C           50.68976299999999       -0.02639400000000        0.00643700000000
C           49.93880399999999        1.00136800000000        0.75727600000000
C           50.47154600000000        1.80569000000000        1.66824600000000
C           49.43927400000000        2.74288700000000        2.06934100000000
C           48.34784799999999        2.44888200000000        1.37196700000000
N           48.57319399999999        1.33363800000000        0.51151400000000
C           47.09466200000000        3.24083500000000        1.39848400000000
C           47.15682399999999        4.64833300000000        1.86350600000000
C           46.44759400000000        5.05436000000000        3.00606600000000
C           46.52435899999999        6.37786400000000        3.44992900000000
C           47.31582099999999        7.30499500000000        2.76059600000000
C           47.39467400000000        8.66747800000000        3.21812600000000
N           47.45804100000000        9.76287700000000        3.58593800000000
C           48.03276500000000        6.90269600000000        1.62682000000000
C           47.95624500000000        5.57950100000000        1.18175800000000
C           45.92317899999999        2.71369800000000        0.99293600000000
C           44.64789499999999        3.41798100000000        0.90739800000000
C           43.75980800000000        2.52260700000000        0.52613400000000
C           44.45693800000000        1.24262400000000        0.35880600000000
N           45.72147099999999        1.34844200000000        0.62663600000000
H           42.73910899999999       -2.64375000000000       -0.68380600000000
H           44.54405400000000       -4.27626000000000       -1.40589300000000
H           46.28487200000000       -4.01586500000000       -3.76175600000000
H           46.36726999999999       -6.31451300000000       -4.64416100000000
H           48.32513900000000       -7.63007600000000       -1.03608300000000
H           48.23900200000000       -5.33272300000000       -0.15090000000000
H           49.92703099999999       -3.80671900000000       -2.36380200000000
H           51.77894800000000       -2.18040200000000       -1.64448000000000
H           51.49340100000000        1.79430200000000        2.02311600000000
H           49.55367500000000        3.55578700000000        2.77473400000000
H           45.83951600000000        4.34461300000000        3.55349300000000
H           45.96948200000000        6.67707600000000        4.33108500000000
H           48.65064900000000        7.61093300000000        1.08795600000000
H           48.51613200000000        5.28053100000000        0.30402000000000
H           44.44429800000000        4.46282600000000        1.10179000000000
H           42.70970700000000        2.72381200000000        0.36273000000000
189
 energy: -343.178938374586 gnorm: 0.508305602784 xtb: 6.5.1 (b24c23e)
Co          27.58351345324475       -0.01582215277936       -0.00397555377620
C           24.23650500632746        0.08700163868634        0.06395958061313
C           24.90484623877252        1.25137662017840        0.22590335271890
C           24.24677001989654        2.54245295833651        0.36248454397813
C           25.19555732324444        3.46030259532198        0.53681915343821
C           26.49152785360965        2.77536768128361        0.52854350477816
N           26.30426583371941        1.38931269062171        0.32200265031531
C           27.69694292874552        3.38566209943863        0.71386819992844
C           27.73692553367170        4.84940858328836        0.96586767424050
C           27.25072570671872        5.38088895197678        2.16889415052890
C           27.31336642525653        6.75112900572417        2.41017973552403
C           27.86391738315477        7.61112825355915        1.45097306839800
C           27.92982808919942        9.02468528406167        1.69924153703595
N           27.98260642228622       10.15835752601756        1.89840641457430
C           28.35193064550440        7.08230184334825        0.24892602249681
C           28.28951111284010        5.71183773320041        0.00984799550591
C           28.96802435868710        2.66571790845733        0.68231928988874
C           30.24732696353032        3.24770732641729        1.08685951301243
C           31.19268000287422        2.32311110646085        0.90216002170348
N           29.12065056819398        1.42349960209346        0.26713291466692
C           30.52144560039096        1.14711277657763        0.37645799485445
C           31.09801100008331       -0.00304881021245       -0.00960214073278
C           30.34336014232172       -1.13761310220864       -0.50393902440676
C           30.87692060513337       -2.16063947437771       -1.22717570998900
C           29.85237807281311       -3.12889806145470       -1.43005762193717
C           28.72448793496876       -2.66512212301858       -0.82278157480973
N           28.96427840178036       -1.39796510263999       -0.23568780726953
C           27.46836787135956       -3.41878739272102       -0.74762026196657
C           27.48541386925152       -4.88999058518715       -0.97841772512630
C           26.79712786939428       -5.45819641275501       -2.06184641239809
C           26.83833195136316       -6.83305566975108       -2.28324979600442
C           27.56923119217610       -7.66378164078512       -1.42408575575580
C           27.61323849929896       -9.08175487807847       -1.65177162208089
N           27.64839019966629      -10.21891742982806       -1.83416237769391
C           28.25940814861858       -7.10073118728614       -0.34280099478459
C           28.21835766033520       -5.72581178293680       -0.12395640699913
C           26.29463113304176       -2.80340961888840       -0.46442211096473
C           24.99431609664538       -3.44354280543230       -0.31948803027093
C           24.11804288391221       -2.45921811882806       -0.10208830372518
C           24.85893074212693       -1.20431549288477       -0.09711848941200
N           26.14509757513160       -1.40140846954424       -0.30359428161630
H           23.15272876027275        0.12575618301611        0.05645685944231
H           23.18385273395227        2.74182755279889        0.32568281052257
H           25.00622664874887        4.51824120118334        0.65814891631356
H           26.82872377735909        4.72436151601510        2.92348147137613
H           26.93554503694832        7.14822370863009        3.34650374486570
H           28.78310201845343        7.73760346895468       -0.50046450786012
H           28.67188336721293        5.31420952605759       -0.92505507116692
H           30.42280751428633        4.23849835361523        1.47434686616877
H           32.24623657365697        2.45440455493809        1.10654688227158
H           31.90169973254896       -2.22710475304532       -1.55428393922803
H           29.94603366845030       -4.07038040676781       -1.94972279197471
H           26.23558149085962       -4.82617596710296       -2.74266750899718
H           26.30367253247731       -7.25661036943553       -3.12719303326106
H           28.83192400986097       -7.73310657564543        0.32771973037271
H           28.75837495961828       -5.30347182856944        0.71747742791375
H           24.75253680402420       -4.49712543809103       -0.37053918708863
H           23.05803270415322       -2.58744071823414        0.04748487879901
Co          66.88201225999097        0.03514636904724       -0.00498634684353
C           70.22859265945600       -0.06402035878990        0.06809852844410
C           69.56031401391564       -1.21779964837296        0.29300617372118
C           70.21825055293722       -2.49959525189431        0.49906576603245
C           69.26941589042542       -3.40670055583229        0.72284671725115
C           67.97341891589365       -2.72346578091157        0.67749962519881
N           68.16064015066486       -1.35031437857344        0.39592506107444
C           66.76824843844754       -3.32281866521201        0.89529353237772
C           66.72817458804525       -4.77059220717449        1.22647446587664
C           67.21431973074111       -5.23616603759388        2.45650336154369
C           67.15166522771266       -6.59132014188264        2.77161577922612
C           66.60111846388001       -7.50198310952255        1.86036184223611
C           66.53520617101773       -8.90001268061108        2.18478564976665
N           66.48242849315430      -10.02125729768055        2.44503470751888
C           66.11310532988274       -7.03899526739841        0.63144131495666
C           66.17552887120738       -5.68349104425523        0.31853673679886
C           65.49690648819266       -2.60541412558399        0.82493555059686
C           64.21782500196782       -3.16457096022023        1.26071098833317
C           63.27243726609316       -2.25136179551709        1.02570753569453
N           65.34417793300173       -1.38743244854372        0.34408091549171
C           63.94381690162091       -1.10522805999470        0.43775109779674
C           63.36413494506630        0.02144709848911       -0.01076906591242
C           64.12206813121431        1.12821489868627       -0.56490738317406
C           63.58814068012597        2.11012994404978       -1.34222148826518
C           64.61327372284694        3.06648273832790       -1.59799714295963
C           65.74044706480133        2.63649465954769       -0.96658309186361
N           65.50035669350316        1.40204722402489       -0.31234520340354
C           66.99684382310835        3.39290337266334       -0.93214948875336
C           66.97969763712699        4.84935287856699       -1.24214383596853
C           67.66791128705792        5.35801436131126       -2.35482225625895
C           67.62669232460340        6.71886437032232       -2.65035062397441
C           66.89580359326905        7.59489175562891       -1.83741507645954
C           66.85180041686274        8.99844697483972       -2.14152645526997
N           66.81664382025841       10.12407952191489       -2.38521812517468
C           66.20561240519068        7.09120226619169       -0.72723414298658
C           66.24667466110468        5.73017029186867       -0.43426344782343
C           68.17035085783155        2.79372533557069       -0.61612942181923
C           69.47071155308154        3.44063564086836       -0.50597484843430
C           70.34697339024933        2.46952874289750       -0.23559427178782
C           69.60608717302763        1.21675931287297       -0.16263494829440
N           68.32004768099488        1.40227854585110       -0.37973465987515
H           71.31233075089747       -0.10309099022070        0.06260369328565
H           71.28117235446150       -2.70072520733796        0.47308314039062
H           69.45880705186117       -4.45653241340815        0.90125449925664
H           67.63631093352613       -4.53973262034663        3.17443056151708
H           67.52949063724432       -6.93714518371472        3.72805654305401
H           65.68193309991953       -7.73391282599250       -0.08137198039308
H           65.79315297892998       -5.33705768329438       -0.63652699641173
H           64.04228633212630       -4.13302177597770        1.70114237776881
H           62.21897115074918       -2.37158314619376        1.23733826694787
H           62.56343906506807        2.15905453525618       -1.67302310341090
H           64.51911936641041        3.97836263044953       -2.16780446735196
H           68.22945452307211        4.69005756604989       -3.00043761080354
H           68.16136094146877        7.09611161004331       -3.51598181928602
H           65.63310766291171        7.75895124526646       -0.09192889682544
H           65.70665841169085        5.35397775402261        0.42878714500072
H           69.71250259903817        4.48990751968832       -0.61398271195566
H           71.40699357115616        2.60564925471277       -0.09317342551575
C           33.60481011940325        0.02452692378298        0.00566716640063
C           34.95061329022056        0.00193452191912       -0.01164989414630
C           36.21799556189484       -0.01882484554528       -0.01282157103864
C           37.50498398021855       -0.03066353835424       -0.01526812305841
C           38.78401908406319       -0.02077956357834       -0.02023668622422
C           40.00242132741086       -0.00124974846716       -0.02647342389182
C           41.29566747370996        0.02273948869439       -0.01161752282853
C           42.49945241253194        0.02698271169628        0.00962326108993
C           51.95743631827575        0.03355182981895        0.01019522373558
C           53.27550312117867        0.00415067397483       -0.01103029275787
C           54.52455777919431       -0.01852325451351       -0.01307225408098
C           55.81127479219822       -0.03100721310920       -0.01555684839958
C           57.09032664385251       -0.02090455114238       -0.01995996037253
C           58.31226697383938       -0.00155495695235       -0.02629742900153
C           59.63655003336093        0.02297177525246       -0.01117799019328
C           60.85749893092188        0.02490289443476        0.00650624855972
Co          47.21239120806279        0.02055143773432       -0.01716560168969
C           43.82077875014895       -0.01140828457777        0.00735241856997
C           44.45828840657979       -1.14482668320682       -0.38443526636596
C           43.79480713889441       -2.39838625861307       -0.72257047990122
C           44.74023128816147       -3.25553777661754       -1.10483210545333
C           46.02728315270382       -2.56908190393825       -1.02558913370911
N           45.84644411622931       -1.24638748274189       -0.55911037518378
C           47.22521786907018       -3.12787318293616       -1.36240056830396
C           47.25089137924022       -4.51464150313663       -1.89150975135283
C           46.72680930926236       -4.80553147813067       -3.15876491555663
C           46.77556138466430       -6.10400942311024       -3.65984346120216
C           47.34961353037416       -7.13153003764570       -2.90003901437326
C           47.40088413275337       -8.47137812437375       -3.41631104449936
N           47.44208969520107       -9.54581585830502       -3.83026763387291
C           47.87524889079210       -6.84272228681665       -1.63396442726817
C           47.82707613667797       -5.54357546484293       -1.13493350732612
C           48.50027922406854       -2.43846793690084       -1.22462705116976
C           49.76197331220361       -2.92870424783865       -1.76821197491332
C           50.72482530101297       -2.07709472122410       -1.39462125675139
N           48.67766508854463       -1.31616206452884       -0.55133001800465
C           50.05319560626489       -1.05749542497827       -0.62640654412516
C           50.66568328438708       -0.01655594596832        0.01428806160759
C           49.91729081622913        1.00350210559253        0.75224595883907
C           50.47051804156570        1.82062738094250        1.67868308300331
C           49.45487031799627        2.74462834309132        2.07223827183008
C           48.33690605252043        2.44494902906305        1.35991744279971
N           48.56679321288208        1.32782260616457        0.52059734036686
C           47.10509199253632        3.23550787289568        1.39689790759615
C           47.16163405385670        4.64654702354393        1.86570300774157
C           46.44910724381266        5.05722243032699        3.00324796810948
C           46.52522969778050        6.37545856200186        3.44736225824623
C           47.31588161833303        7.30603707975730        2.76095054269377
C           47.39463899012378        8.66608556247346        3.21771184268598
N           47.45766698168497        9.75669780906421        3.58386084483748
C           48.03114828425436        6.89964796960829        1.62706262539309
C           47.95561281894649        5.58087551111132        1.18563368070974
C           45.92398214236393        2.71287989792158        0.99267917053091
C           44.65505840344493        3.41713472183706        0.90873426042760
C           43.75312660111165        2.51160697106629        0.52350349123004
C           44.45699718007539        1.24202193475689        0.35810484436527
N           45.73368660277207        1.35666679622480        0.62146686238226
H           42.73954589083268       -2.63540338632500       -0.68120603313032
H           44.55141172651332       -4.27619615846243       -1.40687889464997
H           46.28587541836426       -4.01677202181846       -3.76024961080887
H           46.36792612774686       -6.31453267847153       -4.64295547949169
H           48.32443328882327       -7.62935920908121       -1.03700321973910
H           48.23815099956296       -5.33248388679154       -0.15268320755675
H           49.92061762406576       -3.81063085401688       -2.36499514089476
H           51.77634749268843       -2.17298857084093       -1.63959514401380
H           51.49265682566534        1.79609571127918        2.02532734450270
H           49.55714156754037        3.55515318139066        2.77624542417340
H           45.84084901954037        4.34517579718680        3.55210218595184
H           45.97038940881882        6.67678190129572        4.32987869828565
H           48.64968487117271        7.61017150985563        1.08875761199725
H           48.51508447883877        5.28040499424834        0.30551640023338
H           44.45088215253094        4.46141466956387        1.10278231852920
H           42.70712471515048        2.71712925958231        0.36090898502476
189
 energy: -343.299506791615 gnorm: 0.201387387903 xtb: 6.5.1 (b24c23e)
Co          27.60130246679168       -0.00807590601295        0.00300060813505
C           24.24003233823147        0.06880123826539        0.06208399181275
C           24.91442782710829        1.24935298327293        0.22352438538868