191
 energy: -377.869097159323 gnorm: 0.697433704620 xtb: 6.5.1 (b24c23e)
Co          28.57589500000000        0.03862100000000       -0.01083900000000
C           25.23914900000000       -0.08637700000000       -0.08853400000000
C           25.90234500000000       -1.23771000000000       -0.23125300000000
C           25.25163900000000       -2.53624100000000       -0.35728700000000
C           26.19212800000000       -3.44934900000000       -0.51171700000000
C           27.49754500000000       -2.77471600000000       -0.50288800000000
N           27.32053900000000       -1.36995000000000       -0.31553100000000
C           28.69001400000000       -3.38477500000000       -0.66550200000000
C           28.73739800000000       -4.84666900000000       -0.89475600000000
C           29.25269800000000       -5.69610800000000        0.09334400000000
C           29.31145800000000       -7.07519100000000       -0.12410000000000
C           28.85867100000000       -7.62735200000000       -1.33683900000000
N           28.91453600000000       -9.04754200000000       -1.56348000000000
O           28.47008500000000       -9.58482800000000       -2.75037800000000
O           29.35417199999999       -9.81578200000000       -0.68236700000000
C           28.34942800000000       -6.76880600000000       -2.32717500000000
C           28.29139200000000       -5.38961200000000       -2.10844300000000
C           29.98302700000000       -2.65158500000000       -0.63638900000000
C           31.26960700000000       -3.25067700000000       -1.01294800000000
C           32.20395000000000       -2.33616100000000       -0.84872800000000
N           30.12377700000000       -1.41764200000000       -0.25878200000000
C           31.52096800000000       -1.14226800000000       -0.36509500000000
C           32.11438600000000        0.00975600000000       -0.01274800000000
C           31.35109200000000        1.18469400000000        0.46494300000000
C           31.88352300000000        2.19756800000000        1.13694700000000
C           30.83993300000000        3.18658300000000        1.32507600000000
C           29.73944900000000        2.71412600000000        0.75092500000000
N           29.97235200000000        1.42520900000000        0.18002400000000
C           28.45751000000000        3.45929600000000        0.65687400000000
C           28.47500500000000        4.92699300000000        0.86872000000000
C           27.81286200000000        5.49549500000000        1.96697800000000
C           27.84995400000000        6.87684900000000        2.17547400000000
C           28.55431400000000        7.71344800000000        1.29203500000000
N           28.58908400000000        9.13593700000000        1.50870700000000
O           27.98398000000000        9.68964800000000        2.61418900000000
O           29.17280700000000        9.88910200000000        0.70149500000000
C           29.22487600000000        7.13696700000000        0.19724600000000
C           29.18791999999999        5.75507800000000       -0.00961700000000
C           27.29538900000000        2.83317600000000        0.38967700000000
C           25.98522600000000        3.46609200000000        0.24663300000000
C           25.12377200000000        2.48654800000000        0.05346400000000
C           25.87518400000000        1.23241400000000        0.05811000000000
N           27.14169900000000        1.42216600000000        0.25243600000000
H           24.15566700000000       -0.11455700000000       -0.08268800000000
H           24.18749500000000       -2.73411800000000       -0.32814400000000
H           26.00425700000000       -4.50933600000000       -0.62345100000000
H           29.60665400000000       -5.28930800000000        1.03284800000000
H           29.71202500000000       -7.70915100000000        0.65599300000000
H           27.99698300000000       -7.16248300000000       -3.27192100000000
H           27.90009400000000       -4.74371800000000       -2.88478000000000
H           31.44247200000000       -4.25875900000000       -1.36687500000000
H           33.25954300000000       -2.47542600000000       -1.04170500000000
H           32.91012400000000        2.28882000000000        1.46436800000000
H           30.95008700000000        4.14309000000000        1.82023200000000
H           27.27183000000000        4.86698400000000        2.66408600000000
H           27.32801200000000        7.28988400000000        3.02915000000000
H           29.78314400000000        7.75323900000000       -0.49506400000000
H           29.71480800000000        5.32929100000000       -0.85509000000000
H           25.74185500000000        4.51965600000000        0.28696800000000
H           24.05724600000000        2.60482000000000       -0.08672100000000
Co          62.94178099999999       -0.01771900000000       -0.02180100000000
C           66.27852700000000        0.12729100000000       -0.04695900000000
C           65.61533000000000        1.24813900000000        0.25243700000000
C           66.26603700000000        2.49918800000000        0.62249500000000
C           65.32554800000000        3.40358200000000        0.82170900000000
C           64.02012999999999        2.77485900000000        0.57693400000000
N           64.19713600000000        1.40233200000000        0.22389300000000
C           62.82766199999999        3.40138300000000        0.65493200000000
C           62.78027800000000        4.84258000000000        0.99055400000000
C           62.26497700000000        5.25954800000000        2.22506800000000
C           62.20621700000000        6.61954700000000        2.54058800000000
C           62.65900400000000        7.58615100000000        1.62336600000000
N           62.60314000000000        8.98770700000000        1.94577300000000
O           63.04758999999999        9.93083100000000        1.04693000000000
O           62.16350400000000        9.36951600000000        3.05066000000000
C           63.16824700000000        7.16157800000000        0.38336400000000
C           63.22628300000000        5.80099300000000        0.06899700000000
C           61.53464900000000        2.71076900000000        0.40700500000000
C           60.24806800000000        3.40734600000000        0.28255300000000
C           59.31372500000000        2.49797600000000        0.09188600000000
N           61.39389799999999        1.42526500000000        0.29438400000000
C           59.99670699999999        1.20984500000000        0.09257300000000
C           59.40328900000000        0.00975600000000       -0.01274800000000
C           60.16658300000000       -1.25857500000000       -0.01046200000000
C           59.63415299999999       -2.44952500000000        0.23272800000000
C           60.67774200000000       -3.43692400000000        0.03629100000000
C           61.77822699999999       -2.78365300000000       -0.31881900000000
N           61.54532300000000       -1.37470900000000       -0.36477700000000
C           63.06016600000000       -3.43919200000000       -0.68541600000000
C           63.04267000000000       -4.87924100000000       -1.03935200000000
C           63.70481399999999       -5.81806800000000       -0.23438600000000
C           63.66772199999999       -7.17681700000000       -0.55905200000000
C           62.96336200000000       -7.62112600000000       -1.69172800000000
N           62.92859200000000       -9.02107600000000       -2.02423900000000
O           63.53369499999999       -9.94889900000000       -1.20703000000000
O           62.34486900000000       -9.41661900000000       -3.05496400000000
C           62.29279999999999       -6.67620300000000       -2.49048500000000
C           62.32975499999999       -5.31757000000000       -2.16410500000000
C           64.22228699999999       -2.75856400000000       -0.69834900000000
C           65.53245000000000       -3.29166900000000       -1.06827500000000
C           66.39390299999999       -2.31116000000000       -0.88006200000000
C           65.64249200000000       -1.15026700000000       -0.40550600000000
N           64.37597700000001       -1.39904000000000       -0.29650700000000
H           67.36200900000000        0.15122300000000       -0.03097300000000
H           67.33018100000000        2.67170100000000        0.72370700000000
H           65.51341900000000        4.42812900000000        1.11557900000000
H           61.91102100000000        4.53015200000000        2.94349400000000
H           61.80565100000000        6.91475200000000        3.50147600000000
H           63.52069299999999        7.88077400000000       -0.34484200000000
H           63.61758099999999        5.49331600000000       -0.89288300000000
H           60.07520300000000        4.47458800000000        0.33243700000000
H           58.25813200000000        2.69943900000000       -0.03479200000000
H           58.60755100000000       -2.65688900000000        0.50204500000000
H           60.56758800000000       -4.50930800000000        0.13667000000000
H           64.24584500000000       -5.49679800000000        0.64752700000000
H           64.18966300000000       -7.87981100000000        0.07746900000000
H           61.73453100000000       -6.98792500000000       -3.36336200000000
H           61.80286800000000       -4.60583100000000       -2.78824100000000
H           65.77582000000000       -4.28349000000000       -1.42592600000000
H           67.46043000000000       -2.36824000000000       -1.05436600000000
C           38.38490199999999        0.01085800000000       -0.00425800000000
C           37.17596300000000       -0.00259700000000       -0.01270500000000
C           35.75443400000000        0.00622300000000       -0.02468800000000
C           34.54276400000000        0.01366100000000       -0.01382600000000
C           39.80150600000000        0.00418300000000       -0.00372500000000
C           41.02220200000000        0.01366100000000       -0.01382600000000
C           54.34046099999999        0.01085800000000       -0.00425800000000
C           53.13152200000000       -0.00259700000000       -0.01270500000000
C           51.70999299999999        0.00622300000000       -0.02468800000000
C           50.49832300000000        0.01366100000000       -0.01382600000000
C           55.75706500000000        0.00418300000000       -0.00372500000000
C           56.97776099999999        0.01366100000000       -0.01382600000000
Co          45.67175799999999        0.05694900000000       -0.03409500000000
C           42.30456300000000       -0.02262100000000        0.02874000000000
C           42.96068200000000       -1.19415700000000        0.11744400000000
C           42.31958700000000       -2.49714300000000        0.30543500000000
C           43.25678000000000       -3.42459400000000        0.29803000000000
C           44.55471299999999       -2.76975600000000        0.10660700000000
N           44.37691299999999       -1.35552400000000       -0.00255300000000
C           45.73953600000000       -3.41199900000000        0.03665300000000
C           45.77108700000000       -4.88957200000000        0.11058800000000
C           46.24957300000000       -5.52611000000000        1.26363500000000
C           46.28914100000000       -6.92159100000000        1.33313400000000
C           45.85426300000000       -7.70249500000000        0.24574500000000
N           45.89366300000000       -9.13989200000000        0.31281100000000
O           45.51909200000000       -9.90002700000000       -0.77136800000000
O           46.24915800000000       -9.72056500000000        1.36052200000000
C           45.38060399999999       -7.05646600000000       -0.91118800000000
C           45.34117800000000       -5.66110200000000       -0.97767800000000
C           47.03908700000000       -2.70852200000000       -0.10515000000000
C           48.31163800000000       -3.39103500000000       -0.37135500000000
C           49.26402900000000       -2.48055400000000       -0.37723400000000
N           47.20471800000000       -1.43083700000000        0.04326400000000
C           48.60579599999999       -1.20686000000000       -0.11613000000000
C           49.22068100000000       -0.02262100000000        0.02874000000000
C           48.47081100000000        1.22743000000000        0.27519300000000
C           49.00681700000000        2.34065800000000        0.75864000000000
C           47.97427399999999        3.35917200000000        0.73652700000000
C           46.87873000000000        2.79937700000000        0.23657800000000
N           47.10212200000000        1.42555100000000       -0.07722200000000
C           45.62152199999999        3.52969300000000       -0.05686500000000
C           45.67870200000000        5.00472700000000       -0.20714900000000
C           46.46138299999999        5.57811000000000       -1.21904400000000
C           46.53284800000000        6.96730300000000       -1.35515900000000
C           45.82591300000000        7.80801100000000       -0.47752500000000
N           45.89783400000000        9.23824400000000       -0.62321100000000
O           46.63224400000000        9.80125800000000       -1.64237600000000
O           45.28842200000000        9.99078400000000        0.16588600000000
C           45.05000000000000        7.22840800000000        0.54284000000000
C           44.98031800000000        5.83921900000000        0.67835100000000
C           44.44916600000000        2.88205400000000       -0.20152800000000
C           43.17081200000000        3.49086300000000       -0.55525800000000
C           42.28209000000000        2.51825700000000       -0.52865100000000
C           42.98182200000000        1.28069400000000       -0.16592800000000
N           44.24867100000000        1.48564600000000        0.02321800000000
H           41.26416499999999       -2.69842900000000        0.43154900000000
H           43.07112000000000       -4.48345700000000        0.42275700000000
H           46.58839300000000       -4.94121600000000        2.10960200000000
H           46.66322300000000       -7.38961400000000        2.23583300000000
H           45.04079400000000       -7.62940800000000       -1.76484700000000
H           44.97781300000000       -5.18055700000000       -1.87725100000000
H           48.46348800000000       -4.45029400000000       -0.53317500000000
H           50.31602800000000       -2.67243900000000       -0.54176100000000
H           50.03039700000000        2.47989100000000        1.07987600000000
H           48.09068600000000        4.39267900000000        1.03595300000000
H           47.01323500000000        4.94776100000000       -1.90558600000000
H           47.14213899999999        7.38332100000000       -2.14678900000000
H           44.49798799999999        7.84889100000000        1.23716200000000
H           44.38413500000000        5.41252500000000        1.47546700000000
H           42.96564700000000        4.52428000000000       -0.80308600000000
H           41.22989300000000        2.63590900000000       -0.75017700000000
191
 energy: -378.112070481713 gnorm: 0.423209072633 xtb: 6.5.1 (b24c23e)
Co          28.58855814976393        0.03041038655789       -0.01658015697401
C           25.24017520935860       -0.06856025568974       -0.08698748979055
C           25.91024197235770       -1.23554040888603       -0.23037041027680
C           25.25343063229305       -2.52750702915189       -0.35594391188756
C           26.20459542732851       -3.44892900497337       -0.51222742547026
C           27.49942021541619       -2.76416845906081       -0.50138366360648
N           27.30875087028913       -1.37779118363403       -0.31251995244422
C           28.70695613902249       -3.37937881787777       -0.66709176483331
C           28.74407758590632       -4.84757235848791       -0.89742012943718
C           29.25342977091152       -5.70365516262342        0.08678177323190
C           29.30969004824149       -7.07853966062518       -0.12896852758913
C           28.85693550879428       -7.63175056118556       -1.34246074657919
N           28.90929469322833       -9.05869178233851       -1.57397974840984
O           28.48797985701441       -9.54595347457482       -2.69957873431606
O           29.34441681700704       -9.79441240450953       -0.70259261001941
C           28.34907517817766       -6.76984411834199       -2.32656448464444
C           28.29179577511414       -5.39660942415848       -2.10489191685484
C           29.97664896165588       -2.66311644706221       -0.63689798761110
C           31.25576186762401       -3.26055529571342       -1.01158805956849
C           32.20238125227419       -2.32911406686780       -0.84704188124188
N           30.13126039213315       -1.40511064634775       -0.26358333037822
C           31.53431839988158       -1.13445754922825       -0.36359076637270
C           32.12344855744922        0.02432248119644       -0.00386703989735
C           31.35302221676277        1.17168875971982        0.45054572357911
C           31.88678501820217        2.21804671477754        1.14435385455059
C           30.86170759591397        3.18723092663124        1.32641981671467
C           29.73059831507048        2.70171260556625        0.73715713447933
N           29.97019384036048        1.41525714907695        0.19153668071692
C           28.47296832053383        3.44900965896544        0.65591670304758
C           28.48423602401167        4.92369815270809        0.87283882991402
C           27.81484518249848        5.50063129222864        1.96285395755805
C           27.84993616401528        6.87695583987287        2.17442087294016
C           28.55169561875119        7.71752675536020        1.29708552359943
N           28.58507590575504        9.14682745138526        1.51985605201607
O           28.00762304125131        9.65015721883780        2.56622640902493
O           29.15909353534745        9.86794274632309        0.71982687243488
C           29.22180811881513        7.13947216147857        0.20152528143964
C           29.18773758169580        5.76143196041903       -0.00314137931613
C           27.29772877215157        2.82746351141511        0.38882055653816
C           25.99443660733794        3.46214608080741        0.24770585718244
C           25.11531608518336        2.47272831624151        0.05270897400997
C           25.85928862535454        1.22099149664482        0.05673853913675
N           27.14950041966279        1.42401954881571        0.24424664858018
H           24.15665368152364       -0.10727204779166       -0.08298236635451
H           24.18938870891684       -2.72367564614460       -0.32690243580310
H           26.01777545866478       -4.50868335948438       -0.62420491249039
H           29.60549895414799       -5.29264092032910        1.02869173821416
H           29.71065444242580       -7.71326757983717        0.65273516999265
H           27.99775074995098       -7.16622084419306       -3.27142755292540
H           27.90168422544203       -4.74650653412507       -2.88190722609330
H           31.43153651832116       -4.26378260160153       -1.36644291579542
H           33.25781184119830       -2.46458164496336       -1.03791963314048
H           32.91130543229782        2.29584478682511        1.46778365663003
H           30.95654227360199        4.14161683861708        1.82196691342661
H           27.27405070731426        4.86940106458931        2.66133674605443
H           27.32907428677994        7.29306631630566        3.02854801137659
H           29.78097922447376        7.75692875014267       -0.49219802246073
H           29.71299053103712        5.33255064834628       -0.85156930368384
H           25.75412379369061        4.51679860899442        0.28835577993629
H           24.05339125674325        2.59559400239291       -0.08773145824229
Co          62.92910339983585       -0.00795402234937       -0.02405789389599
C           66.27749825880400        0.11019196856275       -0.05220500381168
C           65.60743088554536        1.24579685512362        0.25244473002531
C           66.26424630704048        2.49059169911915        0.62046717991527
C           65.31308271055764        3.40338302735644        0.82107931100562
C           64.01825601951674        2.76449904519341        0.57437969644796
N           64.20894020280417        1.40848878968710        0.22962133497378
C           62.81070346272506        3.39697095578648        0.65142167139795
C           62.77359033651680        4.84442431573278        0.98842018178444
C           62.26424977186017        5.26900326041051        2.22181512624579
C           62.20798847841090        6.62448097432943        2.53732728851655
C           62.66073547879660        7.59233460142723        1.61979804798094
N           62.60835552987314        9.00199447799098        1.94020644690556
O           63.02971758535499        9.87573520993324        1.07947501050965
O           62.17327418328357        9.35728193840035        3.02391141428199
C           63.16859889024312        7.16231404343140        0.38432076537752
C           63.22587659612081        5.80614581190613        0.07491068387504
C           61.54104717785042        2.72166651401810        0.41084443255396
C           60.26190469000152        3.41601305575179        0.28752046673364
C           59.31529030830535        2.49087269355168        0.09079131629761
N           61.38644465258133        1.41543213848532        0.28529273500904
C           59.98337269282300        1.20213442663770        0.09106580014642
C           59.39444579434757       -0.00692579817967       -0.00982133923195
C           60.16456338917366       -1.24111346942780       -0.01889762960435
C           59.63085815808894       -2.47133694704628        0.23194982271906
C           60.65592003576285       -3.43801369061674        0.03729364004383
C           61.78704971464342       -2.76694243418025       -0.32691995044754
N           61.54742535074637       -1.36977521917142       -0.35048045574195
C           63.04469565749311       -3.42927902153299       -0.68243173434099
C           63.03342972633764       -4.87773105678046       -1.03429048458053
C           63.70282850225855       -5.82127936852205       -0.24013395506101
C           63.66773860047348       -7.17652226095410       -0.56007122416275
C           62.96597750590559       -7.62679869720396       -1.68857123099158
N           62.93258185917419       -9.03536588265229       -2.01797566754189
O           63.51006630332816       -9.89429461503573       -1.23670530764781
O           62.35859628960486       -9.40386964699532       -3.03004671170987
C           62.29587120348683       -6.68013190496592       -2.48745531963578
C           62.32993919670979       -5.32588455361217       -2.16048260894725
C           64.21993726563029       -2.75293517060179       -0.69700305716743
C           65.52323721364787       -3.28840951956217       -1.06580107359571
C           66.40235572119099       -2.29806656800212       -0.87558054681756
C           65.65838446563122       -1.13915790894405       -0.40249090039971
N           64.36816925406518       -1.39767917839691       -0.30478784463176
H           67.36102049044709        0.14457934219322       -0.03397947207534
H           67.32828758568458        2.66155659415709        0.72094204973754
H           65.49989877985684        4.42780653387660        1.11463372046413
H           61.91217542435496        4.53479936645388        2.94089076693887
H           61.80701867276817        6.91979009562551        3.49999577942064
H           63.51992167954009        7.88405524939132       -0.34298436457095
H           63.61598783293068        5.49482363130023       -0.88917591227856
H           60.08613073271635        4.47908799925685        0.33472203299481
H           58.25985041243315        2.68796166854368       -0.03534730310500
H           58.60635025292596       -2.66471954698183        0.50258401155257
H           60.56112135205070       -4.50858165866030        0.13882930429391
H           64.24362271254294       -5.49800750545054        0.64407381571529
H           64.18859859725151       -7.88253627861710        0.07571825336142
H           61.73669463792285       -6.99242028290790       -3.36208535062274
H           61.80468508339417       -4.61017186853972       -2.78619991085890
H           65.76354926476222       -4.28135948083659       -1.42356673807684
H           67.46428197488953       -2.35930893487247       -1.05184295010389
C           38.37776497120291        0.01049510319738       -0.00481059055224
C           37.14866805879380       -0.00215616113596       -0.01325650697816
C           35.73675316185536        0.00631531871468       -0.02354201074528
C           34.50537959934258        0.01498398457260       -0.01351367037725
C           39.75861351815500        0.00443995944790       -0.00220678730157
C           40.97680990357708        0.01913329719245       -0.01367119649807
C           54.36809930600716        0.01067053990972       -0.00486396451554
C           53.13871555584433       -0.00138296688859       -0.01423580466785
C           51.75527986345936        0.00825871715196       -0.02397675176535
C           50.53664327963272        0.02657811505576       -0.01071781335622
C           55.77800940628693        0.00424878438814       -0.00388410656199
C           57.01052703660305        0.01102297653397       -0.01353430860160
Co          45.68159129286578        0.04697996104235       -0.03287627015285
C           42.32497928949963       -0.00653913950071        0.01976169409403
C           42.98220487437803       -1.20075892380995        0.11868476473475
C           42.32280200093455       -2.48594632101399        0.30429274286813
C           43.26994868309519       -3.42524913435804        0.29707618766385
C           44.55677528249110       -2.76220606295641        0.10594980865623
N           44.37083054533438       -1.36383243480378        0.00691508859303
C           45.75435554824602       -3.41053505685618        0.03424579381252
C           45.77631895364668       -4.89298241485230        0.10882825137381
C           46.24986636195329       -5.53525702850938        1.25904557954544
C           46.28746633021919       -6.92602259253038        1.32885721414884
C           45.85322512586581       -7.70796574545028        0.24084670019762
N           45.88790745469232       -9.15310098815836        0.30459628994809
O           45.53429819451446       -9.85206460528408       -0.72828260147666
O           46.24193015709490       -9.70309556987783        1.33536197638191
C           45.38088913958405       -7.05802537976186       -0.91038344625342
C           45.34150724056081       -5.66805099391892       -0.97311852469213
C           47.02860129510714       -2.72741131369307       -0.10351791212995
C           48.29456162298020       -3.40409092786979       -0.36815163079435
C           49.25606912699751       -2.47302117201932       -0.37529496825895
N           47.20047765818300       -1.42732719487048        0.03238507269824
C           48.58462692757536       -1.21479529014392       -0.11918298292897
C           49.18907045516797       -0.00891350876768        0.02977539557196
C           48.44643799823670        1.22245538182164        0.26714017009645
C           49.00517179143284        2.36139907972775        0.76025875231228
C           47.99320439004093        3.36310409789683        0.73750595961183
C           46.86754609504528        2.79039159601269        0.22510705595087
N           47.08824361592902        1.42348079739898       -0.05990491952724
C           45.63521445382486        3.52286976670353       -0.05615363916680
C           45.68682331581375        5.00353224360980       -0.20296499584007
C           46.46165621455058        5.58438739265360       -1.21531454378744
C           46.53206110663203        6.96789319372565       -1.35516597290944
C           45.82922202380258        7.81226532674907       -0.48227461525218
N           45.90364804920758        9.24953922714906       -0.63328327526955
O           46.60186794634461        9.76118328881554       -1.59879145243581
O           45.30261444527538        9.96945382320504        0.14794444340472
C           45.05288229890179        7.23059109748242        0.53830414844482
C           44.98309851502977        5.84495279062416        0.67227895188648
C           44.45183761079473        2.88009218186908       -0.20143415823306
C           43.17960067751488        3.48815279536903       -0.55282131476950
C           42.27414071266703        2.50415594125737       -0.52559126521369
C           42.97777557691434        1.27779291066794       -0.16695730148318
N           44.26238602095460        1.48948613371157        0.01105402272461
H           41.26584956575294       -2.68407972316680        0.42989631856884
H           43.08396372523983       -4.48327321973547        0.42126839340076
H           46.58736618215017       -4.94520226034016        2.10619064742421
H           46.66160657509183       -7.39400113843219        2.23288197596714
H           45.04166130137585       -7.63322491489139       -1.76338179858576
H           44.97904929620186       -5.18294829790390       -1.87396819191454
H           48.45283546879238       -4.45681087560364       -0.53231835994743
H           50.31089249138829       -2.65917372733539       -0.53968387178215
H           50.02856762820575        2.48481598967972        1.08150985397604
H           48.09720581769341        4.39312685262138        1.03881828865134
H           47.01182478664838        4.95044871131520       -1.90331530687122
H           47.14134013362550        7.38693419340205       -2.14650441109596
H           44.50034906716238        7.85214443350878        1.23425189419057
H           44.38683817278880        5.41525672973952        1.47205736902086
H           42.97682998400273        4.52176775654488       -0.80041847020882
H           41.22570305374659        2.62430486050232       -0.74799312040367
191