624
 energy: -1209.226872101382 gnorm: 0.000948189459 xtb: 6.5.1 (b24c23e)
C          102.05006833732226       -0.24703720126394        0.07492015115489
C          102.66399042979864       -1.01471904823423       -0.90631854430684
C          102.01607298648892       -1.79600283952592       -1.90394089333423
C          102.98149636011087       -2.39441549741281       -2.66345434179013
C          104.25100324533641       -2.00915914256499       -2.14549875704581
N          104.00828311139685       -1.16869203251496       -1.09619069472875
C          105.51764540576644       -2.38932857376060       -2.60426167742856
C          105.56053886443759       -3.33155617771936       -3.74987044727558
C          106.19058321441779       -2.94905829207559       -4.93754864044532
C          106.22682700707628       -3.82658051304945       -6.01378235710422
O          106.81888913789979       -3.51867891721373       -7.21040231941890
C          105.64330149735575       -5.08690635254203       -5.91151514913790
O          105.66749979779352       -5.97215306036085       -6.95682619051524
C          105.01699910485532       -5.47141546866674       -4.72481482500269
O          104.45568604708571       -6.70163765080325       -4.63373089626255
C          104.97306774352127       -4.59293191106210       -3.64841822671251
C          106.72802995649313       -1.94803829357167       -2.06370791302753
C          108.03020457987120       -2.42300829837981       -2.49594890256244
C          108.94346733485824       -1.77071936028829       -1.74705623238775
N          106.87273908745520       -1.04034608644984       -1.05890669940382
C          108.19818631495846       -0.90397130670043       -0.85503162948573
C          108.82689119575028       -0.04041178421667        0.06555910089953
C          108.18438038580791        0.80627897404452        0.98869321469481
C          108.82116269258030        1.70935019538832        1.88077556353043
C          107.85041922554481        2.33184440404253        2.61523858802248
C          106.58978034459268        1.81836619074404        2.20167355288129
N          106.84360593613178        0.90872220340422        1.20860843071956
C          105.32579111390295        2.16970454736980        2.68690266871465
C          105.28214359507828        3.15843386136558        3.79183094156118
C          105.92141774736707        2.89026152779696        5.00279820712570
C          105.87663977099527        3.81884281338744        6.03613189035470
O          106.48813444227140        3.56430879541790        7.21849026348086
C          105.19744180288878        5.02527765898575        5.85822698572755
O          105.17386568110363        5.92322907175336        6.89264684703005
C          104.56225918313829        5.29441321489508        4.64847370397544
O          103.92031594889930        6.50063061916295        4.54649073453132
C          104.59886655615774        4.36526008112665        3.61648467427790
C          104.11583015658891        1.65715839545490        2.20494612808445
C          102.81128325358767        1.97177818657993        2.76631968769998
C          101.90548277293850        1.29379646363407        2.03275221775995
C          102.65574631460078        0.55814117165647        1.03059229767485
N          103.98372163134491        0.79253973408425        1.17147797109174
H          100.96532483302596       -0.28405357114487        0.08651490684862
H          100.94687373497369       -1.87533156293188       -2.01942502394335
H          102.83287448262132       -3.04169745882895       -3.51238708948000
H          104.73185640567920       -0.72470591241268       -0.54067941442321
H          106.63411536130600       -1.96455967367902       -5.02903682356785
H          107.20361923093157       -2.63272310001267       -7.18569482021988
H          106.14008250256975       -5.55237101631572       -7.69323321882503
H          104.59349302677442       -7.16324670225753       -5.47735825298296
H          104.50076881904680       -4.90963393794293       -2.72746561028921
H          108.20087444894946       -3.16824810742517       -3.25593935248047
H          110.01807749679264       -1.85622984263125       -1.77116309292051
H          109.88681077523056        1.86109846853615        1.94070159503144
H          107.99180874219292        3.08618434876958        3.37180870573758
H          106.12558848045153        0.39161029935969        0.71192045766111
H          106.43604524685476        1.95097545908164        5.15907194361099
H          106.34227764843099        4.32307933319760        7.80733716771068
H          104.66272279054346        6.69665361865528        6.60563771989857
H          103.50571963314570        6.59709011755510        3.67913445797131
H          104.11543849225001        4.58831261865624        2.67262155745241
H          102.63756682253107        2.61220575633604        3.61615251187769
H          100.83242405172412        1.26707269727616        2.14085496904855
C          257.41060720865590       -0.12747555219619        0.25427399206762
C          256.79647568294803        0.64906074035892        1.22836418802215
C          257.44415900141809        1.42057383181214        2.23371635615973
C          256.47877903331636        2.02906715910291        2.98523018502829
C          255.20924385067201        1.63822882594483        2.47152694763734
N          255.45230726503596        0.81660159853879        1.40745466812824
C          253.94276053758762        2.01512002466103        2.93327952224037
C          253.90031500688266        2.90264624721909        4.12193168837493
C          253.29687927682758        4.15984470370453        4.02727389643716
C          253.26094146515845        4.99395137853796        5.13754340202201
O          252.69398498991984        6.24118430857917        5.11808354495734
C          253.81843658571267        4.57994951587352        6.34465515548758
O          253.79375919134358        5.38206598487459        7.45516875948933
C          254.41839016863523        3.32337457764657        6.44134174247520
O          254.95459004878856        2.92796475983543        7.62166473216023
C          254.46195212375494        2.48917567029021        5.33028371605141
C          252.73256614087293        1.61616781990437        2.36036515230044
C          251.42857497759607        1.94962041983525        2.90491393861352
C          250.51630252111249        1.38755058093702        2.08505158032949
N          252.58945695265174        0.85197617657080        1.24235773112518
C          251.26380569715857        0.70627505717808        1.04604844714937
C          250.63691317781243        0.01040770663249       -0.00799464385795
C          251.28039412006984       -0.70491612487013       -1.03562371011827
C          250.64529881667497       -1.36048288385803       -2.12367020291887
C          251.61653492106743       -1.93734376531190       -2.89376954426846
C          252.87570439678629       -1.66181437589015       -2.29166868034747
N          252.62064449970867       -0.90497412878438       -1.17801710014780
C          254.13973929443947       -2.05883307357714       -2.74004339739240
C          254.18521433283658       -2.89852931966736       -3.96210762158585
C          253.54043430501548       -4.13555757973610       -3.99195955908531
C          253.58651124553248       -4.91891870825169       -5.13928601733293
O          252.96961703818187       -6.12499177399464       -5.17547765568612
C          254.27260377529669       -4.46260229656858       -6.26602473282787
O          254.29720392095822       -5.25411786923611       -7.38396194877553
C          254.91346797460540       -3.22655511044138       -6.23728088955896
O          255.56220266459397       -2.84383666870748       -7.38193522290505
C          254.87560819237163       -2.44471985149497       -5.08968569460009
C          255.34831830509754       -1.72033216170178       -2.12068627779893
C          256.65188352400992       -2.20170090871746       -2.55074437914751
C          257.55627435158459       -1.65973488890460       -1.71014928812290
C          256.80605961057040       -0.85543822377433       -0.76213636138586
N          255.47951333985444       -0.92362828450691       -1.03387015825786
H          258.49463567080687       -0.16099477688660        0.29832288877569
H          258.51332309433997        1.49743046859197        2.35124408912996
H          256.62749885092171        2.69573333122273        3.81902179250798
H          254.72904739107918        0.39426914979201        0.83490692500133
H          252.87378312026178        4.49428575908823        3.08734972313811
H          252.32520541309094        6.43742737973850        4.24685774358324
H          253.34061188785384        6.20682469157250        7.21798039867823
H          254.82101594090719        3.63837918859109        8.27068230398208
H          254.91358148455970        1.50988249014460        5.42271593297113
H          251.25563617118110        2.52004865139064        3.80313451142316
H          249.44082749709750        1.40986272183281        2.15947797736128
H          249.58048509679185       -1.37637297557936       -2.29136020413178
H          251.47647280894745       -2.49799326237418       -3.80341210425990
H          253.33761836347568       -0.54608950166059       -0.55608620293099
H          253.02021149243137       -4.50805841077358       -3.11896333627403
H          253.11609273391505       -6.51695929641501       -6.05220524650092
H          254.81227114296397       -4.79338524169306       -8.06531372976468
H          255.97905916099833       -1.97968551559317       -7.26808480504979
H          255.36360779270248       -1.47719346581396       -5.07992682826883
H          256.82568162310400       -2.87532310053762       -3.37450239638350
H          258.62824985836835       -1.78085154181817       -1.70186309352628
C          110.23193509522812       -0.00982703791893        0.06837534787655
C          111.45650432623060        0.01128384491050        0.07011014462031
C          112.79872887836225        0.02911261305655        0.06929639177856
C          114.02952586037308        0.03997309548237        0.06589126788955
C          115.36701402778010        0.04587282362116        0.05494397131250
C          116.59788950827344        0.04985001976473        0.04647576651861
C          117.93998922300666        0.04847482532299        0.03768368426119
C          119.16491590915641        0.04738498428034        0.02852791297424
C          128.81887130202549        0.00637110344566       -0.00179418618172
C          130.04413009997478        0.00402258444752        0.00096512142654
C          131.38536506375399        0.00060550612635        0.00297143575495
C          132.61666102248179       -0.00192062828497        0.00555642979186
C          133.95322874095507       -0.00395390690978        0.00699864745904
C          135.18453248384708       -0.00430627826512        0.00725949593040
C          136.52571972396805       -0.00418337678838        0.00227589292042
C          137.75097650139381       -0.00212628488270        0.00240115822289
C          147.40037349884994        0.00337824081611       -0.00518226699474
C          148.62560803356101        0.00440337138711       -0.00191875733696
C          149.96669028707950        0.00589228158312       -0.00354550488612
C          151.19796668407881        0.00411407492182       -0.00009763559104
C          152.53441732210379        0.00510960436050       -0.00066065601416
C          153.76570766977909        0.00455846218667       -0.00077183189636
C          155.10680441637595        0.00354884134846       -0.00282901587295
C          156.33206757167136        0.00574834746389       -0.00547330515695
C          165.97883956135851        0.00776969628004       -0.01784693127038
C          167.20401545169142        0.00910345403010       -0.01775616245350
C          168.54501660375050        0.00788258671604       -0.01530414844420
C          169.77627837956598        0.00611559369301       -0.01622937352098
C          171.11267120200287        0.00557702182361       -0.01647813762171
C          172.34395741264373        0.00441047054371       -0.01634494809357
C          173.68501168222346        0.00253922895176       -0.01688476348407
C          174.91026658272062        0.00406612201088       -0.01800448679794
C          184.55610133365840        0.00843211689576       -0.01785367000451
C          185.78132664602524        0.01025136149058       -0.01757064059316
C          187.12236898748498        0.00802509807322       -0.01706200660179
C          188.35363397392882        0.00625180348194       -0.01651162207269
C          189.69002208856486        0.00620729766037       -0.01705367896302
C          190.92129028620215        0.00378351754166       -0.01694557110730
C          192.26233298154440        0.00212162806883       -0.01830577492299
C          193.48758519365657        0.00386512603097       -0.01996109013477
C          203.13428080188058        0.00689532143632       -0.01262873249655
C          204.35952706156695        0.00880167918689       -0.00980743792661
C          205.70062798590996        0.00715561776743       -0.00747164990567
C          206.93190125575379        0.00647281487926       -0.00639394526366
C          208.26831034925880        0.00410408826071       -0.00911641298616
C          209.49959407895795        0.00362015135728       -0.00672885106034
C          210.84069647977964        0.00357625083400       -0.00727453580747
C          212.06597767305803        0.00504122087522       -0.00713467539756
C          221.71519238648872        0.00362422056866        0.03171098110042
C          222.94044876110311        0.00651552351434        0.03725883627935
C          224.28165127312056        0.00537916446902        0.04015533879939
C          225.51291760393568        0.00750874745777        0.03840505059274
C          226.84945588417685        0.01074821214880        0.03462464405390
C          228.08076809356689        0.01557858421269        0.02812932258023
C          229.42196198338524        0.01588131519705        0.01593974480869
C          230.64717465349551        0.02236901968997        0.00320169181318
C          240.29949337987395        0.05586715992231       -0.12868129489546
C          241.52436433192139        0.05913868693244       -0.13453177537470
C          242.86656883564885        0.05889483118692       -0.13629515005440
C          244.09740489584919        0.05728507123702       -0.13247310937424
C          245.43497322532542        0.05056783207254       -0.12137018734938
C          246.66560363323563        0.04469503004299       -0.10456370997819
C          248.00778298232362        0.03537634621980       -0.07967793433826
C          249.23206074075702        0.02589529490445       -0.04888942213121
C          120.56927091823748        0.04120006902828        0.01771742323661
C          121.18784949473975       -1.22433847563047        0.00675642759829
C          120.52955325031367       -2.48034878693542        0.04221496669325
C          121.48613888442723       -3.45806786844393        0.00092095584969
C          122.75676406337111       -2.82569934087107       -0.07110206615363
N          122.52589994916696       -1.47588745598811       -0.05385514920765
C          124.01164676139548       -3.44524954025219       -0.13382118665376
C          124.01677400534101       -4.92807047325106       -0.18609171543239
C          124.64869127254265       -5.66409886264341        0.81698229418597
C          124.65953662656607       -7.05585327705109        0.78613411966847
O          125.26275393347441       -7.78287094600945        1.76201602137331
C          124.03727936014778       -7.73115605780321       -0.26904801443949
O          124.03543235559103       -9.08765531681286       -0.33051007682240
C          123.41027973313642       -6.98701084452208       -1.27208511388566
O          122.82466796553744       -7.70951133631358       -2.27940401342390
C          123.38907437279742       -5.59968252903081       -1.23712286290055
C          125.23911204593273       -2.78085739982666       -0.14967294713643
C          126.52096236557180       -3.44901003725639       -0.28520982960989
C          127.46208050865222       -2.48302425437336       -0.24590103683499
N          125.42217527328383       -1.43432023554605       -0.05489884085979
C          126.75328828747389       -1.22755308759919       -0.09760616559902
C          127.41544133546007        0.01382767903716       -0.00298462588946
C          126.79728799948835        1.27604794755459        0.09079718104565
C          127.45638570324533        2.52592310345126        0.21949248569771
C          126.50025062681584        3.50349892562956        0.25980020818318
C          125.22867492177512        2.87819743616001        0.14680095058805
N          125.45924493906884        1.53086102454330        0.05885693253126
C          123.97406213627934        3.49966546184386        0.14002217608091
C          123.96925044522652        4.98264738661435        0.20630363337525
C          124.59047627665029        5.73245152590428       -0.79293724430293
C          124.58316938341517        7.12100372818664       -0.72934334761857
O          125.17697463870989        7.85829135807430       -1.69894250640181
C          123.96059115997332        7.76483327385930        0.34133373512798
O          123.97330313598007        9.13401450527880        0.37982829900765
C          123.34411275227453        7.01603320259411        1.34076496966759
O          122.75874801055441        7.71774426371333        2.36131152240131
C          123.34288308299625        5.62832499876155        1.27594253128216
C          122.74586920719058        2.83813258738434        0.07851703542235
C          121.46364463878361        3.51504051259413        0.00379776028797
C          120.52203403894848        2.54908957412756       -0.02638056675921
C          121.23075114160321        1.28577476817484        0.01856271541680
N          122.56284115965370        1.48894957647215        0.06907213475436
H          119.46096841690276       -2.61084956706352        0.09899688358208
H          121.32677827836278       -4.52360159338800        0.02876231093067
H          123.25336703555607       -0.76899308991124       -0.07406906923156
H          125.12269414936495       -5.15099211858893        1.64609746314511
H          125.66013633396763       -7.20894629165092        2.43003527698455
H          123.55877237101961       -9.35489342905593       -1.13293352654643
H          122.42344989144962       -7.12476924304650       -2.93527943949562
H          122.90950178193559       -5.04592678376492       -2.03574085751357
H          126.66024299787885       -4.51067471075752       -0.40910865301702
H          128.53324950103323       -2.58317612594674       -0.31794659758127
H          128.52540806450156        2.65164843574174        0.27839246700572
H          126.65998675671253        4.56389326070949        0.36641304408194
H          124.73170239829696        0.82763050323555       -0.01431609270181
H          125.06210497390381        5.24479505948258       -1.63631503923154
H          125.06361741729961        8.79815693346184       -1.48079104802849
H          123.49938983418345        9.41538800474358        1.17865479705561
H          122.35107558384210        7.11934830661074        3.00108287122150
H          122.87370618488389        5.05169600842036        2.06437114014103
H          121.32426006289573        4.58319904150550       -0.03640040863507
H          119.45048946858749        2.65473281834810       -0.08377506943189
C          139.15435725432604       -0.00220796784376       -0.00068015084603
C          139.77889478787762       -1.26520907824093        0.00627104042663
C          139.12603889788650       -2.52349037199532        0.05524238112194
C          140.08694975050037       -3.49748481045847        0.02467839436523
C          141.35464742165618       -2.86034643360172       -0.05439492694964
N          141.11784046800022       -1.51133453178344       -0.05065777776402
C          142.61237897673934       -3.47434781582767       -0.11391863769414
C          142.62508635035599       -4.95728920248824       -0.15510933909597
C          143.26606534303187       -5.68250170619894        0.85014358884411
C          143.28408543955641       -7.07435549624112        0.82959785672492
O          143.89604460830199       -7.79089912962267        1.80776434278828
C          142.66003217333378       -7.76080287163779       -0.21732196478715
O          142.66507090244474       -9.11762186730022       -0.26862178163476
C          142.02400086473281       -7.02747386849773       -1.22269808455206
O          141.43724915062762       -7.76061228395420       -2.22149220267980
C          141.99559965767190       -5.64007367005283       -1.19790685035078
C          143.83619872183689       -2.80332290488430       -0.13711817223329
C          145.12143396296850       -3.46488165162847       -0.27187172072548
C          146.05712955165660       -2.49333585000312       -0.23973531352344
N          144.01170853216723       -1.45524708468900       -0.05028208051025
C          145.34157188755103       -1.24116836760101       -0.09638749569164
C          145.99708065514980        0.00412215647683       -0.00690904324365
C          145.37310468489912        1.26386395143342        0.08261104944459
C          146.02652223953797        2.51672495927081        0.21032298358334
C          145.06608896055403        3.49042266555773        0.24540705386219
C          143.79774559593508        2.85946699793488        0.12948983715934
N          144.03413838884072        1.51293104656521        0.04610830660523
C          142.54011771137104        3.47517341374393        0.11399317441011
C          142.52724642121868        4.95818532575426        0.17537699386647
C          143.15316476072158        5.70854278274002       -0.82052482313564
C          143.13799668263346        7.09721385134420       -0.76083803353790
O          143.73632021359089        7.83487784894172       -1.72725704154197
C          142.50278259173515        7.74070999167892        0.30263456434713
O          142.50806784211679        9.10995260403066        0.33743643859205
C          141.88150039549711        6.99138843232023        1.29870629182057
O          141.28361366538695        7.69274708552581        2.31220283757371
C          141.88810156510479        5.60354163882061        1.23769292066261
C          141.31606010352596        2.80700421773219        0.04788295674428
C          140.03086747027814        3.47635211978148       -0.04091979748970
C          139.09471889219390        2.50508253380551       -0.07089608083038
C          139.80991455378771        1.24602359995496       -0.01067725767755
N          141.14013111394078        1.45644355409762        0.04699329329420
H          138.05801360676503       -2.65802288363459        0.11310275353642
H          139.93221749878199       -4.56333175142586        0.06405669324796
H          141.84236499542052       -0.80168319971699       -0.07878191486507
H          143.74142872705093       -5.16075403081750        1.67306411479469
H          144.29426011121072       -7.20997838168830        2.46920184551560
H          142.18578430642171       -9.39350377836543       -1.06656315706879
H          141.02946825299728       -7.18319664885499       -2.87982299979388
H          141.50926117433971       -5.09484423522750       -1.99829081067226
H          145.26647059226241       -4.52635224623023       -0.39068123287894
H          147.12867442155084       -2.58785672800461       -0.31362663001609
H          147.09480992626897        2.64711365763073        0.27228987231231
H          145.22104905882966        4.55170678847768        0.35012361049142
H          143.30954621895151        0.80669920070261       -0.02757738756467
H          143.63438334917251        5.22117835478912       -1.65863300519233
H          143.61559791221117        8.77478836204397       -1.51326305751194
H          142.02503258858792        9.39121215678376        1.13082177869039
H          140.87282636157573        7.09398720299732        2.94962489106905
H          141.41510186318095        5.02659893422075        2.02361116517720
H          139.88613259636961        4.54340546959585       -0.09030509733688
H          138.02308808048949        2.60458052969483       -0.13680008270292
C          157.73533623307350        0.00500821512179       -0.00849645875442
C          158.35902446546379       -1.25838564807416       -0.00078050481030
C          157.70517484004193       -2.51612718876075        0.04953833032023
C          158.66531511862152       -3.49090036211374        0.02002700173411
C          159.93347002892236       -2.85480030400648       -0.05990598532240
N          159.69771147686615       -1.50558501465853       -0.05757435595094
C          161.19085809353817       -3.46942703561880       -0.11920402070694
C          161.20322614457709       -4.95237624850392       -0.15802510382153
C          161.84551489633390       -5.67590217517696        0.84762569394043
C          161.86289756060378       -7.06779368344394        0.82980710851615
O          162.47602496478567       -7.78267398948001        1.80844897859332
C          161.23687660298839       -7.75603596104612       -0.21476302522999
O          161.24113786491799       -9.11293945240728       -0.26330737707933
C          160.59966236783927       -7.02440666190611       -1.22063909289225
O          160.01104141486186       -7.75927637955806       -2.21703793231597
C          160.57190261377121       -5.63694711310344       -1.19854958818532
C          162.41468597029214       -2.79842339957960       -0.14409158934603
C          163.69978562810971       -3.45995810965412       -0.27983811333957
C          164.63539338889044       -2.48825874081270       -0.24971664992298
N          162.59010309254305       -1.45027290225878       -0.05845089607890
C          163.91988609974678       -1.23606441989553       -0.10624992165327
C          164.57557166939060        0.00917027838390       -0.01751210150445
C          163.95241116196001        1.26921433206969        0.07366569231051
C          164.60682490432961        2.52145168172965        0.20248600836439
C          163.64712685570063        3.49580952256768        0.23983914834972
C          162.37829217802906        2.86591477432158        0.12399925609561
N          162.61361808967800        1.51932708557248        0.03857178303288
C          161.12091831867690        3.48222285525288        0.10986096221702
C          161.10800807208929        4.96505398745880        0.17421072096559
C          161.73455099889767        5.71773558437944       -0.81953460618531
C          161.71889859476397        7.10627636239590       -0.75685321261486
O          162.31777116376503        7.84619371055275       -1.72118853545811
C          161.08256752816507        7.74730542954100        0.30744910340355
O          161.08735055215990        9.11645834126514        0.34516083521733
C          160.46064632471348        6.99566009892678        1.30137128032814
O          159.86161287942838        7.69464373209136        2.31582682388057
C          160.46773375371487        5.60796207812517        1.23736055442541
C          159.89689133182222        2.81420346598968        0.04256347490991
C          158.61171181581958        3.48354727442762       -0.04633010392880
C          157.67568704435791        2.51222207641630       -0.07781311467457
C          158.39099661579112        1.25316975980310       -0.01815081894925
N          159.72109703639239        1.46360390460456        0.04032590243245
H          156.63705189427625       -2.64977553934549        0.10763470993053
H          158.50974889292016       -4.55657800723958        0.06063748499800
H          160.42293047274362       -0.79666503312487       -0.08638898423131
H          162.32231923307080       -5.15274209815242        1.66881450446701
H          162.87555791927343       -7.20064093168952        2.46811173091950
H          160.76047118731691       -9.39022938230949       -1.05993201223753
H          159.60250128512504       -7.18303970979728       -2.87593163393627
H          160.08463505369110       -5.09310614536739       -1.99931164386019
H          163.84475371922943       -4.52150826168979       -0.39801822649431
H          165.70685023270866       -2.58273910518905       -0.32487010053240
H          165.67525237892229        2.65099148769530        0.26376724820408
H          163.80291660508701        4.55683005421545        0.34597633393297
H          161.88828636252398        0.81387254352630       -0.03538128005048
H          162.21649781306573        5.23235800153898       -1.65837480943232
H          162.19649599425961        8.78561321664871       -1.50535148311085
H          160.60345281349970        9.39589143240948        1.13866737452293
H          159.45038919313237        7.09438950809471        2.95155990390878
H          159.99418948565338        5.02918080153230        2.02159958290293
H          158.46693476983674        4.55062995764912       -0.09492320346759
H          156.60408893063214        2.61168644303425       -0.14430260989712
C          176.31349565506139        0.00351060673413       -0.01847651337558
C          176.93727573332140       -1.25979169016603       -0.00927865784902
C          176.28341618458481       -2.51755029766110        0.04065271636888
C          177.24367769699560       -3.49226317247667        0.01350586738038
C          178.51191420025822       -2.85610205137760       -0.06468699188491
N          178.27605097301978       -1.50690001446963       -0.06362704071799
C          179.76950024525172       -3.47048357148456       -0.12165293927804