      -----------------------------------------------------------      
     |                   =====================                   |     
     |                           x T B                           |     
     |                   =====================                   |     
     |                         S. Grimme                         |     
     |          Mulliken Center for Theoretical Chemistry        |     
     |                    University of Bonn                     |     
      -----------------------------------------------------------      

   * xtb version 6.5.1 (b24c23e) compiled by 'conda@728c89f4b128' on 2022-07-12

   xtb is free software: you can redistribute it and/or modify it under
   the terms of the GNU Lesser General Public License as published by
   the Free Software Foundation, either version 3 of the License, or
   (at your option) any later version.
   
   xtb is distributed in the hope that it will be useful,
   but WITHOUT ANY WARRANTY; without even the implied warranty of
   MERCHANTABILITY or FITNESS FOR A PARTICULAR PURPOSE.  See the
   GNU Lesser General Public License for more details.
   
   Cite this work as:
   * C. Bannwarth, E. Caldeweyher, S. Ehlert, A. Hansen, P. Pracht,
     J. Seibert, S. Spicher, S. Grimme, WIREs Comput. Mol. Sci., 2020, 11,
     e01493. DOI: 10.1002/wcms.1493
   
   for GFN2-xTB:
   * C. Bannwarth, S. Ehlert and S. Grimme., J. Chem. Theory Comput., 2019,
     15, 1652-1671. DOI: 10.1021/acs.jctc.8b01176
   for GFN1-xTB:
   * S. Grimme, C. Bannwarth, P. Shushkov, J. Chem. Theory Comput., 2017,
     13, 1989-2009. DOI: 10.1021/acs.jctc.7b00118
   for GFN0-xTB:
   * P. Pracht, E. Caldeweyher, S. Ehlert, S. Grimme, ChemRxiv, 2019, preprint.
     DOI: 10.26434/chemrxiv.8326202.v1
   for GFN-FF:
   * S. Spicher and S. Grimme, Angew. Chem. Int. Ed., 2020, 59, 15665-15673.
     DOI: 10.1002/anie.202004239
   
   for ALPB and GBSA implicit solvation:
   * S. Ehlert, M. Stahn, S. Spicher, S. Grimme, J. Chem. Theory Comput.,
     2021, 17, 4250-4261. DOI: 10.1021/acs.jctc.1c00471
   
   for DFT-D4:
   * E. Caldeweyher, C. Bannwarth and S. Grimme, J. Chem. Phys., 2017,
     147, 034112. DOI: 10.1063/1.4993215
   * E. Caldeweyher, S. Ehlert, A. Hansen, H. Neugebauer, S. Spicher,
     C. Bannwarth and S. Grimme, J. Chem. Phys., 2019, 150, 154122.
     DOI: 10.1063/1.5090222
   * E. Caldeweyher, J.-M. Mewes, S. Ehlert and S. Grimme, Phys. Chem. Chem. Phys.
     2020, 22, 8499-8512. DOI: 10.1039/D0CP00502A
   
   for sTDA-xTB:
   * S. Grimme and C. Bannwarth, J. Chem. Phys., 2016, 145, 054103.
     DOI: 10.1063/1.4959605
   
   in the mass-spec context:
   * V. Asgeirsson, C. Bauer and S. Grimme, Chem. Sci., 2017, 8, 4879.
     DOI: 10.1039/c7sc00601b
   * J. Koopman and S. Grimme, ACS Omega 2019, 4, 12, 15120-15133.
     DOI: 10.1021/acsomega.9b02011
   
   for metadynamics refer to:
   * S. Grimme, J. Chem. Theory Comput., 2019, 155, 2847-2862
     DOI: 10.1021/acs.jctc.9b00143
   
   for SPH calculations refer to:
   * S. Spicher and S. Grimme, J. Chem. Theory Comput., 2021, 17, 1701-1714
     DOI: 10.1021/acs.jctc.0c01306
   
   with help from (in alphabetical order)
   P. Atkinson, C. Bannwarth, F. Bohle, G. Brandenburg, E. Caldeweyher
   M. Checinski, S. Dohm, S. Ehlert, S. Ehrlich, I. Gerasimov, C. Hölzer
   A. Katbashev, J. Koopman, C. Lavigne, S. Lehtola, F. März, M. Müller,
   F. Musil, H. Neugebauer, J. Pisarek, C. Plett, P. Pracht, F. Pultar,
   J. Seibert, P. Shushkov, S. Spicher, M. Stahn, M. Steiner, T. Strunk,
   J. Stückrath, T. Rose, and J. Unsleber
   
 * started run on 2022/07/29 at 18:58:35.308     

           -------------------------------------------------
          |                Calculation Setup                |
           -------------------------------------------------

          program call               : xtb xtbopt.xyz --gfn 1 --vipea
          hostname                   : cx3-15-15.cx3.hpc.ic.ac.uk
          coordinate file            : xtbopt.xyz
          omp threads                :                     1

   ID    Z sym.   atoms
    1   26 Fe     1, 69, 149
    2    6 C      2-6, 8-11, 13-31, 34-41, 70-74, 76-79, 81-99, 102-109,
                  137-148, 150-154, 156-159, 161-179, 182-189
    3    7 N      7, 12, 32, 33, 75, 80, 100, 101, 155, 160, 180, 181
    4    1 H      42-68, 110-136, 190-215

           -------------------------------------------------
          |                 I P E A - x T B                 |
           -------------------------------------------------

        Reference                      10.1039/c7sc00601b
      * Hamiltonian:
        H0-scaling (s, p, d)           2.150000    2.300000    2.000000
        zeta-weighting                 0.000000
      * Dispersion:
        s8                             2.400000
        a1                             0.630000
        a2                             5.000000
        s9                             0.000000
      * Repulsion:
        kExp                           1.500000
        rExp                           1.000000
      * Coulomb:
        alpha                          1.000000
        third order                    atomic
        anisotropic                    false
      * Halogen bond correction:
        rad-scale                      1.300000
        damping                        0.440000


          ...................................................
          :                      SETUP                      :
          :.................................................:
          :  # basis functions                 850          :
          :  # atomic orbitals                 847          :
          :  # shells                          565          :
          :  # electrons                       644          :
          :  # halogen bonds                     0          :
          :  max. iterations                   250          :
          :  Hamiltonian                  GFN1-xTB          :
          :  restarted?                      false          :
          :  GBSA solvation                  false          :
          :  PC potential                    false          :
          :  electronic temp.          300.0000000     K    :
          :  accuracy                    1.0000000          :
          :  -> integral cutoff          0.2500000E+02      :
          :  -> integral neglect         0.1000000E-07      :
          :  -> SCF convergence          0.1000000E-05 Eh   :
          :  -> wf. convergence          0.2000000E-04 e    :
          :  Broyden damping             0.4000000          :
          ...................................................

 iter      E             dE          RMSdq      gap      omega  full diag
   1   -376.2432039 -0.376243E+03  0.113E+01    0.04       0.0  T
   2   -295.5731539  0.806700E+02  0.118E+01    0.28       1.0  T
   3   -387.5971932 -0.920240E+02  0.565E+00    0.01       1.0  T
   4    157.2918289  0.544889E+03  0.126E+01    0.21       1.0  T
   5    446.9387469  0.289647E+03  0.137E+01    0.11       1.0  T
   6   -349.7649492 -0.796704E+03  0.628E+00    0.01       1.0  T
   7   -375.2907187 -0.255258E+02  0.437E+00    0.05       1.0  T
   8   -364.2105144  0.110802E+02  0.624E+00    0.49       1.0  T
   9   -379.9794995 -0.157690E+02  0.467E+00    0.04       1.0  T
  10   -387.9056963 -0.792620E+01  0.401E+00    0.03       1.0  T
  11   -390.6343457 -0.272865E+01  0.323E+00    0.09       1.0  T
  12   -390.1566831  0.477663E+00  0.329E+00    0.09       1.0  T
  13   -380.5729902  0.958369E+01  0.417E+00    0.22       1.0  T
  14   -381.9842310 -0.141124E+01  0.398E+00    0.19       1.0  T
  15   -393.4520411 -0.114678E+02  0.216E+00    0.01       1.0  T
  16   -393.6166059 -0.164565E+00  0.251E+00    0.00       1.0  T
  17   -387.7046790  0.591193E+01  0.413E+00    0.00       1.0  T
  18   -381.9570517  0.574763E+01  0.499E+00    0.17       1.0  T
  19   -382.2857286 -0.328677E+00  0.495E+00    0.16       1.0  T
  20   -390.1735176 -0.788779E+01  0.365E+00    0.06       1.0  T
  21   -387.6109297  0.256259E+01  0.409E+00    0.00       1.0  T
  22   -392.5167392 -0.490581E+01  0.309E+00    0.04       1.0  T
  23   -392.1430011  0.373738E+00  0.309E+00    0.00       1.0  T
  24   -389.0299001  0.311310E+01  0.368E+00    0.00       1.0  T
  25   -389.2237694 -0.193869E+00  0.365E+00    0.00       1.0  T
  26   -389.3732624 -0.149493E+00  0.362E+00    0.00       1.0  T
  27   -393.8954787 -0.452222E+01  0.248E+00    0.00       1.0  T
  28   -390.1174250  0.377805E+01  0.341E+00    0.00       1.0  T
  29   -394.6940561 -0.457663E+01  0.226E+00    0.00       1.0  T
  30   -390.9941979  0.369986E+01  0.312E+00    0.04       1.0  T
  31   -391.7102420 -0.716044E+00  0.294E+00    0.06       1.0  T
  32   -391.7286724 -0.184304E-01  0.293E+00    0.08       1.0  T
  33   -392.0433685 -0.314696E+00  0.287E+00    0.06       1.0  T
  34   -392.2051100 -0.161742E+00  0.284E+00    0.05       1.0  T
  35   -395.2819860 -0.307688E+01  0.192E+00    0.00       1.0  T
  36   -393.1428468  0.213914E+01  0.284E+00    0.00       1.0  T
  37   -392.5415127  0.601334E+00  0.297E+00    0.00       1.0  T
  38   -391.1988009  0.134271E+01  0.319E+00    0.03       1.0  T
  39   -392.0322826 -0.833482E+00  0.302E+00    0.01       1.0  T
  40   -393.7165993 -0.168432E+01  0.260E+00    0.00       1.0  T
  41   -395.7642102 -0.204761E+01  0.176E+00    0.00       1.0  T
  42   -390.6990187  0.506519E+01  0.311E+00    0.04       1.0  T
  43   -395.0126891 -0.431367E+01  0.190E+00    0.01       1.0  T
  44   -390.9044856  0.410820E+01  0.306E+00    0.05       1.0  T
  45   -396.6839310 -0.577945E+01  0.909E-01    0.00       1.0  T
  46   -395.6302253  0.105371E+01  0.163E+00    0.00       1.0  T
  47   -395.8417138 -0.211488E+00  0.150E+00    0.00       1.0  T
  48   -395.4205924  0.421121E+00  0.162E+00    0.03       1.0  T
  49   -396.8340810 -0.141349E+01  0.694E-01    0.00       1.0  T
  50   -394.5966092  0.223747E+01  0.195E+00    0.03       1.0  T
  51   -396.7136714 -0.211706E+01  0.794E-01    0.00       1.0  T
  52   -396.6371897  0.764818E-01  0.865E-01    0.00       1.0  T
  53   -397.0969631 -0.459773E+00  0.188E-01    0.03       1.0  T
  54   -396.9036763  0.193287E+00  0.598E-01    0.01       1.0  T
  55   -396.1542565  0.749420E+00  0.121E+00    0.00       1.0  T
  56   -396.9684039 -0.814147E+00  0.494E-01    0.02       1.0  T
  57   -397.0669968 -0.985928E-01  0.292E-01    0.02       1.0  T
  58   -396.8266367  0.240360E+00  0.675E-01    0.01       1.0  T
  59   -396.9904515 -0.163815E+00  0.452E-01    0.01       1.0  T
  60   -397.1019443 -0.111493E+00  0.184E-01    0.03       1.0  T
  61   -397.0354779  0.664664E-01  0.374E-01    0.02       1.0  T
  62   -397.0053899  0.300880E-01  0.429E-01    0.02       1.0  T
  63   -397.0385870 -0.331970E-01  0.362E-01    0.02       1.0  T
  64   -397.1166979 -0.781110E-01  0.910E-02    0.03       1.0  T
  65   -397.1087658  0.793210E-02  0.143E-01    0.03       1.0  T
  66   -397.1143790 -0.561319E-02  0.107E-01    0.03       1.0  T
  67   -397.1198275 -0.544848E-02  0.545E-02    0.03       1.0  T
  68   -397.1200617 -0.234246E-03  0.533E-02    0.03       1.0  T
  69   -397.1169020  0.315974E-02  0.888E-02    0.03       1.0  T
  70   -397.1188923 -0.199027E-02  0.683E-02    0.03       1.0  T
  71   -397.1211853 -0.229307E-02  0.318E-02    0.03       1.0  T
  72   -397.1217928 -0.607430E-03  0.459E-03    0.03       1.5  T
  73   -397.1218043 -0.115018E-04  0.157E-03    0.03       4.4  T
  74   -397.1217896  0.147050E-04  0.536E-03    0.03       1.3  T
  75   -397.1216232  0.166366E-03  0.173E-02    0.03       1.0  T
  76   -397.1216288 -0.558813E-05  0.169E-02    0.03       1.0  T
  77   -397.1217391 -0.110324E-03  0.105E-02    0.03       1.0  T
  78   -397.1217820 -0.428408E-04  0.631E-03    0.03       1.1  T
  79   -397.1217975 -0.155762E-04  0.377E-03    0.03       1.8  T
  80   -397.1217982 -0.698724E-06  0.363E-03    0.03       1.9  T
  81   -397.1218037 -0.548935E-05  0.200E-03    0.03       3.4  T
  82   -397.1218049 -0.117374E-05  0.141E-03    0.03       4.8  T
  83   -397.1218060 -0.110935E-05  0.396E-04    0.03      17.2  T
  84   -397.1218057  0.289765E-06  0.769E-04    0.03       8.9  T
  85   -397.1218059 -0.168908E-06  0.568E-04    0.03      12.0  T
  86   -397.1218059 -0.566723E-07  0.492E-04    0.03      13.9  T
  87   -397.1218059  0.803570E-07  0.609E-04    0.03      11.2  T
  88   -397.1218059 -0.757404E-07  0.494E-04    0.03      13.8  T
  89   -397.1218061 -0.146052E-06  0.452E-05    0.03     150.7  T
  90   -397.1218061  0.733604E-08  0.117E-04    0.03      58.2  T

   *** convergence criteria satisfied after 90 iterations ***

         #    Occupation            Energy/Eh            Energy/eV
      -------------------------------------------------------------
         1        2.0000           -1.0225736             -27.8256
       ...           ...                  ...                  ...
       316        1.9301           -0.3522912              -9.5863
       317        1.6607           -0.3506477              -9.5416
       318        1.5808           -0.3504002              -9.5349
       319        1.5765           -0.3503878              -9.5345
       320        1.5537           -0.3503242              -9.5328
       321        1.5521           -0.3503197              -9.5327
       322        1.4849           -0.3501448              -9.5279 (HOMO)
       323        0.9619           -0.3490665              -9.4986 (LUMO)
       324        0.9261           -0.3489983              -9.4967
       325        0.9038           -0.3489557              -9.4956
       326                         -0.3192294              -8.6867
       327                         -0.3101343              -8.4392
       ...                                ...                  ...
       847                        517.5621566           14083.5831
      -------------------------------------------------------------
                  HL-Gap            0.0010782 Eh            0.0293 eV
             Fermi-level           -0.3491390 Eh           -9.5006 eV

 SCC (total)                   0 d,  0 h,  0 min, 23.646 sec
 SCC setup                      ...        0 min,  0.006 sec (  0.026%)
 Dispersion                     ...        0 min,  0.009 sec (  0.038%)
 classical contributions        ...        0 min,  0.003 sec (  0.013%)
 integral evaluation            ...        0 min,  0.599 sec (  2.534%)
 iterations                     ...        0 min, 21.678 sec ( 91.679%)
 molecular gradient             ...        0 min,  1.299 sec (  5.492%)
 printout                       ...        0 min,  0.052 sec (  0.218%)

         :::::::::::::::::::::::::::::::::::::::::::::::::::::
         ::                     SUMMARY                     ::
         :::::::::::::::::::::::::::::::::::::::::::::::::::::
         :: total energy            -389.018148294101 Eh    ::
         :: gradient norm              0.151189977355 Eh/a0 ::
         :: HOMO-LUMO gap              0.029340616740 eV    ::
         ::.................................................::
         :: SCC energy              -397.121806076943 Eh    ::
         :: -> electrostatic           0.180277940010 Eh    ::
         :: repulsion energy           8.288403399546 Eh    ::
         :: dispersion energy         -0.184745616704 Eh    ::
         :: halogen bond corr.         0.000000000000 Eh    ::
         :: add. restraining           0.000000000000 Eh    ::
         :: total charge              -0.000000000000 e     ::
         :::::::::::::::::::::::::::::::::::::::::::::::::::::

           ------------------------------------------------- 
          |        vertical delta SCC IP calculation        |
           ------------------------------------------------- 
   1   -396.6758697 -0.396676E+03  0.358E-01    0.03       0.0  T
   2   -391.7873339  0.488854E+01  0.303E+00    0.05       1.0  T
   3   -396.1313077 -0.434397E+01  0.953E-01    0.00       1.0  T
   4   -395.5111715  0.620136E+00  0.138E+00    0.00       1.0  T
   5   -395.3339667  0.177205E+00  0.147E+00    0.00       1.0  T
   6   -395.9674342 -0.633468E+00  0.108E+00    0.00       1.0  T
   7   -395.6053720  0.362062E+00  0.130E+00    0.01       1.0  T
   8   -395.9677219 -0.362350E+00  0.112E+00    0.00       1.0  T
   9   -395.9425831  0.251388E-01  0.113E+00    0.00       1.0  T
  10   -396.1121010 -0.169518E+00  0.101E+00    0.00       1.0  T
  11   -396.5169454 -0.404844E+00  0.596E-01    0.00       1.0  T
  12   -396.5402962 -0.233508E-01  0.560E-01    0.00       1.0  T
  13   -396.2206286  0.319668E+00  0.896E-01    0.01       1.0  T
  14   -396.5285350 -0.307906E+00  0.577E-01    0.00       1.0  T
  15   -396.6313037 -0.102769E+00  0.414E-01    0.00       1.0  T
  16   -396.7321099 -0.100806E+00  0.122E-01    0.00       1.0  T
  17   -396.6716359  0.604741E-01  0.327E-01    0.00       1.0  T
  18   -396.6305759  0.410600E-01  0.412E-01    0.01       1.0  T
  19   -396.7194844 -0.889085E-01  0.184E-01    0.00       1.0  T
  20   -396.7261612 -0.667686E-02  0.152E-01    0.00       1.0  T
  21   -396.7108083  0.153529E-01  0.216E-01    0.00       1.0  T
  22   -396.7248852 -0.140769E-01  0.158E-01    0.00       1.0  T
  23   -396.7388019 -0.139167E-01  0.594E-02    0.00       1.0  T
  24   -396.7405375 -0.173555E-02  0.300E-02    0.00       1.0  T
  25   -396.7405321  0.539147E-05  0.301E-02    0.00       1.0  T
  26   -396.7407610 -0.228916E-03  0.235E-02    0.00       1.0  T
  27   -396.7410376 -0.276590E-03  0.112E-02    0.00       1.0  T
  28   -396.7411148 -0.772509E-04  0.244E-03    0.00       2.8  T
  29   -396.7411107  0.411762E-05  0.351E-03    0.00       1.9  T
  30   -396.7411118 -0.111729E-05  0.326E-03    0.00       2.1  T
  31   -396.7411168 -0.492434E-05  0.171E-03    0.00       4.0  T
  32   -396.7411184 -0.165906E-05  0.618E-04    0.00      11.0  T
  33   -396.7411185 -0.916222E-07  0.483E-04    0.00      14.1  T
  34   -396.7411186 -0.131832E-06  0.149E-04    0.00      45.6  T
  35   -396.7411186 -0.128264E-07  0.445E-05    0.00     153.2  T
     SCC iter.                  ...        0 min,  8.356 sec
     gradient                   ...        0 min,  1.295 sec
------------------------------------------------------------------------
empirical IP shift (eV):    4.8455
delta SCC IP (eV):    5.5135
------------------------------------------------------------------------
           ------------------------------------------------- 
          |        vertical delta SCC EA calculation        |
           ------------------------------------------------- 
   1   -397.1933096 -0.397193E+03  0.721E-01    0.00       0.0  T
   2   -356.8260347  0.403673E+02  0.673E+00    0.07       1.0  T
   3   -396.2019934 -0.393760E+02  0.149E+00    0.01       1.0  T
   4   -396.5194628 -0.317469E+00  0.131E+00    0.00       1.0  T
   5   -393.6144121  0.290505E+01  0.249E+00    0.00       1.0  T
   6   -395.6705776 -0.205617E+01  0.176E+00    0.01       1.0  T
   7   -395.4171182  0.253459E+00  0.184E+00    0.00       1.0  T
   8   -396.3591042 -0.941986E+00  0.137E+00    0.00       1.0  T
   9   -397.0196647 -0.660561E+00  0.857E-01    0.02       1.0  T
  10   -396.6873515  0.332313E+00  0.110E+00    0.00       1.0  T
  11   -397.3060976 -0.618746E+00  0.485E-01    0.01       1.0  T
  12   -397.3374562 -0.313586E-01  0.419E-01    0.00       1.0  T
  13   -397.3419116 -0.445543E-02  0.403E-01    0.00       1.0  T
  14   -397.2937243  0.481872E-01  0.497E-01    0.03       1.0  T
  15   -397.3802431 -0.865187E-01  0.312E-01    0.01       1.0  T
  16   -397.4276571 -0.474140E-01  0.143E-01    0.01       1.0  T
  17   -397.4320724 -0.441530E-02  0.112E-01    0.00       1.0  T
  18   -397.4386248 -0.655245E-02  0.512E-02    0.00       1.0  T
  19   -397.4401548 -0.152994E-02  0.127E-02    0.00       1.0  T
  20   -397.4400083  0.146492E-03  0.197E-02    0.00       1.0  T
  21   -397.4400778 -0.695142E-04  0.167E-02    0.00       1.0  T
  22   -397.4401391 -0.612600E-04  0.136E-02    0.00       1.0  T
  23   -397.4401932 -0.541516E-04  0.100E-02    0.00       1.0  T
  24   -397.4402510 -0.577758E-04  0.298E-03    0.00       2.3  T
  25   -397.4402509  0.766807E-07  0.304E-03    0.00       2.2  T
  26   -397.4402512 -0.342455E-06  0.294E-03    0.00       2.3  T
  27   -397.4402546 -0.339905E-05  0.179E-03    0.00       3.8  T
  28   -397.4402558 -0.111376E-05  0.120E-03    0.00       5.7  T
  29   -397.4402562 -0.409946E-06  0.885E-04    0.00       7.7  T
  30   -397.4402566 -0.385044E-06  0.400E-04    0.00      17.1  T
  31   -397.4402566 -0.758248E-07  0.190E-04    0.00      35.8  T
  32   -397.4402567 -0.222325E-07  0.416E-05    0.00     164.1  T
     SCC iter.                  ...        0 min,  7.655 sec
     gradient                   ...        0 min,  1.294 sec
------------------------------------------------------------------------
empirical EA shift (eV):    4.8455
delta SCC EA (eV):    3.8200
------------------------------------------------------------------------
           -------------------------------------------------
          |                Property Printout                |
           -------------------------------------------------

    * Orbital Energies and Occupations

         #    Occupation            Energy/Eh            Energy/eV
      -------------------------------------------------------------
         1        2.0000           -0.9686689             -26.3588
       ...           ...                  ...                  ...
       311        2.0000           -0.3381083              -9.2004
       312        2.0000           -0.3334160              -9.0727
       313        2.0000           -0.3241376              -8.8202
       314        1.8960           -0.2912568              -7.9255
       315        1.8929           -0.2912268              -7.9247
       316        1.8881           -0.2911820              -7.9235
       317        1.8811           -0.2911208              -7.9218
       318        1.8344           -0.2907794              -7.9125
       319        1.8120           -0.2906455              -7.9089
       320        1.8089           -0.2906284              -7.9084
       321        1.7921           -0.2905383              -7.9059
       322        1.7379           -0.2902860              -7.8991
       323        0.8517           -0.2881480              -7.8409 (HOMO)
       324        0.8073           -0.2880581              -7.8385 (LUMO)
       325        0.7977           -0.2880385              -7.8379
       326                         -0.2657255              -7.2308
       327                         -0.2575280              -7.0077
       328                         -0.2516929              -6.8489
       329                         -0.2509865              -6.8297
       330                         -0.2508055              -6.8248
       331                         -0.2494483              -6.7878
       332                         -0.2237483              -6.0885
       333                         -0.2140524              -5.8247
       334                         -0.2087697              -5.6809
       ...                                ...                  ...
       847                        517.6137577           14084.9873
      -------------------------------------------------------------
                  HL-Gap            0.0000899 Eh            0.0024 eV
             Fermi-level           -0.2884415 Eh           -7.8489 eV

  Mulliken/CM5 charges         n(s)   n(p)   n(d)
     1Fe   -0.07135  0.36089   0.548  1.386  6.138
     2C    -0.01753 -0.05907   1.082  2.936  0.000
     3C     0.06228  0.12268   1.107  2.830  0.000
     4C    -0.04022 -0.08671   1.084  2.957  0.000
     5C    -0.03752 -0.08367   1.079  2.959  0.000
     6C     0.06373  0.12783   1.104  2.832  0.000
     7N    -0.17147 -0.43815   1.315  3.857  0.000
     8C     0.01268  0.01781   1.085  2.903  0.000
     9C     0.06323  0.12654   1.101  2.836  0.000
    10C    -0.03602 -0.08204   1.078  2.958  0.000
    11C    -0.03750 -0.08304   1.082  2.955  0.000
    12N    -0.16897 -0.43598   1.315  3.854  0.000
    13C     0.06848  0.13376   1.113  2.818  0.000
    14C     0.02227  0.02893   1.076  2.901  0.000
    15C     0.06855  0.13404   1.113  2.819  0.000
    16C    -0.03758 -0.08310   1.083  2.955  0.000
    17C    -0.03607 -0.08202   1.078  2.958  0.000
    18C     0.06323  0.12637   1.101  2.836  0.000
    19C     0.01301  0.01814   1.085  2.902  0.000
    20C     0.00637 -0.00243   1.090  2.904  0.000
    21C    -0.02560 -0.07710   1.063  2.963  0.000
    22C    -0.00129 -0.01904   1.096  2.906  0.000
    23C    -0.06102 -0.20576   1.074  2.987  0.000
    24C    -0.03191 -0.08369   1.063  2.969  0.000
    25C    -0.00121 -0.01895   1.096  2.905  0.000
    26C    -0.06101 -0.20575   1.074  2.987  0.000
    27C    -0.02578 -0.07716   1.065  2.961  0.000
    28C     0.06370  0.12799   1.103  2.833  0.000
    29C    -0.03776 -0.08379   1.079  2.959  0.000
    30C    -0.04031 -0.08680   1.084  2.956  0.000
    31C     0.06223  0.12252   1.108  2.830  0.000
    32N    -0.17148 -0.43835   1.315  3.857  0.000
    33N    -0.16899 -0.43558   1.315  3.854  0.000
    34C     0.00620 -0.00257   1.089  2.904  0.000
    35C    -0.02546 -0.07701   1.063  2.962  0.000
    36C    -0.00139 -0.01916   1.095  2.906  0.000
    37C    -0.06108 -0.20583   1.074  2.987  0.000
    38C    -0.03168 -0.08347   1.064  2.968  0.000
    39C    -0.00105 -0.01880   1.096  2.905  0.000
    40C    -0.06091 -0.20565   1.074  2.987  0.000
    41C    -0.02544 -0.07681   1.065  2.960  0.000
    42H     0.02551  0.08450   0.974  0.000  0.000
    43H     0.02769  0.08430   0.972  0.000  0.000
    44H     0.01876  0.07774   0.981  0.000  0.000
    45H     0.02088  0.07990   0.979  0.000  0.000
    46H     0.02622  0.08442   0.974  0.000  0.000
    47H     0.02615  0.08432   0.974  0.000  0.000
    48H     0.02122  0.08021   0.979  0.000  0.000
    49H     0.02331  0.08191   0.977  0.000  0.000
    50H     0.01905  0.07151   0.981  0.000  0.000
    51H     0.02428  0.07620   0.976  0.000  0.000
    52H     0.02155  0.07392   0.978  0.000  0.000
    53H     0.02886  0.08633   0.971  0.000  0.000
    54H     0.02007  0.07262   0.980  0.000  0.000
    55H     0.02037  0.07258   0.980  0.000  0.000
    56H     0.02514  0.07712   0.975  0.000  0.000
    57H     0.02319  0.08166   0.977  0.000  0.000
    58H     0.01906  0.07803   0.981  0.000  0.000
    59H     0.02761  0.08422   0.972  0.000  0.000
    60H     0.02306  0.08182   0.977  0.000  0.000
    61H     0.01967  0.07203   0.980  0.000  0.000
    62H     0.02053  0.07302   0.979  0.000  0.000
    63H     0.02435  0.07627   0.976  0.000  0.000
    64H     0.02899  0.08646   0.971  0.000  0.000
    65H     0.02330  0.07521   0.977  0.000  0.000
    66H     0.02037  0.07277   0.980  0.000  0.000
    67H     0.02246  0.07491   0.978  0.000  0.000
    68H     0.02354  0.08217   0.976  0.000  0.000
    69Fe   -0.07217  0.35758   0.547  1.387  6.139
    70C    -0.01733 -0.05884   1.082  2.935  0.000
    71C     0.06250  0.12297   1.108  2.830  0.000
    72C    -0.04014 -0.08662   1.084  2.956  0.000
    73C    -0.03743 -0.08353   1.079  2.959  0.000
    74C     0.06382  0.12772   1.104  2.832  0.000
    75N    -0.17170 -0.43787   1.315  3.857  0.000
    76C     0.01260  0.01765   1.085  2.903  0.000
    77C     0.06352  0.12670   1.102  2.835  0.000
    78C    -0.03597 -0.08200   1.078  2.958  0.000
    79C    -0.03728 -0.08284   1.082  2.955  0.000
    80N    -0.16936 -0.43501   1.315  3.854  0.000
    81C     0.06844  0.13360   1.113  2.819  0.000
    82C     0.02268  0.02939   1.076  2.901  0.000
    83C     0.06832  0.13355   1.113  2.819  0.000
    84C    -0.03740 -0.08295   1.083  2.955  0.000
    85C    -0.03610 -0.08206   1.078  2.958  0.000
    86C     0.06350  0.12666   1.102  2.835  0.000
    87C     0.01275  0.01780   1.085  2.903  0.000
    88C     0.00640 -0.00245   1.090  2.904  0.000
    89C    -0.02568 -0.07714   1.063  2.962  0.000
    90C    -0.00130 -0.01905   1.096  2.906  0.000
    91C    -0.06105 -0.20579   1.074  2.987  0.000
    92C    -0.03188 -0.08366   1.063  2.969  0.000
    93C    -0.00117 -0.01891   1.096  2.905  0.000
    94C    -0.06101 -0.20575   1.074  2.987  0.000
    95C    -0.02567 -0.07706   1.065  2.961  0.000
    96C     0.06385  0.12782   1.103  2.833  0.000
    97C    -0.03758 -0.08360   1.079  2.959  0.000
    98C    -0.04016 -0.08665   1.084  2.956  0.000
    99C     0.06251  0.12292   1.108  2.830  0.000
   100N    -0.17171 -0.43764   1.315  3.857  0.000
   101N    -0.16940 -0.43533   1.315  3.854  0.000
   102C     0.00629 -0.00254   1.090  2.904  0.000
   103C    -0.02555 -0.07707   1.063  2.962  0.000
   104C    -0.00135 -0.01910   1.096  2.906  0.000
   105C    -0.06109 -0.20583   1.074  2.987  0.000
   106C    -0.03169 -0.08347   1.063  2.968  0.000
   107C    -0.00104 -0.01879   1.096  2.905  0.000
   108C    -0.06094 -0.20568   1.074  2.987  0.000
   109C    -0.02544 -0.07684   1.065  2.961  0.000
   110H     0.02572  0.08472   0.974  0.000  0.000
   111H     0.02778  0.08439   0.972  0.000  0.000
   112H     0.01900  0.07800   0.981  0.000  0.000
   113H     0.02100  0.08007   0.979  0.000  0.000
   114H     0.02627  0.08449   0.974  0.000  0.000
   115H     0.02608  0.08424   0.974  0.000  0.000
   116H     0.02120  0.08022   0.979  0.000  0.000
   117H     0.02316  0.08174   0.977  0.000  0.000
   118H     0.01899  0.07145   0.981  0.000  0.000
   119H     0.02429  0.07621   0.976  0.000  0.000
   120H     0.02152  0.07388   0.978  0.000  0.000
   121H     0.02890  0.08637   0.971  0.000  0.000
   122H     0.02013  0.07268   0.980  0.000  0.000
   123H     0.02029  0.07252   0.980  0.000  0.000
   124H     0.02531  0.07728   0.975  0.000  0.000
   125H     0.02346  0.08194   0.977  0.000  0.000
   126H     0.01915  0.07813   0.981  0.000  0.000
   127H     0.02772  0.08433   0.972  0.000  0.000
   128H     0.02294  0.08163   0.977  0.000  0.000
   129H     0.01965  0.07201   0.980  0.000  0.000
   130H     0.02053  0.07301   0.979  0.000  0.000
   131H     0.02445  0.07636   0.976  0.000  0.000
   132H     0.02904  0.08650   0.971  0.000  0.000
   133H     0.02330  0.07520   0.977  0.000  0.000
   134H     0.02030  0.07270   0.980  0.000  0.000
   135H     0.02244  0.07488   0.978  0.000  0.000
   136H     0.02367  0.08227   0.976  0.000  0.000
   137C    -0.01602 -0.01611   1.076  2.940  0.000
   138C    -0.01644 -0.01654   1.076  2.940  0.000
   139C    -0.02062 -0.02139   1.063  2.957  0.000
   140C    -0.01506 -0.01680   1.093  2.922  0.000
   141C    -0.02071 -0.02143   1.063  2.957  0.000
   142C    -0.01442 -0.01605   1.093  2.921  0.000
   143C    -0.01584 -0.01595   1.076  2.939  0.000
   144C    -0.01520 -0.01530   1.077  2.938  0.000
   145C    -0.02039 -0.02111   1.064  2.957  0.000
   146C    -0.01374 -0.01538   1.094  2.919  0.000
   147C    -0.02002 -0.02079   1.064  2.956  0.000
   148C    -0.01460 -0.01636   1.094  2.921  0.000
   149Fe   -0.06810  0.36791   0.548  1.390  6.130
   150C     0.02212  0.02893   1.076  2.902  0.000
   151C     0.06872  0.13414   1.114  2.818  0.000
   152C    -0.03752 -0.08304   1.082  2.955  0.000
   153C    -0.03536 -0.08141   1.079  2.956  0.000
   154C     0.06309  0.12629   1.101  2.836  0.000
   155N    -0.16810 -0.43606   1.314  3.854  0.000
   156C     0.01474  0.01985   1.085  2.900  0.000
   157C     0.06328  0.12664   1.101  2.835  0.000
   158C    -0.03553 -0.08161   1.079  2.956  0.000
   159C    -0.03754 -0.08308   1.082  2.955  0.000
   160N    -0.16820 -0.43576   1.314  3.854  0.000
   161C     0.06845  0.13365   1.113  2.819  0.000
   162C     0.02214  0.02895   1.076  2.902  0.000
   163C     0.06830  0.13342   1.113  2.819  0.000
   164C    -0.03762 -0.08315   1.082  2.955  0.000
   165C    -0.03561 -0.08165   1.079  2.957  0.000
   166C     0.06321  0.12666   1.101  2.836  0.000
   167C     0.01470  0.01981   1.085  2.900  0.000
   168C     0.00641 -0.00232   1.089  2.905  0.000
   169C    -0.02501 -0.07640   1.064  2.961  0.000
   170C    -0.00092 -0.01867   1.096  2.905  0.000
   171C    -0.06086 -0.20561   1.074  2.987  0.000
   172C    -0.03133 -0.08312   1.064  2.967  0.000
   173C    -0.00095 -0.01870   1.096  2.905  0.000
   174C    -0.06084 -0.20559   1.074  2.987  0.000
   175C    -0.02506 -0.07645   1.064  2.961  0.000
   176C     0.06308  0.12617   1.101  2.836  0.000
   177C    -0.03536 -0.08144   1.079  2.956  0.000
   178C    -0.03754 -0.08305   1.082  2.956  0.000
   179C     0.06881  0.13432   1.113  2.818  0.000
   180N    -0.16805 -0.43566   1.314  3.854  0.000
   181N    -0.16824 -0.43633   1.314  3.854  0.000
   182C     0.00640 -0.00233   1.089  2.905  0.000
   183C    -0.02504 -0.07645   1.064  2.961  0.000
   184C    -0.00094 -0.01869   1.096  2.905  0.000
   185C    -0.06082 -0.20557   1.074  2.987  0.000
   186C    -0.03129 -0.08309   1.064  2.967  0.000
   187C    -0.00091 -0.01866   1.096  2.905  0.000
   188C    -0.06084 -0.20559   1.074  2.987  0.000
   189C    -0.02506 -0.07642   1.064  2.961  0.000
   190H     0.02597  0.08405   0.974  0.000  0.000
   191H     0.02052  0.07938   0.979  0.000  0.000
   192H     0.02052  0.07946   0.979  0.000  0.000
   193H     0.02582  0.08393   0.974  0.000  0.000
   194H     0.02562  0.08369   0.974  0.000  0.000
   195H     0.02051  0.07942   0.979  0.000  0.000
   196H     0.02402  0.08276   0.976  0.000  0.000
   197H     0.01967  0.07210   0.980  0.000  0.000
   198H     0.02410  0.07601   0.976  0.000  0.000
   199H     0.02231  0.07474   0.978  0.000  0.000
   200H     0.02909  0.08656   0.971  0.000  0.000
   201H     0.02079  0.07327   0.979  0.000  0.000
   202H     0.01979  0.07214   0.980  0.000  0.000
   203H     0.02552  0.07744   0.974  0.000  0.000
   204H     0.02387  0.08259   0.976  0.000  0.000
   205H     0.02038  0.07927   0.980  0.000  0.000
   206H     0.02589  0.08397   0.974  0.000  0.000
   207H     0.02406  0.08279   0.976  0.000  0.000
   208H     0.01878  0.07125   0.981  0.000  0.000
   209H     0.02595  0.07788   0.974  0.000  0.000
   210H     0.02154  0.07391   0.978  0.000  0.000
   211H     0.02906  0.08653   0.971  0.000  0.000
   212H     0.02051  0.07287   0.979  0.000  0.000
   213H     0.02170  0.07419   0.978  0.000  0.000
   214H     0.02392  0.07585   0.976  0.000  0.000
   215H     0.02389  0.08262   0.976  0.000  0.000

Wiberg/Mayer (AO) data.
largest (>0.10) Wiberg bond orders for each atom

 ---------------------------------------------------------------------------
     #   Z sym  total        # sym  WBO       # sym  WBO       # sym  WBO
 ---------------------------------------------------------------------------
     1  26 Fe   4.329 --     7 N    0.868    32 N    0.868    33 N    0.861
                            12 N    0.861
     2   6 C    3.836 --    31 C    1.395     3 C    1.392    42 H    0.997
     3   6 C    3.944 --     2 C    1.392     7 N    1.226     4 C    1.205
     4   6 C    3.854 --     5 C    1.636     3 C    1.205    43 H    0.993
     5   6 C    3.831 --     4 C    1.636     6 C    1.211    44 H    0.999
     6   6 C    3.924 --     8 C    1.366     7 N    1.226     5 C    1.211
     7   7 N    3.119 --     6 C    1.226     3 C    1.226     1 Fe   0.868
     8   6 C    3.840 --     9 C    1.369     6 C    1.366    34 C    1.048
     9   6 C    3.915 --     8 C    1.369    12 N    1.218    10 C    1.217
    10   6 C    3.825 --    11 C    1.623     9 C    1.217    45 H    0.998
    11   6 C    3.846 --    10 C    1.623    13 C    1.227    46 H    0.998
    12   7 N    3.124 --    13 C    1.247     9 C    1.218     1 Fe   0.861
    13   6 C    3.922 --    14 C    1.301    12 N    1.247    11 C    1.227
    14   6 C    3.863 --    13 C    1.301    15 C    1.300   140 C    1.217
    15   6 C    3.921 --    14 C    1.300    33 N    1.250    16 C    1.227
    16   6 C    3.849 --    17 C    1.624    15 C    1.227    47 H    0.998
    17   6 C    3.827 --    16 C    1.624    18 C    1.216    48 H    0.999
    18   6 C    3.914 --    19 C    1.375    17 C    1.216    33 N    1.214
    19   6 C    3.840 --    18 C    1.375    28 C    1.364    20 C    1.043
    20   6 C    3.904 --    21 C    1.434    27 C    1.423    19 C    1.043
    21   6 C    3.825 --    20 C    1.434    22 C    1.429    49 H    0.996
    22   6 C    3.923 --    24 C    1.437    21 C    1.429    23 C    1.009
    23   6 C    3.919 --    22 C    1.009    50 H    0.999    52 H    0.996
                            51 H    0.987
    24   6 C    3.835 --    22 C    1.437    25 C    1.425    53 H    0.995
    25   6 C    3.924 --    27 C    1.440    24 C    1.425    26 C    1.009
    26   6 C    3.918 --    25 C    1.009    54 H    0.999    55 H    0.994
                            56 H    0.988
    27   6 C    3.830 --    25 C    1.440    20 C    1.423    57 H    0.995
    28   6 C    3.922 --    19 C    1.364    32 N    1.229    29 C    1.211
    29   6 C    3.832 --    30 C    1.636    28 C    1.211    58 H    0.999
    30   6 C    3.855 --    29 C    1.636    31 C    1.204    59 H    0.993
    31   6 C    3.944 --     2 C    1.395    32 N    1.224    30 C    1.204
    32   7 N    3.119 --    28 C    1.229    31 C    1.224     1 Fe   0.868
    33   7 N    3.125 --    15 C    1.250    18 C    1.214     1 Fe   0.861
    34   6 C    3.903 --    41 C    1.427    35 C    1.426     8 C    1.048
    35   6 C    3.824 --    36 C    1.436    34 C    1.426    60 H    0.996
    36   6 C    3.922 --    35 C    1.436    38 C    1.430    37 C    1.009
    37   6 C    3.918 --    36 C    1.009    62 H    0.998    61 H    0.997
                            63 H    0.987
    38   6 C    3.835 --    39 C    1.432    36 C    1.430    64 H    0.995
    39   6 C    3.923 --    41 C    1.435    38 C    1.432    40 C    1.009
    40   6 C    3.918 --    39 C    1.009    66 H    0.998    67 H    0.997
                            65 H    0.988
    41   6 C    3.829 --    39 C    1.435    34 C    1.427    68 H    0.996
    42   1 H    1.035 --     2 C    0.997
    43   1 H    1.026 --     4 C    0.993
    44   1 H    1.045 --     5 C    0.999
    45   1 H    1.043 --    10 C    0.998
    46   1 H    1.035 --    11 C    0.998
    47   1 H    1.035 --    16 C    0.998
    48   1 H    1.041 --    17 C    0.999
    49   1 H    1.045 --    21 C    0.996
    50   1 H    1.037 --    23 C    0.999
    51   1 H    1.034 --    23 C    0.987
    52   1 H    1.035 --    23 C    0.996
    53   1 H    1.019 --    24 C    0.995
    54   1 H    1.035 --    26 C    0.999
    55   1 H    1.036 --    26 C    0.994
    56   1 H    1.035 --    26 C    0.988
    57   1 H    1.046 --    27 C    0.995
    58   1 H    1.044 --    29 C    0.999
    59   1 H    1.026 --    30 C    0.993
    60   1 H    1.045 --    35 C    0.996
    61   1 H    1.036 --    37 C    0.997
    62   1 H    1.036 --    37 C    0.998
    63   1 H    1.034 --    37 C    0.987
    64   1 H    1.019 --    38 C    0.995
    65   1 H    1.034 --    40 C    0.988
    66   1 H    1.036 --    40 C    0.998
    67   1 H    1.035 --    40 C    0.997
    68   1 H    1.045 --    41 C    0.996
    69  26 Fe   4.323 --   100 N    0.867    75 N    0.866    80 N    0.861
                           101 N    0.861
    70   6 C    3.837 --    99 C    1.395    71 C    1.393   110 H    0.997
    71   6 C    3.945 --    70 C    1.393    75 N    1.226    72 C    1.205
    72   6 C    3.854 --    73 C    1.636    71 C    1.205   111 H    0.993
    73   6 C    3.831 --    72 C    1.636    74 C    1.211   112 H    0.999
    74   6 C    3.924 --    76 C    1.367    75 N    1.226    73 C    1.211
    75   7 N    3.118 --    74 C    1.226    71 C    1.226    69 Fe   0.866
    76   6 C    3.841 --    77 C    1.371    74 C    1.367   102 C    1.046
    77   6 C    3.916 --    76 C    1.371    80 N    1.218    78 C    1.216
    78   6 C    3.827 --    79 C    1.626    77 C    1.216   113 H    0.999
    79   6 C    3.847 --    78 C    1.626    81 C    1.225   114 H    0.998
    80   7 N    3.123 --    81 C    1.245    77 C    1.218    69 Fe   0.861
    81   6 C    3.924 --    82 C    1.309    80 N    1.245    79 C    1.225
    82   6 C    3.866 --    81 C    1.309    83 C    1.308   148 C    1.203
    83   6 C    3.924 --    82 C    1.308   101 N    1.247    84 C    1.225
    84   6 C    3.848 --    85 C    1.626    83 C    1.225   115 H    0.998
    85   6 C    3.828 --    84 C    1.626    86 C    1.215   116 H    0.999
    86   6 C    3.915 --    87 C    1.373   101 N    1.217    85 C    1.215
    87   6 C    3.841 --    86 C    1.373    96 C    1.367    88 C    1.042
    88   6 C    3.904 --    89 C    1.435    95 C    1.424    87 C    1.042
    89   6 C    3.826 --    88 C    1.435    90 C    1.429   117 H    0.996
    90   6 C    3.923 --    92 C    1.437    89 C    1.429    91 C    1.009
    91   6 C    3.918 --    90 C    1.009   118 H    0.999   120 H    0.996
                           119 H    0.987
    92   6 C    3.836 --    90 C    1.437    93 C    1.425   121 H    0.995
    93   6 C    3.924 --    95 C    1.440    92 C    1.425    94 C    1.009
    94   6 C    3.918 --    93 C    1.009   122 H    0.999   123 H    0.995
                           124 H    0.988
    95   6 C    3.829 --    93 C    1.440    88 C    1.424   125 H    0.995
    96   6 C    3.923 --    87 C    1.367   100 N    1.227    97 C    1.211
    97   6 C    3.832 --    98 C    1.637    96 C    1.211   126 H    0.999
    98   6 C    3.855 --    97 C    1.637    99 C    1.204   127 H    0.993
    99   6 C    3.945 --    70 C    1.395   100 N    1.225    98 C    1.204
   100   7 N    3.119 --    96 C    1.227    99 C    1.225    69 Fe   0.867
   101   7 N    3.124 --    83 C    1.247    86 C    1.217    69 Fe   0.861
   102   6 C    3.903 --   109 C    1.428   103 C    1.427    76 C    1.046
   103   6 C    3.825 --   104 C    1.436   102 C    1.427   128 H    0.996
   104   6 C    3.922 --   103 C    1.436   106 C    1.430   105 C    1.009
   105   6 C    3.918 --   104 C    1.009   130 H    0.998   129 H    0.997
                           131 H    0.987
   106   6 C    3.835 --   107 C    1.432   104 C    1.430   132 H    0.995
   107   6 C    3.923 --   109 C    1.434   106 C    1.432   108 C    1.009
   108   6 C    3.918 --   107 C    1.009   134 H    0.998   135 H    0.996
                           133 H    0.988
   109   6 C    3.828 --   107 C    1.434   102 C    1.428   136 H    0.995
   110   1 H    1.035 --    70 C    0.997
   111   1 H    1.026 --    72 C    0.993
   112   1 H    1.045 --    73 C    0.999
   113   1 H    1.043 --    78 C    0.999
   114   1 H    1.035 --    79 C    0.998
   115   1 H    1.036 --    84 C    0.998
   116   1 H    1.041 --    85 C    0.999
   117   1 H    1.044 --    89 C    0.996
   118   1 H    1.037 --    91 C    0.999
   119   1 H    1.034 --    91 C    0.987
   120   1 H    1.035 --    91 C    0.996
   121   1 H    1.019 --    92 C    0.995
   122   1 H    1.035 --    94 C    0.999
   123   1 H    1.036 --    94 C    0.995
   124   1 H    1.034 --    94 C    0.988
   125   1 H    1.045 --    95 C    0.995
   126   1 H    1.044 --    97 C    0.999
   127   1 H    1.026 --    98 C    0.993
   128   1 H    1.045 --   103 C    0.996
   129   1 H    1.036 --   105 C    0.997
   130   1 H    1.036 --   105 C    0.998
   131   1 H    1.034 --   105 C    0.987
   132   1 H    1.019 --   106 C    0.995
   133   1 H    1.034 --   108 C    0.988
   134   1 H    1.036 --   108 C    0.998
   135   1 H    1.035 --   108 C    0.996
   136   1 H    1.045 --   109 C    0.995
   137   6 C    3.842 --   138 C    2.376   141 C    1.358   140 C    0.178
   138   6 C    3.841 --   137 C    2.376   139 C    1.358   142 C    0.177
   139   6 C    3.827 --   140 C    2.478   138 C    1.358
   140   6 C    3.769 --   139 C    2.478    14 C    1.217   137 C    0.178
   141   6 C    3.826 --   142 C    2.476   137 C    1.358
   142   6 C    3.769 --   141 C    2.476   150 C    1.219   138 C    0.177
   143   6 C    3.840 --   144 C    2.395   147 C    1.342   146 C    0.176
   144   6 C    3.842 --   143 C    2.395   145 C    1.343   148 C    0.176
   145   6 C    3.827 --   146 C    2.492   144 C    1.343
   146   6 C    3.770 --   145 C    2.492   162 C    1.206   143 C    0.176
   147   6 C    3.829 --   148 C    2.496   143 C    1.342
   148   6 C    3.770 --   147 C    2.496    82 C    1.203   144 C    0.176
   149  26 Fe   4.300 --   160 N    0.866   180 N    0.865   181 N    0.865
                           155 N    0.863
   150   6 C    3.857 --   179 C    1.299   151 C    1.298   142 C    1.219
   151   6 C    3.920 --   150 C    1.298   155 N    1.247   152 C    1.230
   152   6 C    3.844 --   153 C    1.619   151 C    1.230   190 H    0.998
   153   6 C    3.826 --   152 C    1.619   154 C    1.220   191 H    0.999
   154   6 C    3.912 --   156 C    1.367   153 C    1.220   155 N    1.216
   155   7 N    3.119 --   151 C    1.247   154 C    1.216   149 Fe   0.863
   156   6 C    3.836 --   157 C    1.368   154 C    1.367   182 C    1.049
   157   6 C    3.912 --   156 C    1.368   158 C    1.218   160 N    1.216
   158   6 C    3.828 --   159 C    1.622   157 C    1.218   192 H    0.999
   159   6 C    3.844 --   158 C    1.622   161 C    1.227   193 H    0.998
   160   7 N    3.119 --   161 C    1.244   157 C    1.216   149 Fe   0.866
   161   6 C    3.922 --   162 C    1.305   160 N    1.244   159 C    1.227
   162   6 C    3.859 --   161 C    1.305   163 C    1.305   146 C    1.206
   163   6 C    3.922 --   162 C    1.305   181 N    1.243   164 C    1.229
   164   6 C    3.844 --   165 C    1.620   163 C    1.229   194 H    0.998
   165   6 C    3.828 --   164 C    1.620   166 C    1.220   195 H    0.999
   166   6 C    3.912 --   167 C    1.364   165 C    1.220   181 N    1.218
   167   6 C    3.836 --   176 C    1.371   166 C    1.364   168 C    1.049
   168   6 C    3.902 --   169 C    1.428   175 C    1.424   167 C    1.049
   169   6 C    3.825 --   170 C    1.434   168 C    1.428   196 H    0.996
   170   6 C    3.923 --   169 C    1.434   172 C    1.433   171 C    1.009
   171   6 C    3.917 --   170 C    1.009   197 H    0.998   199 H    0.996
                           198 H    0.987
   172   6 C    3.835 --   170 C    1.433   173 C    1.429   200 H    0.995
   173   6 C    3.923 --   175 C    1.438   172 C    1.429   174 C    1.009
   174   6 C    3.917 --   173 C    1.009   201 H    0.998   202 H    0.997
                           203 H    0.987
   175   6 C    3.826 --   173 C    1.438   168 C    1.424   204 H    0.996
   176   6 C    3.912 --   167 C    1.371   177 C    1.219   180 N    1.213
   177   6 C    3.826 --   178 C    1.621   176 C    1.219   205 H    0.999
   178   6 C    3.844 --   177 C    1.621   179 C    1.229   206 H    0.998
   179   6 C    3.920 --   150 C    1.299   180 N    1.248   178 C    1.229
   180   7 N    3.119 --   179 C    1.248   176 C    1.213   149 Fe   0.865
   181   7 N    3.118 --   163 C    1.243   166 C    1.218   149 Fe   0.865
   182   6 C    3.902 --   183 C    1.429   189 C    1.423   156 C    1.049
   183   6 C    3.825 --   184 C    1.432   182 C    1.429   207 H    0.996
   184   6 C    3.923 --   186 C    1.434   183 C    1.432   185 C    1.009
   185   6 C    3.917 --   184 C    1.009   208 H    0.999   210 H    0.996
                           209 H    0.987
   186   6 C    3.835 --   184 C    1.434   187 C    1.427   211 H    0.995
   187   6 C    3.923 --   189 C    1.439   186 C    1.427   188 C    1.009
   188   6 C    3.918 --   187 C    1.009   213 H    0.997   212 H    0.997
                           214 H    0.987
   189   6 C    3.826 --   187 C    1.439   182 C    1.423   215 H    0.996
   190   1 H    1.035 --   152 C    0.998
   191   1 H    1.045 --   153 C    0.999
   192   1 H    1.044 --   158 C    0.999
   193   1 H    1.036 --   159 C    0.998
   194   1 H    1.036 --   164 C    0.998
   195   1 H    1.043 --   165 C    0.999
   196   1 H    1.044 --   169 C    0.996
   197   1 H    1.036 --   171 C    0.998
   198   1 H    1.034 --   171 C    0.987
   199   1 H    1.035 --   171 C    0.996
   200   1 H    1.019 --   172 C    0.995
   201   1 H    1.035 --   174 C    0.998
   202   1 H    1.036 --   174 C    0.997
   203   1 H    1.033 --   174 C    0.987
   204   1 H    1.044 --   175 C    0.996
   205   1 H    1.045 --   177 C    0.999
   206   1 H    1.035 --   178 C    0.998
   207   1 H    1.044 --   183 C    0.996
   208   1 H    1.036 --   185 C    0.999
   209   1 H    1.033 --   185 C    0.987
   210   1 H    1.035 --   185 C    0.996
   211   1 H    1.020 --   186 C    0.995
   212   1 H    1.036 --   188 C    0.997
   213   1 H    1.035 --   188 C    0.997
   214   1 H    1.034 --   188 C    0.987
   215   1 H    1.044 --   189 C    0.996
 ---------------------------------------------------------------------------

Topologies differ in total number of bonds
Writing topology from bond orders to xtbtopo.mol

 dipole moment from electron density (au)
     X       Y       Z   
 -83.7466  -0.1171   0.1893  total (Debye):  212.863


           -------------------------------------------------
          | TOTAL ENERGY             -389.336598867849 Eh   |
          | GRADIENT NORM               0.151040221299 Eh/α |
          | HOMO-LUMO GAP               0.002445660939 eV   |
           -------------------------------------------------
########################################################################
[WARNING] Runtime exception occurred
-1- restart_readRestart: Dimension missmatch in restart file.
########################################################################

------------------------------------------------------------------------
 * finished run on 2022/07/29 at 18:59:19.519     
------------------------------------------------------------------------
 total:
 * wall-time:     0 d,  0 h,  0 min, 44.211 sec
 *  cpu-time:     0 d,  0 h,  0 min, 43.931 sec
 * ratio c/w:     0.994 speedup
 SCF:
 * wall-time:     0 d,  0 h,  0 min, 43.581 sec
 *  cpu-time:     0 d,  0 h,  0 min, 43.352 sec
 * ratio c/w:     0.995 speedup

