215
 energy: -343.037703998497 gnorm: 1.734399239487 xtb: 6.5.1 (b24c23e)
Fe          27.72869500000000       -0.01805900000000       -0.01908900000000
C           24.37000600000000        0.18520200000000       -0.25439900000000
C           25.03432600000000        1.28603800000000        0.10707700000000
C           24.38467700000000        2.52952700000000        0.50452200000000
C           25.32739100000000        3.40536700000000        0.79467500000000
C           26.63311200000000        2.76459900000000        0.58736300000000
N           26.45394700000000        1.41604300000000        0.15429000000000
C           27.82828500000000        3.36010700000000        0.77363600000000
C           29.12360200000000        2.66864600000000        0.54581400000000
C           30.42037200000000        3.35528800000000        0.54671100000000
C           31.35355500000000        2.45232000000000        0.32964400000000
N           29.25647200000000        1.39439700000000        0.33386900000000
C           30.65992900000000        1.17731700000000        0.18635200000000
C           31.25151800000000       -0.01279400000000       -0.01263600000000
C           30.49295000000000       -1.27926900000000       -0.15374500000000
C           31.05013800000000       -2.48379400000000       -0.13743000000000
C           30.00290200000000       -3.44937700000000       -0.39740500000000
C           28.86873400000000       -2.77504500000000       -0.55220800000000
C           27.56678100000000       -3.39959500000000       -0.91084100000000
C           27.54171500000000       -4.84138900000000       -1.24540600000000
C           27.47523800000000       -5.25444100000000       -2.58366600000000
C           27.47059600000000       -6.62035000000000       -2.90317000000000
C           27.36481400000000       -7.06022100000000       -4.33349700000000
C           27.49840200000000       -7.57238800000000       -1.87221600000000
C           27.55546500000000       -7.16729600000000       -0.53037500000000
C           27.62221000000000       -8.19788300000000        0.55815600000000
C           27.58700300000000       -5.79890000000000       -0.22190400000000
C           26.41363600000000       -2.70519500000000       -0.92469900000000
C           25.09296600000000       -3.24563600000000       -1.24322100000000
C           24.23771200000000       -2.26113100000000       -1.05378300000000
C           25.00139500000000       -1.09319300000000       -0.61817800000000
N           26.27161400000000       -1.34018500000000       -0.53901000000000
N           29.08895300000000       -1.36983100000000       -0.40522500000000
C           27.87781700000000        4.77037200000000        1.21833600000000
C           27.56233400000000        5.80586300000000        0.32655600000000
C           27.60532000000000        7.14213900000000        0.74984400000000
C           27.28517500000000        8.25115400000000       -0.20869800000000
C           28.00595600000000        7.44024900000000        2.06087100000000
C           28.34698400000000        6.41169200000000        2.95191700000000
C           28.72931500000000        6.73246300000000        4.36657800000000
C           28.26586800000000        5.07680600000000        2.52989900000000
H           23.28705600000000        0.22218100000000       -0.27267800000000
H           23.32006200000000        2.71608000000000        0.56389900000000
H           25.14145800000000        4.41805200000000        1.12730400000000
H           30.60029600000000        4.41219800000000        0.69317500000000
H           32.41579300000000        2.64983400000000        0.27490300000000
H           32.09577700000000       -2.71525700000000        0.01275400000000
H           30.13846400000000       -4.51906300000000       -0.48384900000000
H           27.43115300000000       -4.51303300000000       -3.37347200000000
H           27.86731300000000       -8.03998300000000       -4.48105400000000
H           26.29449300000000       -7.15667600000000       -4.61102200000000
H           27.84933800000000       -6.32156600000000       -5.00762800000000
H           27.47726600000000       -8.62885200000000       -2.11371100000000
H           27.45364700000000       -7.74266300000000        1.55847300000000
H           26.84344100000000       -8.97281900000000        0.39467900000000
H           28.62138900000000       -8.68192200000000        0.54898000000000
H           27.64377000000000       -5.47518400000000        0.81151700000000
H           24.83911600000000       -4.24899100000000       -1.55831900000000
H           23.16611200000000       -2.32264400000000       -1.19095200000000
H           27.27830800000000        5.57035900000000       -0.69247800000000
H           26.79627200000000        9.09500800000000        0.32333400000000
H           26.59398400000000        7.89926600000000       -1.00364200000000
H           28.22245600000000        8.61482000000000       -0.67863400000000
H           28.05177200000000        8.47306500000000        2.38694900000000
H           27.81985400000000        6.73969300000000        5.00159100000000
H           29.21944400000000        7.72735000000000        4.42512800000000
H           29.44063800000000        5.97525600000000        4.76139000000000
H           28.50793100000000        4.27586200000000        3.21881200000000
Fe          61.08256800000000       -0.00513100000000       -0.00937600000000
C           64.44125600000000        0.16429900000000       -0.27010400000000
C           63.77693699999999       -0.48932200000000       -1.22681000000000
C           64.42658600000000       -1.21720000000000       -2.31051700000000
C           63.48387099999999       -1.73968600000000       -3.07097100000000
C           62.17815000000000       -1.36220200000000       -2.51323800000000
N           62.35731600000000       -0.57085800000000       -1.33853300000000
C           60.98297800000000       -1.70688100000000       -3.03335700000000
C           59.68766100000000       -1.29558600000000       -2.43264200000000
C           58.39089100000000       -1.48758400000000       -3.09189600000000
C           57.45770700000000       -1.02774300000000       -2.28504100000000
N           59.55479100000000       -0.73731400000000       -1.26775500000000
C           58.15133399999999       -0.53520000000000       -1.10031800000000
C           57.55974499999999       -0.01279400000000       -0.01263600000000
C           58.31831300000000        0.47527700000000        1.16450300000000
C           57.76112400000000        0.79490200000000        2.32596200000000
C           58.80836100000000        1.31338500000000        3.18101300000000
C           59.94252899999999        1.27436000000000        2.49024300000000
C           61.24448199999999        1.79267000000000        2.99027700000000
C           61.26954799999999        2.51535500000000        4.28195500000000
C           61.33602500000000        3.91569900000000        4.30615900000000
C           61.34066600000000        4.60279500000000        5.52914400000000
C           61.44644800000000        6.09903200000000        5.55347900000000
C           61.31286100000000        3.87760000000000        6.73053300000000
C           61.25579700000000        2.47603100000000        6.71497100000000
C           61.18905200000000        1.71740100000000        8.00783200000000
C           61.22425900000000        1.79884100000000        5.48652600000000
C           62.39762600000000        1.61268500000000        2.31946600000000
C           63.71829700000000        2.06905700000000        2.74988100000000
C           64.57355000000000        1.61305700000000        1.85702100000000
C           63.80986800000000        0.86955700000000        0.85650000000000
N           62.53964899999999        0.86227200000000        1.11576700000000
N           59.72231000000000        0.74202700000000        1.18148300000000
C           60.93344500000000       -2.52657000000000       -4.26409400000000
C           61.24892800000000       -1.95828000000000       -5.50689700000000
C           61.20594300000000       -2.73680700000000       -6.67253000000000
C           61.52608800000000       -2.12486000000000       -8.00453600000000
C           60.80530699999999       -4.07900000000000       -6.59391700000000
C           60.46427900000000       -4.64851600000000       -5.35797800000000
C           60.08194700000000       -6.09655500000000       -5.27228100000000
C           60.54539400000000       -3.87159500000000       -4.19332600000000
H           65.52420700000000        0.17156100000000       -0.31071000000000
H           65.49120000000001       -1.32616000000000       -2.47316800000000
H           63.66980500000000       -2.34106300000000       -3.95103900000000
H           58.21096600000000       -1.92246300000000       -4.06626200000000
H           56.39547000000000       -1.03014500000000       -2.48998600000000
H           56.71548500000000        0.71508500000000        2.59008200000000
H           58.67279799999999        1.69417400000000        4.18435800000000
H           61.38010900000000        4.46790800000000        3.37420200000000
H           60.94394999999999        6.51348700000000        6.45344300000000
H           62.51676900000000        6.39243800000000        5.56886900000000
H           60.96192499999999        6.54090500000000        4.65636500000000
H           61.33399700000000        4.40363100000000        7.67801900000000
H           61.35761500000000        0.62990500000000        7.84905500000000
H           61.96782199999999        2.09013000000000        8.70663300000000
H           60.18987400000000        1.86095300000000        8.47018600000000
H           61.16749200000000        0.71615500000000        5.46327200000000
H           63.97214699999999        2.65099800000000        3.62586700000000
H           65.64515000000000        1.76192700000000        1.87791900000000
H           61.53295399999999       -0.91396700000000       -5.56436300000000
H           62.01499000000000       -2.87076200000000       -8.66693800000000
H           62.21727900000000       -1.26338300000000       -7.88783900000000
H           60.58880700000000       -1.77472900000000       -8.48464100000000
H           60.75949100000000       -4.67968800000000       -7.49514300000000
H           60.99140900000000       -6.70848200000000       -5.10246100000000
H           59.59181899999999       -6.42973000000000       -6.21154800000000
H           59.37062500000000       -6.26498400000000       -4.43510100000000
H           60.30333199999999       -4.31032600000000       -3.23227000000000
C           37.26876200000000       -0.01169200000000       -0.00414600000000
C           36.05982300000000       -0.02514700000000       -0.01259300000000
C           34.63829400000000       -0.01632700000000       -0.02457600000000
C           33.42662400000000       -0.00888900000000       -0.01371300000000
C           38.68536600000000       -0.01836700000000       -0.00361300000000
C           39.90606200000000       -0.00888900000000       -0.01371300000000
C           52.75018799999999       -0.01169200000000       -0.00414600000000
C           51.54124900000000       -0.02514700000000       -0.01259300000000
C           50.11971999999999       -0.01632700000000       -0.02457600000000
C           48.90805100000000       -0.00888900000000       -0.01371300000000
C           54.16679300000000       -0.01836700000000       -0.00361300000000
C           55.38748900000000       -0.00888900000000       -0.01371300000000
Fe          44.30171700000000       -0.06634400000000       -0.02708400000000
C           40.93235500000000        0.02756200000000        0.02810500000000
C           41.58862400000000        1.19848300000000       -0.07056000000000
C           40.94865899999999        2.51552600000000       -0.08546100000000
C           41.88482100000000        3.42911400000000       -0.24704000000000
C           43.18126200000000        2.75068400000000       -0.34711300000000
N           43.00308100000000        1.33743900000000       -0.22600600000000
C           44.36531200000000        3.37060100000000       -0.53749800000000
C           45.66263400000000        2.64797900000000       -0.57268500000000
C           46.93160900000000        3.26516900000000       -0.97987900000000
C           47.88434600000000        2.36867600000000       -0.82508300000000
N           45.83059899999999        1.42037200000000       -0.19089500000000
C           47.22923400000000        1.16723200000000       -0.32415000000000
C           47.84416499999999        0.02756200000000        0.02810500000000
C           47.09298600000000       -1.15639100000000        0.49592700000000
C           47.62748500000000       -2.16880500000000        1.16675500000000
C           46.59507100000000       -3.17657100000000        1.31670600000000
C           45.50144200000000       -2.71196300000000        0.72310700000000
C           44.24846600000000       -3.48455900000000        0.54665700000000
C           44.31180000000000       -4.96412600000000        0.63265800000000
C           43.61412599999999       -5.64877200000000        1.63979400000000
C           43.68980400000000       -7.04587500000000        1.73219400000000
C           42.97972600000000       -7.76527700000000        2.84022300000000
C           44.49518600000000       -7.75634700000000        0.82944000000000
C           45.19039500000000       -7.08234300000000       -0.18545800000000
C           46.07494299999999       -7.84679800000000       -1.12529600000000
C           45.10752200000000       -5.68482100000000       -0.26999500000000
C           43.07656000000000       -2.87217300000000        0.29029900000000
C           41.80174899999999       -3.53203700000000        0.02801700000000
C           40.91348700000000       -2.56952400000000       -0.11488400000000
C           41.61005500000000       -1.28908900000000        0.04885900000000
N           42.87434700000000       -1.45907400000000        0.28271200000000
N           45.72547300000000       -1.41276900000000        0.17898400000000
C           44.39970900000000        4.84152000000000       -0.71049600000000
C           44.98708300000000        5.65030300000000        0.27316100000000
C           45.03553500000000        7.04252000000000        0.11137000000000
C           45.70729400000000        7.89763400000000        1.14493500000000
C           44.51679200000000        7.62158400000000       -1.05680600000000
C           43.91625799999999        6.82196100000000       -2.04093100000000
C           43.39440700000000        7.44461500000000       -3.30129800000000
C           43.87419199999999        5.43048600000000       -1.87050700000000
H           39.89465999999999        2.73515500000000        0.01927500000000
H           41.69952700000000        4.49484500000000       -0.28619900000000
H           47.08092000000000        4.27378700000000       -1.34244400000000
H           48.93395000000000        2.52386000000000       -1.03674200000000
H           48.65137499999999       -2.25195700000000        1.50631500000000
H           46.71155200000000       -4.14454100000000        1.78631300000000
H           43.02023300000000       -5.09220300000000        2.35551200000000
H           42.74086700000000       -8.80933800000000        2.54345600000000
H           43.62773200000000       -7.78440900000000        3.74120700000000
H           42.02683399999999       -7.25259200000000        3.09058900000000
H           44.58256000000000       -8.83320100000000        0.91697900000000
H           46.22378799999999       -7.28721800000000       -2.07398900000000
H           45.61798700000000       -8.82858400000000       -1.37420700000000
H           47.06296400000000       -8.01578300000000       -0.64706700000000
H           45.66070600000000       -5.15595500000000       -1.03731600000000
H           41.59912000000000       -4.59208200000000       -0.04886500000000
H           39.86406499999999       -2.72299900000000       -0.32693400000000
H           45.40790699999999        5.19396900000000        1.16182600000000
H           45.27389800000000        8.92044300000000        1.15121000000000
H           46.79200099999999        7.96561700000000        0.91923600000000
H           45.57395700000000        7.46300900000000        2.15835100000000
H           44.58018299999999        8.69382100000000       -1.20049500000000
H           42.96816400000000        8.44848400000000       -3.09090300000000
H           42.59322600000000        6.81813100000000       -3.74927100000000
H           44.22335699999999        7.54819800000000       -4.03256400000000
H           43.43850799999999        4.80347300000000       -2.64004500000000
215
 energy: -343.479627466273 gnorm: 0.406569720947 xtb: 6.5.1 (b24c23e)
Fe          27.73326883240269       -0.01409965442719       -0.02428303800160
C           24.37094885452433        0.17318348906466       -0.25834112195532
C           25.04042209934418        1.28674476698133        0.10748200786989
C           24.38404268593059        2.52416738173665        0.50257138379508
C           25.33510205739831        3.40680369293081        0.79511642074651
C           26.63219034153368        2.75817856947946        0.58571728358149
N           26.44607522088056        1.42085773649934        0.15956216216076
C           27.83962263622713        3.35717658467522        0.77217314466964
C           29.11750115411908        2.67840255938851        0.54884585353670
C           30.41102270433284        3.36169816775530        0.54926394835104
C           31.35414667237304        2.44714319355556        0.32857160911104
N           29.26215812111574        1.38811741192120        0.33015514555558
C           30.66814890401078        1.17420494027976        0.18576782609687
C           31.26587026417695       -0.02248644275394       -0.01241720938501
C           30.49316910224041       -1.26393280707715       -0.15616827645265
C           31.05176134143940       -2.49919113182875       -0.13951847071052
C           30.01749095704627       -3.45094264478051       -0.39603155238618
C           28.85808578471326       -2.76402351395944       -0.55476941807501
C           27.57673974539960       -3.39345212655491       -0.90798722737697
C           27.54519414280053       -4.84250336539537       -1.24545672731900
C           27.47546173424014       -5.25656638371085       -2.58113835597788
C           27.46899845665078       -6.61957399567070       -2.90017967318307
C           27.36610277973042       -7.06061985212723       -4.33515259820931
C           27.49866915649184       -7.56828563067895       -1.87139724090967
C           27.55609835083360       -7.16488755753905       -0.53207038713739
C           27.62136680765393       -8.19873965663561        0.55966804062640
C           27.58747938052716       -5.80006398738551       -0.22481297073340
C           26.41346157069123       -2.70247302043635       -0.92385578995517
C           25.09947603930815       -3.24615491198766       -1.24270870721370
C           24.23187260150422       -2.25258692557455       -1.05179535575120
C           24.98928011799330       -1.08549139831285       -0.61602142009029
N           26.27543848110528       -1.34367861437743       -0.54003063480845
N           29.09013639724754       -1.36942381575796       -0.39952306571867
C           27.88079416318094        4.77280250844146        1.21827317482846
C           27.56219705122292        5.80695807674847        0.32985217995886
C           27.60699550550406        7.14018881610152        0.75122377509709
C           27.28360311038708        8.25229959364153       -0.20941995875477
C           28.00574786899993        7.43646747044055        2.05971648953407
C           28.34468038973745        6.41116254214804        2.94982188876161
C           28.73114474670794        6.73284129969344        4.36779820021636
C           28.26618426334629        5.07959412860397        2.52790829976635
H           23.28746044057527        0.21970298071398       -0.27371597320444
H           23.32026192514132        2.71193436260170        0.56247856681558
H           25.14676401588988        4.41834310099800        1.12736943043339
H           30.59597271868852        4.41408619285082        0.69394351629695
H           32.41543990036547        2.64491081075667        0.27409108585721
H           32.09616939008818       -2.71763448423241        0.01286577891810
H           30.14049626045728       -4.51927212148552       -0.48277014602887
H           27.43161768963916       -4.51382726507024       -3.37244338829894
H           27.86416779437282       -8.03596644431707       -4.48074260247789
H           26.29973909767855       -7.15658930214564       -4.61099636483430
H           27.84623553944911       -6.32480036117306       -5.00512547023317
H           27.47745226409389       -8.62747740598222       -2.11344987701614
H           27.45495536953698       -7.74490165380228        1.55373955405610
H           26.84764226769593       -8.97034583888574        0.39579269267104
H           28.61639004945623       -8.68062202825424        0.54978784829675
H           27.64356029308760       -5.47564702226439        0.81028974423360
H           24.84413903493716       -4.24880715943715       -1.55790493775175
H           23.16456993920836       -2.31899104492450       -1.19020248323656
H           27.27847816744505        5.57044309619874       -0.69129227186657
H           26.79916044245035        9.09197105570460        0.32051810221725
H           26.59772029318741        7.90108635266502       -1.00075405174260
H           28.21756389769955        8.61408723430708       -0.67719785188308
H           28.05178237389897        8.47177002895167        2.38656314183684
H           27.82461191992731        6.73991985509753        4.99983897584184
H           29.21661226634543        7.72325367486562        4.42553806239593
H           29.43679079666601        5.97851272358041        4.76040697539040
H           28.50787401037735        4.27668253321794        3.21795191482408
Fe          61.07799834804195       -0.00122045773630       -0.01463536705353
C           64.44030945401508        0.17144039125351       -0.25963848360482
C           63.77082209023744       -0.48992054078617       -1.22738002830207
C           64.42722481113807       -1.21383936457372       -2.30592046578798
C           63.47616866037595       -1.74051163378367       -3.07223359713613
C           62.17909179705412       -1.35882493655303       -2.50747633249072
N           62.36526906071482       -0.57728811020557       -1.34179148598965
C           60.97157389392729       -1.70464351322242       -3.03093331546108
C           59.69379853020265       -1.30122590028265       -2.44118678228673
C           58.40023036294003       -1.49182792564381       -3.09734338988060
C           57.45708814616128       -1.02527370670097       -2.28040226491272
N           59.54909643449790       -0.73199076120100       -1.26266598758288
C           58.14305172092307       -0.53377725386570       -1.09751550812444
C           57.54583515724293       -0.01025705007313       -0.00314852119564
C           58.31809079958827        0.47333795428916        1.14914766191834
C           57.75949433374489        0.80124109295935        2.34029702215821
C           58.79368000430604        1.31248938848270        3.18289651169587
C           59.95316310806729        1.27371343946283        2.47890860652489
C           61.23450089587455        1.78820144952537        2.98515507907335
C           61.26606158505304        2.51570862154416        4.28300958663117
C           61.33580039464266        3.91386128140132        4.30890294254166
C           61.34226405995965        4.59970485361506        5.52923211501772
C           61.44515966487434        6.10073326981995        5.55340162049788
C           61.31259404643168        3.87567146512136        6.72682049928375
C           61.25516379931344        2.47698753102396        6.71218963290982
C           61.18989520078932        1.71618740080425        8.00907513766207
C           61.22378252665575        1.80195915195276        5.48683439837027
C           62.39779415627073        1.61110583632620        2.31706310588076
C           63.71178987226277        2.06870874986057        2.75051751562602
C           64.57938879136142        1.60876974704442        1.84936830001028
C           63.82198906655474        0.86532814786669        0.84968409463514
N           62.53579408756698        0.86421233103083        1.11883565832959
N           59.72107656813009        0.73651062752848        1.18267787341500
C           60.93045368034591       -2.52718087403295       -4.26644926474753
C           61.24906309244330       -1.96175131161450       -5.50703202806663
C           61.20426993569746       -2.73758888772258       -6.67027623302489
C           61.52766004973018       -2.12448584821379       -8.00583705770637
C           60.80551520391653       -4.07683876196074       -6.59060615419820
C           60.46658331499763       -4.64635560272268       -5.35805490390828
C           60.08011798504347       -6.09783270818439       -5.27230564628624
C           60.54507818479765       -3.87045826003177       -4.19655907348542
H           65.52380134402574        0.17325138872515       -0.30861716376007
H           65.49100254516553       -1.32364248277306       -2.46958409040921
H           63.66449871820974       -2.34120749912919       -3.95130363146034
H           58.21528009418274       -1.92372739825089       -4.06786060844845
H           56.39580845475022       -1.02799800680512       -2.48549831714349
H           56.71507940801312        0.71565499758944        2.59241840501880
H           58.67075015185851        1.69319773352282        4.18485337234690
H           61.37964452369838        4.46714168368814        3.37524992620528
H           60.94709524076970        6.51206959580762        6.44967156133692
H           62.51152311029988        6.39238954439125        5.56879302860854
H           60.96502720760758        6.53940247670264        4.66016762976448
H           61.33381040491212        4.40299718389751        7.67677010363693
H           61.35630642333484        0.63507487637752        7.84988726207145
H           61.96362003826643        2.08837234274379        8.70456676217828
H           60.19487390298020        1.85981579073483        8.46916091330134
H           61.16770152911454        0.71746277922225        5.46337512939416
H           63.96712321968279        2.65054850803893        3.62580503056590
H           65.64669190990600        1.76019065219202        1.87462036412181
H           61.53278359096016       -0.91512969512718       -5.56411336849592
H           62.01210111311527       -2.86721202757233       -8.66480458000823
H           62.21354235527886       -1.26666383391644       -7.88878321911320
H           60.59369945638508       -1.77590522200888       -8.48353646833018
H           60.75948030157049       -4.67895668005163       -7.49400595149026
H           60.98665115892701       -6.70686274489919       -5.10316677810657
H           59.59465061015537       -6.42898374556615       -6.20749945458384
H           59.37447147109651       -6.26494702791876       -4.43850194238273
H           60.30338882091023       -4.30972825241182       -3.23329647204677
C           37.26100201698729       -0.01213450763954       -0.00482370341704
C           36.03889011586971       -0.02478534258421       -0.01279649600649
C           34.63032203579020       -0.01642897128516       -0.02405010996699
C           33.39859097782172       -0.01071851775792       -0.01417185695795
C           38.60931571819908       -0.01952919896875       -0.00266983981337
C           39.78022805787012       -0.01830167496135       -0.01679289791541
C           52.76983435600301       -0.01189134168021       -0.00445471042748
C           51.54658368262035       -0.02517364758308       -0.01317188915618
C           50.18807415657360       -0.01861930051650       -0.02553841591451
C           49.00795780141160       -0.02159726899029       -0.01399197930651
C           54.17740268673423       -0.01793263365442       -0.00363062231545
C           55.41183112736771       -0.00851557479399       -0.01206948546442
Fe          44.30758840976298       -0.06092865421609       -0.02580748201996
C           41.04665705447745        0.01977061852297        0.02917826419182
C           41.63199302448439        1.21808538039996       -0.07088798724526
C           40.95031560287388        2.50692518589366       -0.08485968894907
C           41.89367211656063        3.43189551060968       -0.24816132402014
C           43.18125046788016        2.74781821136749       -0.34687450174759
N           43.00481109982479        1.34887169329227       -0.22372066629464
C           44.37606579228614        3.36993278513402       -0.53908608349652
C           45.65461116193264        2.66403301734529       -0.57498143976777
C           46.92053600845443        3.27428040621245       -0.97987607348239
C           47.88125685149978        2.36195115549660       -0.82247914665403
N           45.82559256581064        1.41933906070016       -0.19575143626661
C           47.19479151658612        1.18382264640612       -0.32906617224763
C           47.74523744562176        0.02208341397920        0.03340755214195
C           47.06114428504524       -1.15762013187335        0.49275029499448
C           47.62621215296435       -2.18257453898666        1.17149975912916
C           46.60874956893169       -3.17879262642446        1.31952791527981
C           45.49133971797561       -2.70806728540760        0.71425965010432
C           44.25717495572266       -3.48120164048662        0.54678395656071