198
 energy: -377.540718261404 gnorm: 4.340139878196 xtb: 6.5.1 (b24c23e)
C           23.36612200000000       -0.03013500000000       -0.15818100000000
C           24.09843700000000       -1.39523000000000        0.01964800000000
C           23.49835500000000       -2.63334800000000        0.04341700000000
C           24.52174300000000       -3.58619800000000        0.28586400000000
C           25.71140600000000       -2.89510900000000        0.41059800000000
N           25.44839900000000       -1.56624400000000        0.19139400000000
C           27.12854000000000       -3.50653200000000        0.76815300000000
C           27.16134100000000       -4.89333800000000        1.28398900000000
C           27.46273000000000       -5.95778800000000        0.42333800000000
C           27.48769000000000       -7.26793200000000        0.90417500000000
C           27.20634100000000       -7.50737600000000        2.25639000000000
N           27.23003300000000       -8.88217500000000        2.76776700000000
O           27.49948300000000       -9.79573200000000        1.97213900000000
O           26.97731100000000       -9.06229000000000        3.96931900000000
C           26.90195500000000       -6.45122600000000        3.12624000000000
C           26.88047299999999       -5.14537100000000        2.63346500000000
C           28.25940200000000       -2.76052800000000        0.65052700000000
C           29.55884100000000       -3.27279800000000        1.03558800000000
C           30.46172900000000       -2.32022100000000        0.83423700000000
N           28.45925600000000       -1.47903800000000        0.21155000000000
C           29.78795900000000       -1.15392200000000        0.29903700000000
C           30.45635000000000       -0.01211000000000       -0.01412700000000
C           29.68072000000000        1.23094600000000       -0.62135200000000
C           30.22080600000000        2.21954300000000       -1.42012900000000
C           29.19486900000000        3.16005000000000       -1.68802100000000
C           28.05566800000000        2.71410900000000       -1.05251600000000
N           28.34667000000000        1.51129600000000       -0.45399600000000
C           26.64755200000000        3.44066400000000       -1.03158500000000
C           26.62182600000000        4.90371100000000       -1.24017700000000
C           26.26029700000000        5.43467200000000       -2.48615600000000
C           26.24505200000000        6.81584300000000       -2.68731600000000
C           26.59806000000000        7.66617800000000       -1.63044800000000
N           26.58384800000000        9.11875500000000       -1.83504500000000
O           26.26930200000000        9.54650400000000       -2.95686600000000
O           26.88791200000000        9.84619600000000       -0.87668900000000
C           26.96474300000000        7.14726300000000       -0.38116700000000
C           26.97561899999999        5.76404000000000       -0.19265100000000
C           25.51905700000000        2.72156700000000       -0.80106400000000
C           24.19667300000000        3.32066100000000       -0.75585300000000
C           23.30945699999999        2.35720100000000       -0.52598000000000
C           24.03081200000000        1.11447200000000       -0.40323900000000
N           25.35285800000000        1.38552600000000       -0.56824800000000
H           22.28744400000000       -0.01520700000000       -0.05750000000000
H           22.44418600000000       -2.82698200000000       -0.08267700000000
H           24.39743500000000       -4.65385700000000        0.38351500000000
H           26.14441400000000       -0.82520100000000        0.16248800000000
H           27.68179800000000       -5.74565500000000       -0.62202600000000
H           27.72739000000000       -8.07450600000000        0.21700500000000
H           26.68248800000000       -6.61881800000000        4.17696400000000
H           26.64897000000000       -4.30826000000000        3.29032500000000
H           29.76976400000000       -4.25031500000000        1.43014400000000
H           31.51230400000000       -2.42062100000000        1.03742900000000
H           31.24288500000000        2.26788800000000       -1.76414100000000
H           29.28060700000000        4.06219700000000       -2.27432400000000
H           27.66397400000000        0.90190600000000       -0.01111300000000
H           25.98704499999999        4.75351300000000       -3.29071300000000
H           25.95726700000000        7.20109900000000       -3.66143700000000
H           27.24156800000000        7.79162400000000        0.44857500000000
H           27.25618800000000        5.33839600000000        0.76958100000000
H           23.96574900000000        4.36247000000000       -0.88378700000000
H           22.24495400000000        2.47707900000000       -0.43610400000000
C           68.77950199999998       -0.07058400000000       -0.14700800000000
C           68.04718699999999        1.19223000000000       -0.69510500000000
C           68.64726899999999        2.26699100000000       -1.31023800000000
C           67.62388100000000        3.20918100000000       -1.59127100000000
C           66.43421800000000        2.68011100000000       -1.12948500000000
N           66.69722500000000        1.42715300000000       -0.63549400000000
C           65.01708400000000        3.38837300000000       -1.13647500000000
C           64.98428199999999        4.84332000000000       -1.40563700000000
C           64.68289300000001        5.31506000000000       -2.69064100000000
C           64.65793300000000        6.68625000000000       -2.95048800000000
C           64.93928200000001        7.58584200000000       -1.91291600000000
N           64.91559100000001        9.02819500000000       -2.17974200000000
O           64.64614100000000        9.40381500000000       -3.33148800000000
O           65.16831300000000        9.79953400000000       -1.24101700000000
C           65.24366800000000        7.12594600000000       -0.62427900000000
C           65.26515100000000        5.75230900000000       -0.37687800000000
C           63.88622199999999        2.68777000000000       -0.85449500000000
C           62.58678200000000        3.32505700000000       -0.78698400000000
C           61.68389400000000        2.40419500000000       -0.47082200000000
N           63.68636800000000        1.36265800000000       -0.57343200000000
C           62.35766500000000        1.12854900000000       -0.33146600000000
C           61.68927300000000       -0.01211000000000       -0.01412700000000
C           62.46490299999999       -1.39060000000000        0.10281600000000
C           61.92481799999999       -2.64903600000000       -0.07524700000000
C           62.95075500000000       -3.59369500000000        0.17761400000000
C           64.08995600000000       -2.88477700000000        0.49410400000000
N           63.79895300000000       -1.54529300000000        0.39034700000000
C           65.49807199999999       -3.49756800000000        0.88501200000000
C           65.52379800000000       -4.86023500000000        1.45698700000000
C           65.88532700000000       -5.95547700000000        0.66022500000000
C           65.90057200000000       -7.24406200000000        1.19655100000000
C           65.54756300000000       -7.43132900000000        2.54004400000000
N           65.56177599999999       -8.78295900000000        3.11007200000000
O           65.87632200000000       -9.72589400000000        2.36688500000000
O           65.25771100000000       -8.91532400000000        4.30593900000000
C           65.18088100000000       -6.34472900000000        3.34582200000000
C           65.17000400000001       -5.06087300000000        2.79759200000000
C           66.62656600000000       -2.76210700000000        0.71373000000000
C           67.94895000000000       -3.25304500000000        1.06004800000000
C           68.83616700000000       -2.30820300000000        0.76277700000000
C           68.11481200000000       -1.17868200000000        0.23021600000000
N           66.79276500000000       -1.49600200000000        0.22773700000000
H           69.85818000000000       -0.03171500000000       -0.05294000000000
H           69.70143800000000        2.36844400000000       -1.51784600000000
H           67.74818800000000        4.17557800000000       -2.05550200000000
H           66.00121000000000        0.77634700000000       -0.27991900000000
H           64.46382500000000        4.59641600000000       -3.47888900000000
H           64.41823400000000        7.02572800000000       -3.95424000000000
H           65.46313499999999        7.80911700000000        0.19143300000000
H           65.49665400000001        5.37106600000000        0.61653600000000
H           62.37585899999999        4.36649500000000       -0.95013900000000
H           60.63331900000000        2.59465900000000       -0.34797800000000
H           60.90273800000000       -2.86710900000000       -0.34566500000000
H           62.86501599999999       -4.66887500000000        0.13752200000000
H           64.48164900000000       -0.79497600000000        0.45762900000000
H           66.15857900000000       -5.78388600000000       -0.37989300000000
H           66.18835700000000       -8.07471300000000        0.55830900000000
H           64.90405600000000       -6.47181300000000        4.38866600000000
H           64.88943600000000       -4.20166400000000        3.40489900000000
H           68.17987500000000       -4.21280200000000        1.48502100000000
H           69.90067000000001       -2.36495000000000        0.90144400000000
C           32.65256600000000        0.00258000000000       -0.00385100000000
C           34.11079200000000       -0.01925600000000       -0.02172500000000
C           35.24472100000000       -0.04001000000000       -0.02321600000000
C           36.60610200000000       -0.05260000000000       -0.02540700000000
C           37.88032100000000       -0.04229300000000       -0.03017200000000
C           39.06878400000000       -0.02349500000000       -0.03632800000000
C           40.42114400000000        0.00128900000000       -0.02046000000000
C           41.52141200000000        0.00258000000000       -0.00385100000000
C           50.50017500000000        0.00258000000000       -0.00385100000000
C           51.95840100000000       -0.01925600000000       -0.02172500000000
C           53.09233000000000       -0.04001000000000       -0.02321600000000
C           54.45371100000000       -0.05260000000000       -0.02540700000000
C           55.72793000000000       -0.04229300000000       -0.03017200000000
C           56.91639300000000       -0.02349500000000       -0.03632800000000
C           58.26875300000000        0.00128900000000       -0.02046000000000
C           59.36902100000000        0.00258000000000       -0.00385100000000
C           42.49315299999999        0.02393500000000        0.02975300000000
C           43.28885600000000        1.25962300000000       -0.56068400000000
C           42.78908800000000        2.52222200000000       -0.80609500000000
C           43.82805699999999        3.27899800000000       -1.40630200000000
C           44.93048900000000        2.45594800000000       -1.50317400000000
N           44.61516100000000        1.25658300000000       -0.91588900000000
C           46.31678500000000        2.81541300000000       -2.17527500000000
C           46.30425000000000        3.80413200000000       -3.27559800000000
C           46.74181099999999        5.11722100000000       -3.05227100000000
C           46.71947200000000        6.05450000000000       -4.08644300000000
C           46.25132000000000        5.66956200000000       -5.35028600000000
N           46.22482500000000        6.64985900000000       -6.44135300000000
O           45.81997100000000        6.27516300000000       -7.55296600000000
O           46.60782500000000        7.80477600000000       -6.19673700000000
C           45.80739499999999        4.36111000000000       -5.58509200000000
C           45.83520400000000        3.43290200000000       -4.54260100000000
C           47.45361500000000        2.18879900000000       -1.77504900000000
C           48.73891300000000        2.44000800000000       -2.39427200000000
C           49.64828500000000        1.67919500000000       -1.79462400000000
N           47.66382400000000        1.24926900000000       -0.80518700000000
C           48.98804200000000        0.90411400000000       -0.76394200000000
C           49.65245900000000        0.02393500000000        0.02975300000000
C           48.85670500000000       -0.79372700000000        1.12830200000000
C           49.35620600000000       -1.27741700000000        2.32023400000000
C           48.31725700000000       -2.01246900000000        2.94691200000000
C           47.21510000000000       -1.94943600000000        2.12021200000000
N           47.53056999999999       -1.14219400000000        1.05643500000000
C           45.82888900000000       -2.67838700000000        2.34310200000000
C           45.84146900000000       -3.94886400000000        3.10079000000000
C           46.30946100000000       -5.12059100000000        2.49157900000000
C           46.33725700000000       -6.32267000000000        3.20105200000000
C           45.89442500000000       -6.34464400000000        4.53059000000000
N           45.92095799999999       -7.60442600000000        5.28182000000000
O           45.53959700000000       -7.58703500000000        6.46276100000000
O           46.32421100000000       -8.62312300000000        4.69905500000000
C           45.42733200000000       -5.17866000000000        5.15263500000000
C           45.40493000000000       -3.98300800000000        4.43262800000000
C           44.69204700000000       -2.16475900000000        1.80553800000000
C           43.40674700000000       -2.82078300000000        1.93262000000000
C           42.49735699999999       -2.08557700000000        1.30185800000000
C           43.15759700000000       -0.92471400000000        0.74018100000000
N           44.48182799999999       -1.03183000000000        1.07081700000000
H           41.78422699999999        2.85696800000000       -0.59722700000000
H           43.77083800000000        4.30176100000000       -1.74664400000000
H           45.27183100000000        0.50380800000000       -0.73113600000000
H           47.10351200000000        5.39208600000000       -2.06255200000000
H           47.06798900000000        7.06404000000000       -3.88743800000000
H           45.44043099999999        4.04603200000000       -6.55794500000000
H           45.49468099999999        2.41100000000000       -4.70257500000000
H           48.93522700000000        3.11643800000000       -3.20639700000000
H           50.69251599999999        1.65369500000000       -2.04796900000000
H           50.36087200000000       -1.13648000000000        2.68931000000000
H           48.37430100000000       -2.54326500000000        3.88507900000000
H           46.87400900000000       -0.81612200000000        0.35314300000000
H           46.64913900000000       -5.08045200000000        1.45773200000000
H           46.70338000000000       -7.21658100000000        2.70380100000000
H           45.07968800000000       -5.17812200000000        6.18189500000000
H           45.04399900000000       -3.06479900000000        4.89366500000000
H           43.21043299999999       -3.74812300000000        2.43970200000000
H           41.45311100000000       -2.32920100000000        1.22804200000000
198
 energy: -378.764523376981 gnorm: 0.888663443800 xtb: 6.5.1 (b24c23e)
C           23.37230535204901       -0.04152588152596       -0.15660360165992
C           24.09533893351481       -1.38672243527582        0.01835985398344
C           23.49956440628142       -2.63627421557709        0.04442750162409
C           24.51926896937622       -3.58542468733015        0.28614369416826
C           25.71961929017793       -2.89743675272268        0.41218138539519
N           25.44856168066071       -1.56615791622267        0.19178652388055
C           27.11769863228283       -3.50095922087578        0.76521016030943
C           27.16030846013623       -4.89283518409825        1.28336582168705
C           27.46273592658905       -5.95819287564908        0.42426103116424
C           27.48760632097026       -7.26688780194550        0.90443268352452
C           27.20634608961408       -7.50813381685932        2.25666199447403
N           27.23002413090167       -8.88490645828323        2.76875623772418
O           27.49800578739669       -9.79061485832664        1.97653077501216
O           26.97872084906863       -9.06122768495567        3.96265040576686
C           26.90213700578854       -6.45057068101682        3.12537941482175
C           26.88048729846557       -5.14627996464202        2.63299846715817
C           28.26196811266228       -2.75845381627705        0.65034697644245
C           29.55937978682219       -3.27515336319703        1.03652406221398
C           30.46440030808889       -2.32079367025306        0.83471223030894
N           28.45710106534524       -1.47630154559899        0.21086624995787
C           29.79001365379023       -1.15493119067686        0.29979781751024
C           30.45805293173235       -0.00348550332128       -0.01977032702547
C           29.68644670619971        1.22343249481906       -0.61826277805111
C           30.22019888078380        2.22194358868127       -1.42041736141285
C           29.19717487097320        3.15937278619143       -1.68746392333475
C           28.04788592457280        2.71689167210831       -1.05196803212447
N           28.34709587986400        1.51115541956171       -0.45322661864456
C           26.65801587252980        3.43462965641062       -1.03136396781975
C           26.62297336964109        4.90294264736166       -1.24064743686993
C           26.26022738887848        5.43547829140305       -2.48557060477905
C           26.24514969671105        6.81501482328895       -2.68660485867469
C           26.59805548959653        7.66700593031670       -1.63057077582870
N           26.58385374530361        9.12160053853016       -1.83547728293479
O           26.27102592905548        9.54408475398330       -2.95065011419342
O           26.88623695457939        9.84211454078963       -0.88196273907437
C           26.96451445586498        7.14625299472885       -0.38157566082697
C           26.97565657734544        5.76467721186098       -0.19346921089906
C           25.51660896777817        2.71985557955408       -0.80019117979752
C           24.19595091883684        3.32333363626179       -0.75627726572049
C           23.30724824719912        2.35855462908092       -0.52598258865757
C           24.03252628939360        1.11687253069444       -0.40340565830647
N           25.35579305047607        1.38346311177420       -0.56798768069712
H           22.28884171826588       -0.01663485342384       -0.05777265713509
H           22.44459371681336       -2.82736315603051       -0.08260980830000
H           24.39721575435032       -4.65360958885115        0.38344182477626
H           26.14411269374368       -0.82557430683920        0.16254826596840
H           27.68162337925295       -5.74609240674786       -0.62132397422676
H           27.72717997803221       -8.07459838963363        0.21785072808413
H           26.68269413503189       -6.61943474919703        4.17637313836950
H           26.64906816861634       -4.30904325352560        3.29005445840297
H           29.76923656375049       -4.25140677129780        1.43043758143295
H           31.51352579867289       -2.41971274644924        1.03725698389333
H           31.24262437546184        2.26810547143768       -1.76403730539403
H           29.28086762896701        4.06190484670466       -2.27417283705341
H           27.66438397858143        0.90222169270975       -0.01126696580768
H           25.98725267936161        4.75423234341983       -3.29031747136546
H           25.95752939719667        7.20157682662464       -3.66075622151450
H           27.24131031565810        7.79188434424961        0.44777771144526
H           27.25606015734913        5.33894515017475        0.76898262741058
H           23.96623633042971        4.36366447869296       -0.88406274555098
H           22.24400516991654        2.47680043274114       -0.43599492207388
C           68.77329224338497       -0.05991448676994       -0.15153918221878
C           68.05028470417727        1.18417325010125       -0.69179130355657
C           68.64603699535425        2.27011227488287       -1.31090391265700
C           67.62646286691729        3.20864340150324       -1.59063334168009
C           66.42585457697670        2.68294299423625       -1.12929031450868
N           66.69705115528410        1.42726128457888       -0.63512455362861
C           65.02817098199765        3.38210997219514       -1.13617716901142
C           64.98532419004752        4.84257193405593       -1.40592221245424
C           64.68288334449176        5.31588017672030       -2.69005869169944
C           64.65801626827624        6.68548761537561       -2.94972931499134
C           64.93927673557498        7.58662729597586       -1.91307077373785
N           64.91560054230126        9.03105938703757       -2.18030173997870
O           64.64761863555701        9.40167272585620       -3.32508472171049
O           65.16690125568591        9.79519444603078       -1.24619412385127
C           65.24348407385897        7.12494308134412       -0.62468392213477
C           65.26513668653934        5.75284734135343       -0.37774310230171
C           63.88354675878187        2.68572134336698       -0.85353224127361
C           62.58622859584833        3.32752522947939       -0.78738135116858
C           61.68121195154752        2.40485902827555       -0.47069108147858
N           63.68888016980917        1.36030492151339       -0.57274593889308
C           62.35567337731123        1.12947412676900       -0.33122497080273
C           61.68977813342128       -0.02223363685207       -0.01454345927018
C           62.45934286759405       -1.38215896083215        0.10160592645485
C           61.92544839616223       -2.65135871157282       -0.07421368289315
C           62.94829415654360       -3.59281436782915        0.17771068878856
C           64.09788412786313       -2.88683774700214        0.49604882821274
N           63.79863457295807       -1.54486788241858        0.39089078668914
C           65.48749131926377       -3.49225885775342        0.88208792574965
C           65.52265188614668       -4.85983491241947        1.45618567596694
C           65.88539023277120       -5.95586383899668        0.66113728604309
C           65.90047127531892       -7.24298983704701        1.19674278640475
C           65.54756729455009       -7.43208889394129        2.54035870928872
N           65.56176911009926       -8.78565418572819        3.11117929253618
O           65.87459447979910       -9.72061047599896        2.37098227083293
O           65.25939156074419       -8.91452068875326        4.29929706917193
C           65.18111336222324       -6.34407894103694        3.34494987772424
C           65.16997427487104       -5.06183023488075        2.79721273986573
C           66.62904020362389       -2.76014427720304        0.71361179414009
C           67.94966184741529       -3.25555909430021        1.06105422762904
C           68.83837863398513       -2.30935682724520        0.76346555530844
C           68.11306736742245       -1.18085769667385        0.23131762268032
N           66.78985425503262       -1.49411467806922        0.22691193803327
H           69.85677901562498       -0.03062733757531       -0.05391321542110
H           69.70102796479033        2.36880934801935       -1.51798781702165
H           67.74841355151831        4.17532426969613       -2.05544037402802
H           66.00150591287824        0.77669606501678       -0.28005846584594
H           64.46400014395346        4.59715196270175       -3.47851173876177
H           64.41844444088268        7.02624124885521       -3.95356191502639
H           65.46292926084601        7.80934260247809        0.19060930436750
H           65.49655626634450        5.37159894194874        0.61590212658657
H           62.37639493657864        4.36758164163887       -0.95044897322383
H           60.63213250343135        2.59382540989991       -0.34766613995557
H           60.90302356131173       -2.86727474466577       -0.34547283468938
H           62.86475221784175       -4.66854983895262        0.13749436428442
H           64.48123698913589       -0.79533784565541        0.45766559523563
H           66.15837096690453       -5.78430049252886       -0.37918514581805
H           66.18809589329560       -8.07477349762833        0.55913899126531
H           64.90431214330904       -6.47244573267524        4.38811470079022
H           64.88956374039169       -4.20244172011640        3.40466720191035
H           68.17938595574054       -4.21396638447583        1.48539610739264
H           69.90161710195514       -2.36465351202086        0.90139405686345
C           32.65769165271868        0.00228982499731       -0.00417424794847
C           34.06091603237187       -0.01856298845477       -0.02149125520594
C           35.27752885465576       -0.04045661589275       -0.02325274603963
C           36.59355240028408       -0.05254381654228       -0.02540907716255
C           37.86681072101177       -0.04250169007642       -0.03006487178393
C           39.07521987873756       -0.02368991798069       -0.03643594793706
C           40.35061649988454        0.00116185783575       -0.02269239156614
C           41.45389705909025        0.00588015952400       -0.01124568228908
C           50.70902666824610       -0.00975588840537       -0.00648450842982
C           51.94617550379087       -0.01994302330326       -0.02182933201605
C           53.12823199734579       -0.04043098464147       -0.02357129457913
C           54.44469187989468       -0.05256474822535       -0.02543844556820
C           55.71761209653911       -0.04247778915830       -0.03008070514784
C           56.92447279662805       -0.02326630470331       -0.03639609551873
C           58.24594643700545        0.00115173813599       -0.02089269482560
C           59.41678140635657        0.00235229822455       -0.00346766457654
C           42.61652848425125        0.03428039827448        0.03031672149193
C           43.29657582589518        1.25952923968594       -0.55949585200044
C           42.78979300392764        2.52255989490178       -0.80732106993935
C           43.82663281782241        3.27826637679738       -1.40668353823249
C           44.93757055614646        2.45795648866450       -1.50619526247427
N           44.61639291194693        1.25711759070957       -0.91729534254980
C           46.30769349149094        2.81203231153655       -2.17025731275490
C           46.30330881694728        3.80407813471589       -3.27460945887644
C           46.74181619762696        5.11714024981038       -3.05321149826667
C           46.71930582935584        6.05343394386590       -4.08615486316719
C           46.25130445252432        5.67010442248555       -5.35086635889020
N           46.22473322927322        6.65189955444744       -6.44355650415530
O           45.82221737336953        6.27715479621149       -7.54673666789785
O           46.60572401467424        7.79829475421515       -6.19803191275721
C           45.80770215851806        4.36088271416604       -5.58401080459400
C           45.83518068560623        3.43388757434877       -4.54262878940316
C           47.45556314178269        2.18958612832166       -1.77655270604064
C           48.73841478250952        2.44248717579283       -2.39673502580478
C           49.65016894075547        1.67783835651655       -1.79361223071728
N           47.66047256623007        1.24857596806382       -0.80386607855592
C           48.95619006883930        0.91852514883750       -0.77635352055041
C           49.46615354217942        0.02416730629846        0.04313996701835
C           48.84316589828619       -0.79502130244866        1.13278864948102
C           49.35580041167039       -1.27820057718214        2.31981805962944
C           48.31805260015082       -2.01272599343078        2.94601224135675
C           47.20859801843889       -1.95261667007381        2.12178178001267
N           47.52838078084573       -1.14447697707927        1.05688516709633
C           45.83710676962908       -2.67301163909042        2.34073230027411
C           45.84247251400939       -3.94790316398314        3.10086574512245
C           46.30951849566998       -5.12087312544593        2.49258871221722
C           46.33697452874143       -6.32157538612000        3.20100892261829
C           45.89443929039648       -6.34536484036893        4.53103950970915
N           45.92103203862150       -7.60688423540035        5.28332825274284
O           45.54168322204907       -7.58707179882357        6.45621090368978
O           46.32200073484695       -8.61744832622171        4.70220740845877
C           45.42746964181456       -5.17814870082191        5.15165029452920
C           45.40490992894477       -3.98396074810811        4.43237500343289
C           44.69058434144137       -2.16557623283205        1.80572738894951
C           43.40642095004319       -2.82350264897738        1.93431712462075
C           42.49540996956181       -2.08542942954531        1.30143207113181
C           43.18078716929273       -0.93527184799703        0.74828947286345
N           44.48508368076742       -1.03028347034194        1.06991949873066
H           41.78455078694320        2.85687617734678       -0.59736733110887
H           43.77055859933525        4.30147500485658       -1.74653745883875
H           45.27142320625110        0.50416563783834       -0.73130148727422
H           47.10325035166269        5.39216120494734       -2.06334077612927