148
 energy: -272.137486318537 gnorm: 2.239027579482 xtb: 6.5.1 (b24c23e)
Cu          27.76202200000000        0.02397800000000        0.02556400000000
C           24.38836500000000       -0.08565400000000       -0.08448900000000
C           25.06127100000000       -0.90043800000000       -0.90294000000000
C           24.43256999999999       -1.83086100000000       -1.83746800000000
C           25.39339300000000       -2.47216600000000       -2.48165100000000
C           26.67651500000000       -1.97845700000000       -1.98579600000000
N           26.48232900000000       -0.98289600000000       -0.98581800000000
C           27.86475300000000       -2.40932900000000       -2.41855700000000
C           29.16443800000000       -1.91791100000000       -1.92491000000000
C           30.44412000000000       -2.41610400000000       -2.42503400000000
C           31.39987000000000       -1.77486500000000       -1.78092300000000
N           29.31805600000000       -1.00897300000000       -1.01209000000000
C           30.72934400000000       -0.85912500000000       -0.86140100000000
C           31.33807400000000       -0.01271300000000       -0.01130000000000
C           30.59026000000000        0.89321800000000        0.89843800000000
C           31.16166500000000        1.74020200000000        1.74903700000000
C           30.09957400000000        2.43756100000000        2.44943500000000
C           28.95321600000000        1.97143900000000        1.98134400000000
N           29.16569000000000        0.97482100000000        0.98042000000000
C           27.63792200000000        2.44184600000000        2.45392500000000
C           26.47104800000000        1.98442500000000        1.99459400000000
C           25.16323200000000        2.43372800000000        2.44607800000000
C           24.28220400000000        1.73909300000000        1.74846300000000
C           25.02911300000000        0.85030300000000        0.85559300000000
N           26.31046200000000        0.98708300000000        0.99281200000000
H           23.30525400000000       -0.10817800000000       -0.10704100000000
H           23.37115200000000       -1.98057300000000       -1.98779500000000
H           25.23972800000000       -3.22814000000000       -3.24095300000000
H           27.88445100000000       -3.17381400000000       -3.18639800000000
H           30.59500000000000       -3.17223500000000       -3.18432900000000
H           32.46154300000000       -1.92165000000000       -1.92812200000000
H           32.22129600000000        1.89245400000000        1.90193200000000
H           30.21938200000000        3.19667000000000        3.21185000000000
H           27.62129100000000        3.20673500000000        3.22221500000000
H           24.93949300000000        3.18080800000000        3.19654600000000
H           23.20654700000000        1.82204900000000        1.83196000000000
Cu          61.16059000000000       -0.06466000000000       -0.00871400000000
C           64.53424800000001        0.09049200000000       -0.01637100000000
C           63.86134200000000        1.24394300000000       -0.07368600000000
C           64.49004200000000        2.56104400000000       -0.13907200000000
C           63.52922000000000        3.46890400000000       -0.18417600000000
C           62.24609800000000        2.77003400000000       -0.14950500000000
N           62.44028300000000        1.36070800000000       -0.07952200000000
C           61.05785900000000        3.37996600000000       -0.17977500000000
C           59.75817500000000        2.68427600000000       -0.14519600000000
C           58.47849299999999        3.38933600000000       -0.18000900000000
C           57.52274300000000        2.48157300000000       -0.13491300000000
N           59.60455699999999        1.39767700000000       -0.08141400000000
C           58.19326900000000        1.18543100000000       -0.07074900000000
C           57.58453800000000       -0.01271300000000       -0.01130000000000
C           58.33235299999999       -1.29501500000000        0.05222500000000
C           57.76094800000000       -2.49391800000000        0.11165800000000
C           58.82303900000000       -3.48107000000000        0.16063900000000
C           59.96939600000000       -2.82129000000000        0.12794600000000
N           59.75692300000000       -1.41054500000000        0.05797400000000
C           61.28469100000000       -3.48726100000000        0.16107800000000
C           62.45156500000000       -2.83981100000000        0.12901100000000
C           63.75938099999999       -3.47597500000000        0.16073300000000
C           64.64040799999999       -2.49271200000000        0.11198000000000
C           63.89349900000000       -1.23443900000000        0.04940100000000
N           62.61215000000000       -1.42795300000000        0.05889200000000
H           65.61735899999999        0.12232900000000       -0.01790100000000
H           65.55146000000001        2.77294500000000       -0.14956000000000
H           63.68288500000000        4.53905100000000       -0.23730000000000
H           61.03816100000000        4.46215400000000       -0.23348900000000
H           58.32761300000000        4.45959400000000       -0.23302100000000
H           56.46106999999999        2.68920400000000       -0.14505700000000
H           56.70131600000000       -2.70942600000000        0.12233700000000
H           58.70323000000000       -4.55563000000000        0.21395400000000
H           61.30132100000000       -4.57005000000000        0.21485000000000
H           63.98312000000000       -4.53359800000000        0.21330400000000
H           65.71606600000000       -2.61026100000000        0.11794000000000
C           33.51198800000000       -0.01271300000000       -0.01130000000000
C           34.73390500000000       -0.01271300000000       -0.01130000000000
C           43.85034699999999       -0.01271300000000       -0.01130000000000
C           45.07226500000000       -0.01271300000000       -0.01130000000000
C           54.18870700000000       -0.01271300000000       -0.01130000000000
C           55.41062500000000       -0.01271300000000       -0.01130000000000
Cu          39.25788099999999       -0.04005600000000       -0.03562200000000
C           35.82442899999999        0.01416600000000        0.01259200000000
C           36.49096300000000        0.88760000000000        0.78982200000000
C           35.86665000000000        1.87959000000000        1.67251100000000
C           36.82502100000000        2.55815700000000        2.27638900000000
C           38.10623100000000        2.03792900000000        1.81352200000000
N           37.91414000000000        0.98235000000000        0.87420700000000
C           39.28861500000000        2.50298000000000        2.22739700000000
C           40.59829000000000        1.99979300000000        1.77966400000000
C           41.86493400000000        2.54472000000000        2.26467300000000
C           42.83711399999999        1.87928800000000        1.67250600000000
N           40.77426700000000        1.04035100000000        0.92581000000000
C           42.18948300000000        0.90163100000000        0.80240800000000
C           42.81853200000000        0.01416600000000        0.01259200000000
C           42.08860800000000       -0.95137000000000       -0.84671400000000
C           42.67535200000000       -1.84216900000000       -1.63958700000000
C           41.62528000000000       -2.58949400000000       -2.30459400000000
C           40.47110000000000       -2.10610300000000       -1.87426000000000
N           40.66541200000000       -1.04997300000000       -0.93432800000000
C           39.16602300000000       -2.61608800000000       -2.32793400000000
C           37.98683900000000       -2.14841700000000       -1.91168300000000
C           36.69972800000000       -2.65036400000000       -2.35821300000000
C           35.79315900000000       -1.93472900000000       -1.72141800000000
C           36.50084799999999       -0.97232200000000       -0.86516000000000
N           37.78835399999999       -1.09440500000000       -0.97386500000000
H           34.80928000000000        2.05031400000000        1.82437700000000
H           36.66975800000000        3.35849000000000        2.98856200000000
H           39.29502500000000        3.31264500000000        2.94789200000000
H           41.99607900000000        3.34714000000000        2.97879300000000
H           43.89491800000000        2.04867900000000        1.82329400000000
H           43.73765600000000       -1.99327000000000       -1.77416400000000
H           41.75787100000000       -3.39207400000000       -3.01886800000000
H           39.16755199999999       -3.42620300000000       -3.04879500000000
H           36.50522699999999       -3.44583300000000       -3.06598200000000
H           34.72379700000000       -2.05570300000000       -1.82899100000000
Cu          49.59624100000000       -0.04005600000000       -0.03562200000000
C           46.16278900000000        0.01416600000000        0.01259200000000
C           46.82932300000000        0.88760000000000        0.78982200000000
C           46.20501000000000        1.87959000000000        1.67251100000000
C           47.16338100000000        2.55815700000000        2.27638900000000
C           48.44459100000000        2.03792900000000        1.81352200000000
N           48.25250000000000        0.98235000000000        0.87420700000000
C           49.62697500000000        2.50298000000000        2.22739700000000
C           50.93665000000000        1.99979300000000        1.77966400000000
C           52.20329400000000        2.54472000000000        2.26467300000000
C           53.17547399999999        1.87928800000000        1.67250600000000
N           51.11262700000000        1.04035100000000        0.92581000000000
C           52.52784300000000        0.90163100000000        0.80240800000000
C           53.15689200000000        0.01416600000000        0.01259200000000
C           52.42696800000000       -0.95137000000000       -0.84671400000000
C           53.01371200000000       -1.84216900000000       -1.63958700000000
C           51.96364000000000       -2.58949400000000       -2.30459400000000
C           50.80946000000000       -2.10610300000000       -1.87426000000000
N           51.00377199999999       -1.04997300000000       -0.93432800000000
C           49.50438300000000       -2.61608800000000       -2.32793400000000
C           48.32519899999999       -2.14841700000000       -1.91168300000000
C           47.03808800000000       -2.65036400000000       -2.35821300000000
C           46.13151900000000       -1.93472900000000       -1.72141800000000
C           46.83920800000000       -0.97232200000000       -0.86516000000000
N           48.12671400000000       -1.09440500000000       -0.97386500000000
H           45.14764000000000        2.05031400000000        1.82437700000000
H           47.00811800000000        3.35849000000000        2.98856200000000
H           49.63338500000000        3.31264500000000        2.94789200000000
H           52.33443900000000        3.34714000000000        2.97879300000000
H           54.23327799999999        2.04867900000000        1.82329400000000
H           54.07601600000000       -1.99327000000000       -1.77416400000000
H           52.09623100000000       -3.39207400000000       -3.01886800000000
H           49.50591200000000       -3.42620300000000       -3.04879500000000
H           46.84358700000000       -3.44583300000000       -3.06598200000000
H           45.06215700000000       -2.05570300000000       -1.82899100000000
148
 energy: -272.830629968527 gnorm: 0.636001055115 xtb: 6.5.1 (b24c23e)
Cu          27.76593712472680        0.02209369946113        0.02367698573972
C           24.38918313955931       -0.07760367834138       -0.07640129128895
C           25.06668229319596       -0.90193512756553       -0.90444259307534
C           24.43116223864241       -1.82807334580426       -1.83466638013818
C           25.39746886966497       -2.47306488192845       -2.48255243645030
C           26.67414901527702       -1.97480076025516       -1.98212182651652
N           26.47041834491019       -0.99130656554379       -0.99426348514465
C           27.87603141337569       -2.40810267514958       -2.41732399389462
C           29.15877684556119       -1.92565141925824       -1.93268455972191
C           30.43728065598932       -2.41999515105165       -2.42893788187818
C           31.40089918589972       -1.77144272886908       -1.77748946299133
N           29.32625680113466       -1.00698609356102       -1.01009509054935
C           30.73553809906100       -0.85810934514868       -0.86037055901347
C           31.34961425752543       -0.00577693272041       -0.00435364582048
C           30.58909316293117        0.88416638166560        0.88934132531481
C           31.16271438664612        1.75093598857834        1.75981843394742
C           30.11580325122030        2.43861363690939        2.45049083403019
C           28.94238833792380        1.96541763465050        1.97530039419284
N           29.17193342141773        0.97851315363793        0.98412933883851
C           27.64794622262000        2.43808164673460        2.45014496874424
C           26.46944905474638        1.98352080857891        1.99368728067516
C           25.16715684437289        2.43399010807768        2.44634209074882
C           24.27660072434956        1.73413722410251        1.74348727320312
C           25.01645482943002        0.84570502308693        0.85097698620041
N           26.31089808376576        0.99281320804989        0.99856673676392
H           23.30558283720854       -0.10685624509590       -0.10571167639256
H           23.37100709426866       -1.97848114762139       -1.98569232015183
H           25.24271986063711       -3.22815093576839       -3.24096293173544
H           27.88644841182487       -3.17344979862344       -3.18603073569274
H           30.59247634380602       -3.17307419720332       -3.18517084737452
H           32.46142838027381       -1.91910987562331       -1.92558424512840
H           32.22165968175826        1.89352195080364        1.90300618053451
H           30.22164886456862        3.19660002037282        3.21178000144918
H           27.62424037181489        3.20551329750034        3.22098883126695
H           24.94243852598898        3.18049789437798        3.19623544694643
H           23.20533653152419        1.82023813747660        1.83014254765795
Cu          61.15681148016065       -0.06205384065920       -0.00884578005759
C           64.53339148215044        0.07913597565033       -0.01580524661041
C           63.85593956415882        1.24610272401953       -0.07379303496667
C           64.49148255349381        2.55715548999913       -0.13887772926021
C           63.52520617093720        3.47020654004469       -0.18423894530544
C           62.24856331590546        2.76474828163923       -0.14923965415626
N           62.45232895521750        1.37290949318291       -0.08012383642149
C           61.04646329149008        3.37817977118792       -0.17968444345288
C           59.76385308828763        2.69523932255808       -0.14575135458411
C           58.48521081069818        3.39486970693185       -0.18027285913630
C           57.52149275581532        2.47693889305254       -0.13467782578651
N           59.59614912456885        1.39496708706042       -0.08126702412581
C           58.18700283940544        1.18422141846172       -0.07064481421210
C           57.57463220820976       -0.02231722841331       -0.01075567161042
C           58.33344752908020       -1.28238872813733        0.05155205506832
C           57.75974691573337       -2.50928398950169        0.11241950380584
C           58.80671834028626       -3.48256413472713        0.16071103981482
C           59.98013614691465       -2.81268922749044        0.12752444208561
N           59.75050933124555       -1.41587154390990        0.05824870247061
C           61.27467877251753       -3.48188695931842        0.16081232672742
C           62.45320880975951       -2.83852412053348        0.12894683335972
C           63.75552509375592       -3.47638339137874        0.16075437005444
C           64.64604668882690       -2.48577424383779        0.11163746997163
C           63.90611745199674       -1.22801791069687        0.04908305039708
N           62.61195258325790       -1.43625915867080        0.05930763430888
H           65.61702439424302        0.12046050502281       -0.01780683753205
H           65.55161528476253        2.76999566668398       -0.14941214860326
H           63.67990138555025        4.53907702450443       -0.23730056527547
H           61.03613990713487        4.46162160399069       -0.23346184824004
H           58.33010702963123        4.46078257901939       -0.23307814910528
H           56.46104828366201        2.68561742392107       -0.14487709998978
H           56.70092302591592       -2.71094856908161        0.12240461020342
H           58.70094350805001       -4.55552425992794        0.21394821771181
H           61.29836118433462       -4.56830816069722        0.21476321148026
H           63.98018585548766       -4.53317202244956        0.21328360271737
H           65.71728870763765       -2.60771205426619        0.11781451018814
C           33.44722993618203       -0.01239705985280       -0.01100928345827
C           34.63916416395850       -0.01734789842842       -0.01541545997308
C           43.92110554733537       -0.02119635153881       -0.01884708040276
C           45.03749906326414       -0.01907701369709       -0.01696048655766
C           54.30799286045555       -0.02046867400560       -0.01810879787938
C           55.48851914528506       -0.01351871274760       -0.01195958494327
Cu          39.26035401699877       -0.03944263319535       -0.03507297331090
C           35.89644311967005        0.00728777908962        0.00646324758579
C           36.51631383909774        0.89727158575812        0.79843288268767
C           35.86575798917544        1.87451037359621        1.66799059154304
C           36.83042499671314        2.55948925577922        2.27757623339019
C           38.10415649099035        2.03577149314012        1.81160124965189
N           37.90704194045593        0.99270847273739        0.88342397082577
C           39.29982523058626        2.50275392707821        2.22719622146019
C           40.59065307689875        2.01256576719303        1.79103174480083
C           41.85408239700838        2.55016339990952        2.26951683471219
C           42.83273758737003        1.87267785045106        1.66662332376117
N           40.77523524903975        1.04178065649899        0.92708110323249
C           42.15396930392361        0.91669940493285        0.81581807245348
C           42.69901177444790        0.00900568599304        0.00799747910044
C           42.05699819948178       -0.95219628648504       -0.84744756021690
C           42.67190262025154       -1.85183685088015       -1.64819228174996
C           41.63950226221360       -2.59137178226747       -2.30626618492310
C           40.45883659130880       -2.10194235657801       -1.87055422256293
N           40.66442090232059       -1.05685226246108       -0.94045207969569
C           39.17569504395556       -2.61272850746786       -2.32494492382188
C           37.98619637193333       -2.14847879886623       -1.91173433373575
C           36.70416762075190       -2.65075195770484       -2.35856094019295
C           35.78805770895666       -1.92831790219833       -1.71570987365017
C           36.50374413332269       -0.97334702027446       -0.86607869999555
N           37.79454915759897       -1.10216600506244       -0.98077141782412
H           34.80892075490880        2.04699097494834        1.82142247994520
H           36.67268303688483        3.35847921767528        2.98855367498867
H           39.29674331614098        3.31256015613819        2.94781710401778
H           41.99354032453627        3.34825860208012        2.97978871213700
H           43.88743549701569        2.04527902885183        1.82027040302435
H           43.73202675059862       -1.99357201088323       -1.77443555250829
H           41.76017139967735       -3.39217132258959       -3.01895503031134
H           39.17025457254695       -3.42508799191069       -3.04780259946492
H           36.50805460320043       -3.44541286002619       -3.06560797318044
H           34.72250940364252       -2.05303392858053       -1.82660467964162
Cu          49.59858631398119       -0.03962149184978       -0.03522207463017
C           46.25399556992248        0.00689243291092        0.00611873431112
C           46.86272882439619        0.90152801804671        0.80221751954730
C           46.20743515604393        1.87403488865131        1.66756742397369
C           47.17000609926567        2.56021483650691        2.27821921134391
C           48.44254699799092        2.03637166729049        1.81213645061124
N           48.24458260418095        0.99406798852757        0.88462483879812
C           49.63841325575972        2.50262117397989        2.22707630590523
C           50.92980585132199        2.01119670740167        1.78982995894807
C           52.19495102452169        2.54972319549450        2.26911501104391
C           53.17479396163489        1.87412609779889        1.66788852562534
N           51.11487744321383        1.04222323504780        0.92746856388056
C           52.49935962313059        0.91309595299393        0.81256015167619
C           53.05411926433940        0.00974027715303        0.00856576037611
C           52.40009574152422       -0.95049346818773       -0.84589713294304
C           53.01332706044883       -1.85268091207094       -1.64893509926668
C           51.97916344275662       -2.59112815986725       -2.30604926734604
C           50.79788796007437       -2.10129508251998       -1.86997935032352
N           51.00478355359004       -1.05695778326306       -0.94054768390141
C           49.51420783734498       -2.61256385146888       -2.32480109080768
C           48.32491034622210       -2.14911719236138       -1.91230506619718
C           47.04304911911191       -2.65122362016824       -2.35897818003489
C           46.12893950237774       -1.92847036138901       -1.71584900444301
C           46.84828620872436       -0.97603806997532       -0.86846580051722
N           48.13269203462132       -1.10348320526808       -0.98194647775346
H           45.15407518537187        2.04708146184444        1.82149903542933
H           47.01101238992960        3.35863964360226        2.98869578701930
H           49.63520673476278        3.31253393384516        2.94779281979259
H           52.33203576631065        3.34817676843382        2.97971437835029
H           54.23286968116257        2.04527812392052        1.82026411006891
H           54.07602568960944       -1.99374635960699       -1.77457309177454
H           52.09861975939277       -3.39211836086187       -3.01890728594119
H           49.50868018625825       -3.42505709456058       -3.04777541694146
H           46.84634946249306       -3.44550453965945       -3.06568961027947
H           45.06599797019943       -2.05330416668547       -1.82685366814620
148
 energy: -273.063907049881 gnorm: 0.402293441459 xtb: 6.5.1 (b24c23e)
Cu          27.77428325145044        0.01667176392515        0.01825808689511
C           24.39075206606368       -0.06663398199230       -0.06538499636002
C           25.07039736306720       -0.90247671313985       -0.90498910406192
C           24.43084628328077       -1.82352261723824       -1.83009756396538
C           25.40430758534983       -2.47316095272204       -2.48265117763175
C           26.67341713782335       -1.97181591812822       -1.97912501515007
N           26.45134321618734       -1.00476641338410       -1.00778073567649
C           27.89298930881921       -2.40434958057724       -2.41355647402698
C           29.15585824184551       -1.93421921601155       -1.94129679526228
C           30.42892707491164       -2.42465043030709       -2.43360870381040
C           31.40032174142279       -1.76812920512130       -1.77417641790214
N           29.34772336511236       -1.00420706005300       -1.00731357779339
C           30.75310023874998       -0.85464518694205       -0.85686422365788
C           31.38226061390167        0.00513927002052        0.00668452473708
C           30.59854403847584        0.87533651412914        0.88046671182765
C           31.16638614501039        1.76574433597460        1.77468725144584
C           30.13952971655432        2.43774180539877        2.44960737783958
C           28.93887785846274        1.95589176202693        1.96573700087102
N           29.18913595650396        0.98131469156785        0.98693995788635
C           27.66717856275800        2.42812342769695        2.44014142701677
C           26.46879189647931        1.98057281822530        1.99072325836004
C           25.17142205119931        2.43062032476934        2.44295412069546
C           24.26792923487640        1.72701876805773        1.73633504320909
C           24.99768013885201        0.84086349285343        0.84611088926194
N           26.30741914864482        1.00052911142215        1.00630293362763
H           23.30696871291270       -0.10253499732920       -0.10137292913265
H           23.37083519392618       -1.97189166682506       -1.97907626933776
H           25.25228200524006       -3.22800591491714       -3.24082084776746
H           27.89373297981233       -3.17094608397551       -3.18351690344059
H           30.58498738724296       -3.17632291698652       -3.18843522932728
H           32.46073230137176       -1.91272013201455       -1.91921774625549
H           32.22519444396709        1.89869160891344        1.90819945137168
H           30.22932801223002        3.19621373733504        3.21138730730211
H           27.63697572266361        3.19831458098826        3.21375488100941
H           24.95142792206444        3.17814206939038        3.19386532632733
H           23.19953943325600        1.81505223959886        1.82493102817464
Cu          61.14854271019188       -0.05442572591746       -0.00923323138411
C           64.53181174442673        0.06363058148661       -0.01503564790076
C           63.85226118399387        1.24691564426413       -0.07383602361308
C           64.49184410122326        2.55076714857498       -0.13856070406120
C           63.51839777575780        3.47039011180976       -0.18424853235741
C           62.24930980125649        2.76052482917846       -0.14903049739759
N           62.47145545234670        1.39208327152271       -0.08106068579182
C           61.02946278683965        3.37283087109341       -0.17942041855716
C           59.76672510148445        2.70736551926669       -0.14636496843208
C           58.49341195779611        3.40143808687428       -0.18056805973440
C           57.52170728313080        2.47235054047976       -0.13440961800671
N           59.57449000650132        1.39106284958254       -0.08102030528297
C           58.16927101637099        1.17927323991410       -0.07036396814912
C           57.54179124168189       -0.03850935181970       -0.01022459962738
C           58.32406578355006       -1.27017125848474        0.05083720377758
C           57.75595784883357       -2.53045622211822        0.11343861357345
C           58.78292988711077       -3.48135658157515        0.16064485510493
C           59.98364840537823       -2.79921547042231        0.12686770605781
N           59.73330504856777       -1.41991906465577        0.05847291152746
C           61.25541979961672       -3.46776743956959        0.16011167650841
C           62.45390798182556       -2.83437636222742        0.12873790001814
C           63.75130721669921       -3.47166296407313        0.16051956613727
C           64.65478120139386       -2.47575182848495        0.11113947519783
C           63.92494739272823       -1.22121018763484        0.04874259432356
N           62.61550537567868       -1.44727210480719        0.05984985575418
H           65.61562265372672        0.11435040687375       -0.01750461500004
H           65.55182838664264        2.76069721231173       -0.14895221715235
H           63.67035185485040        4.53891257897865       -0.23729503013675
H           61.02884034255079        4.45804230215300       -0.23328763215618
H           58.33755115802941        4.46539231101844       -0.23330637855341
H           56.46134324060476        2.67659916586465       -0.14443720149103
H           56.69731752477392       -2.71831237376922        0.12273985309936
H           58.69323987239116       -4.55498639980139        0.21391642007672
H           61.28560636714220       -4.55808835497358        0.21425042038501
H           63.97121751735588       -4.52988039919534        0.21311794018389
H           65.72313617920135       -2.60039667685256        0.11744990048892
C           33.33414924640221       -0.00595700945409       -0.00476341318503
C           34.56086425727089       -0.02000189653522       -0.01771690676086
C           43.87046397180143       -0.03399468089613       -0.03024168401711
C           45.07082352407616       -0.02818019342222       -0.02505402783572
C           54.37200938633188       -0.03147446185935       -0.02745184465492
C           55.60176091864587       -0.02045074613344       -0.01180270697405
Cu          39.25927370979496       -0.03671104943984       -0.03263574229702
C           35.89294420230199       -0.00586770791535       -0.00526766233801
C           36.52396232154076        0.90131863705312        0.80203617857311
C           35.86607603939355        1.86902124064917        1.66310647598547
C           36.83670620581210        2.56029162982525        2.27829267044546
C           38.10339088111071        2.03654734410689        1.81228864865558
N           37.89186252950088        1.01073974554597        0.89946606013045