148
 energy: -273.429536875446 gnorm: 0.000599551359 xtb: 6.5.1 (b24c23e)
Cu          28.02329292030905       -0.02537783911847       -0.02464146855766
C           24.59650369738945       -0.02442557247465       -0.04009008299133
C           25.23095341648148       -0.72822553088734       -1.05377156423438
C           24.56224079240690       -1.45330973247338       -2.09941480142764
C           25.52604280508086       -1.99098478882997       -2.88758512978703
C           26.79120139566377       -1.59895996074176       -2.32981370220486
N           26.58128542353016       -0.83569877477551       -1.21821361703496
C           28.03183412180444       -1.93761701875375       -2.84957876636426
C           29.26788838174708       -1.57544434479135       -2.33472825257220
C           30.53104353978162       -1.92976659034550       -2.91489887449757
C           31.49316576196501       -1.39206190479397       -2.12299737425971
N           29.47926258607261       -0.83208534002627       -1.20474963835215
C           30.82596251872624       -0.71166299338661       -1.05123988020192
C           31.47572625640781       -0.02859378061628       -0.00749358930031
C           30.81692904820885        0.65645987158634        1.02916637772278
C           31.47482843255413        1.33808895116772        2.10589547071313
C           30.50588248468920        1.87867964142688        2.88743526769231
C           29.24783277141391        1.52530797196232        2.29561411888037
N           29.46894956618236        0.77953617990537        1.16916129248393
C           28.00742445075903        1.89047003571046        2.79778103859219
C           26.77132893222559        1.55231664454736        2.26697578904390
C           25.50141140396135        1.94609476384780        2.81262556253026
C           24.54441721648206        1.40706220566283        2.01713696562910
C           25.22207208195327        0.67998040022226        0.97866145771858
N           26.57095146406794        0.78722971908105        1.15490051859398
H           23.51146351574645       -0.02451306218526       -0.04481939321577
H           23.49118382751221       -1.53077430192253       -2.20299718546458
H           25.40778699438688       -2.60010980432838       -3.77014125330494
H           28.03706765781194       -2.54312272449295       -3.75021208194044
H           30.65241777596422       -2.51210685316950       -3.81470721410888
H           32.56253717917131       -1.44097062065365       -2.24896683878967
H           32.54309463237352        1.38579930260785        2.24167368911419
H           30.61947821821685        2.46252143291897        3.78727851915171
H           28.00495129975487        2.49782819127298        3.69716378969248
H           25.37561741263014        2.55716989964360        3.69278321858648
H           23.47251641107158        1.48509325596260        2.11114347862530
Cu          60.88323098013090       -0.00048786749148       -0.01960178884151
C           64.30957872970875        0.02167964618560       -0.01200334532060
C           63.67142848787651        1.24508180723912        0.13422714734442
C           64.33619471570813        2.51000377990315        0.29002858954570
C           63.36952378142198        3.45558191674194        0.39325563534528
C           62.10651641605318        2.77601302513450        0.30162682646878
N           62.32043557923789        1.43725233375014        0.14671746464915
C           60.86413541273832        3.39082127262884        0.35368421997525
C           59.63015383336103        2.76315423544970        0.26888154037290
C           58.36475716105638        3.43772372359216        0.30858823696067
C           57.40582520210639        2.48359836877722        0.19913418553168
N           59.42326402197639        1.41634572701063        0.13659768545212
C           58.07735790352854        1.22039267153887        0.09756246061047
C           57.43180049069458       -0.02316535537873       -0.02380395095035
C           58.09378466544047       -1.25777630405083       -0.14636512817676
C           57.43908214444819       -2.52939158716566       -0.25260038715384
C           58.41079603557874       -3.47055223771005       -0.36173443646975
C           59.66716082378169       -2.77952924928722       -0.31692459292590
N           59.44231814963392       -1.43589003367781       -0.18258241268529
C           60.90953202484287       -3.39098183397816       -0.39852820239634
C           62.14369308125096       -2.76042348292466       -0.34025354433460
C           63.41581582540339       -3.42343093781796       -0.42690691475633
C           64.36972401958394       -2.46572511165579       -0.31688355691746
C           63.68793824311030       -1.20972713749695       -0.16242151452550
N           62.33969334049669       -1.41923301221805       -0.18192868384890
H           65.39460400941637        0.02865661994717       -0.00899996822991
H           65.40684672776770        2.64033260078579        0.31477474173226
H           63.48444565466271        4.52074369655451        0.52025323941481
H           60.85580755678178        4.46986704987919        0.46926866413025
H           58.23979399788420        4.50481628022613        0.40457258932151
H           56.33606234653467        2.61461470872589        0.18077444477633
H           56.37093062822319       -2.67395488176765       -0.23861971350232
H           58.30014224515631       -4.53896353059947       -0.46052747729871
H           60.91548681569662       -4.46983616764357       -0.51605355026402
H           63.54514018126707       -4.48676226993704       -0.55545505290541
H           65.44205915980885       -2.58235488698177       -0.33647518030441
C           32.88651534515339       -0.02876045923962       -0.00141405272314
C           34.10341511799522       -0.02475042723848        0.00773015756161
C           43.84597819945223       -0.01633715937067       -0.02731075849158
C           45.06338335310012       -0.01370948580667       -0.02890430715326
C           54.80438171188266       -0.04034680712029       -0.01959908254894
C           56.02114622549932       -0.03205781899797       -0.02152309031786
Cu          38.97419518245800       -0.01989485382521       -0.00881737845922
C           35.51374058987136       -0.02545203051463        0.00759412091232
C           36.17108920047803        0.97340966309959        0.74862027971883
C           35.51267321687583        2.01029111189790        1.48896541350363
C           36.48149216218538        2.75593599184125        2.07887081319506
C           37.73890075801945        2.18189950315479        1.69632366382300
N           37.51829852202167        1.10322401341368        0.88336683568873
C           38.97988162643203        2.64672949963500        2.10513470482685
C           40.21836473611621        2.13826910186912        1.74322834014273
C           41.47768355973297        2.63727331879043        2.21414207040272
C           42.44335397384243        1.88934568833377        1.62211140198495
N           40.43494612716280        1.09997748915431        0.87811988716773
C           41.78159301648048        0.93458681094913        0.78147568071195
C           42.43610161749600       -0.01502657738866       -0.02489056526337
C           41.77706637843646       -0.96556661369722       -0.82656579244549
C           42.43414095300651       -1.91843629065838       -1.67311072950475
C           41.46541947805380       -2.66986885258459       -2.25568664759869
C           40.20897885293220       -2.17460207745306       -1.77335568762055
N           40.43025825364691       -1.13467045698884       -0.91135139620822
C           38.96861424413128       -2.68759970536188       -2.12194907055003
C           37.73048772034719       -2.22696845552893       -1.69998844455505
C           36.47148063740660       -2.80593010157921       -2.06949426091577
C           35.50594865865446       -2.06343654937346       -1.47040687164611
C           36.16788269800227       -1.02378677780320       -0.73717232049369
N           37.51416968562489       -1.14908083996038       -0.88484602066895
H           34.44457396978200        2.14616619440190        1.54053325947677
H           36.36778202926577        3.62058129952400        2.71369865902092
H           38.98232950836260        3.49744865956764        2.77926444690832
H           41.59462284413468        3.45204931804845        2.91123669728031
H           43.51152189199080        1.96641643223339        1.74302203797170
H           43.50140327745115       -1.99157507197787       -1.80404558069321
H           41.57840028418480       -3.48507285622100       -2.95294378504597
H           38.96653418955332       -3.53856910775222       -2.79575219492430
H           36.35458303744718       -3.67111070583260       -2.70295193385143
H           34.43802375942516       -2.20413616185133       -1.50993243056872
Cu          49.93454385588122       -0.03200173673335       -0.01706946279096
C           46.47329667354308       -0.01847247524163       -0.02614337268957
C           47.13284327970318        1.12249528969657        0.46740214386487
C           46.47630297236974        2.30523660126180        0.94329814638492
C           47.44547774159651        3.16178993324865        1.35495408970020
C           48.70167366582406        2.50910490711698        1.12570881794212
N           48.47971288202764        1.27336111448154        0.58058427375253
C           49.94244501858600        3.05092487281145        1.42589260261926
C           51.18028090439469        2.46900777216969        1.19733586705901
C           52.44026060995495        3.05944261576202        1.54506640812501
C           53.40496842837941        2.19290249532327        1.14401854490863
N           51.39522633095737        1.25861516176048        0.59589771544203
C           52.74136354567172        1.07176019306045        0.54433190905663
C           53.39418941967687       -0.04161480909593       -0.01520763760674
C           52.73663160007549       -1.15421670263735       -0.57051577279139
C           53.39491283829706       -2.28302689854014       -1.16159412982117
C           52.42577995169918       -3.14616751261540       -1.55959945056729
C           51.16856243033197       -2.54568638883643       -1.21927042386576
N           51.38955927884707       -1.33349366350162       -0.62354495248684
C           49.92708429582241       -3.11895709956075       -1.45007026758168
C           48.68913041650276       -2.56576146611677       -1.15885253176162
C           47.42931282697152       -3.20954214098088       -1.39345460570951
C           46.46425531514324       -2.34416529767849       -0.99070619402456
C           47.12689388013952       -1.16495518825552       -0.51484313803995
N           48.47340635027248       -1.32652213281287       -0.61918533572457
H           45.40910238447846        2.45536441913923        0.95153983087455
H           47.33298304797962        4.14977981351190        1.77296745404501
H           49.94515258908631        4.03367175347335        1.88672025248265
H           52.55812468605083        4.01256667690308        2.03615497139251
H           54.47329814365411        2.29207338970928        1.24762326962918
H           54.46305254319211       -2.39023938048882       -1.25984904158830
H           52.53915152288869       -4.10320545539192       -2.04415243968998
H           49.92355568885861       -4.10385445509211       -1.90629921336657
H           47.31181959968271       -4.19803169844968       -1.80888269467668
H           45.39600490056642       -2.48614186424868       -1.00504681652140
