262
 energy: -479.351981890437 gnorm: 5.817162985678 xtb: 6.5.1 (b24c23e)
Ni          40.45808300000000       -0.02554100000000        0.00218000000000
C           37.09633000000000        0.10956600000000       -0.11684300000000
C           37.76239000000000        1.26325800000000       -0.01641100000000
C           37.11256400000000        2.56485700000000        0.07752000000000
C           38.05266800000000        3.47907600000000        0.22274300000000
C           39.35800300000000        2.80401000000000        0.22370400000000
N           39.18063200000000        1.39544300000000        0.06887000000000
C           40.54741700000000        3.41634700000000        0.39675700000000
C           40.58374899999999        4.88328900000000        0.58929500000000
C           40.83861099999999        5.42100400000000        1.85894400000000
C           40.87735399999999        6.80619700000000        2.04208900000000
C           40.65701000000000        7.67168500000000        0.95644600000000
C           40.69033500000000        9.13521000000000        1.13030700000000
O           40.92468400000000        9.65151200000000        2.25555800000000
C           40.40092400000000        7.12978000000000       -0.31275400000000
C           40.36690800000000        5.74453900000000       -0.49628700000000
C           41.84316000000000        2.68543000000000        0.41344300000000
C           43.13794300000000        3.32726900000000        0.67214500000000
C           44.07209700000000        2.40396800000000        0.57930900000000
N           41.98185600000000        1.41902100000000        0.16229400000000
C           43.38379300000000        1.16191100000000        0.25058500000000
C           43.97990600000000       -0.01678500000000        0.00326200000000
C           43.22501800000000       -1.24023800000000       -0.35518200000000
C           43.77864000000000       -2.32868100000000       -0.87517900000000
C           42.73467300000000       -3.32363000000000       -1.00889900000000
C           41.60996800000000       -2.77996000000000       -0.55992200000000
N           41.82848900000000       -1.43550800000000       -0.12575800000000
C           40.31326700000000       -3.50014500000000       -0.47364800000000
C           40.32275600000000       -4.98017200000000       -0.54914800000000
C           39.76042400000000       -5.63937200000000       -1.65361300000000
C           39.78992200000000       -7.03463700000000       -1.73070900000000
C           40.38679000000000       -7.78923500000000       -0.70840100000000
C           40.41451400000000       -9.25981700000000       -0.80976200000000
O           40.99055799999999       -9.96118000000000        0.06277600000000
C           40.95448900000000       -7.12671500000000        0.39456700000000
C           40.92510599999999       -5.73134300000000        0.47061800000000
C           39.14502499999999       -2.84679300000000       -0.32996900000000
C           37.82332300000000       -3.46045000000000       -0.21280100000000
C           36.96287700000000       -2.46485600000000       -0.12734300000000
C           37.72579300000000       -1.21885400000000       -0.17729200000000
N           38.99925500000000       -1.42862300000000       -0.29544800000000
H           36.01305900000000        0.14238000000000       -0.13368200000000
H           36.04872500000000        2.76262400000000        0.05024700000000
H           37.86415200000000        4.53901900000000        0.33302400000000
H           41.00804899999999        4.76633100000000        2.70518300000000
H           41.07797100000000        7.19878600000000        3.03106600000000
H           40.51284500000000        9.78510300000000        0.28305500000000
H           40.22800100000000        7.77911600000000       -1.16239500000000
H           40.16988400000000        5.34170500000000       -1.48249400000000
H           43.32049400000000        4.37063400000000        0.89116300000000
H           45.13305900000000        2.57136300000000        0.70929700000000
H           44.81875299999999       -2.46558200000000       -1.13836500000000
H           42.85863300000000       -4.32872600000000       -1.39012000000000
H           39.30405100000000       -5.07147700000000       -2.45595700000000
H           39.35205300000000       -7.52522700000000       -2.59229100000000
H           39.94297300000000       -9.75268500000000       -1.64997800000000
H           41.42073500000000       -7.68579000000000        1.19690900000000
H           41.36825400000000       -5.23557600000000        1.32603400000000
H           37.57221300000000       -4.51297900000000       -0.19379600000000
H           35.88986900000000       -2.56692800000000       -0.02920700000000
Ni          95.99413600000000       -0.00796300000000        0.00343800000000
C           99.35588900000000       -0.12474300000000       -0.13361200000000
C           98.68982900000000       -1.28098000000000       -0.19849800000000
C           99.33965499999998       -2.58268900000000       -0.29088100000000
C           98.39955100000000       -3.50827200000000       -0.27732900000000
C           97.09421500000001       -2.84022200000000       -0.18024400000000
N           97.27158700000000       -1.42396200000000       -0.13290900000000
C           95.90480200000000       -3.47096200000000       -0.09615600000000
C           95.86847000000000       -4.95037200000000       -0.11448200000000
C           95.61360799999999       -5.66341400000000        1.06565200000000
C           95.57486399999999       -7.06057100000000        1.04967000000000
C           95.79520900000000       -7.76263500000000       -0.14816100000000
C           95.76188399999999       -9.23600300000000       -0.18448800000000
O           95.52753500000000       -9.90728600000000        0.85577000000000
C           96.05129500000000       -7.04551000000000       -1.32725400000000
C           96.08531100000000       -5.64825100000000       -1.31164800000000
C           94.60905900000000       -2.74987100000000        0.02444900000000
C           93.31427600000001       -3.42201000000000        0.18911200000000
C           92.38012200000000       -2.49489800000000        0.22870600000000
N           94.47036300000001       -1.46060400000000       -0.04379500000000
C           93.06842500000000       -1.21868800000000        0.08021000000000
C           92.47231300000000       -0.01678500000000        0.00326200000000
C           93.22720000000000        1.24524500000000       -0.17730000000000
C           92.67357900000000        2.39664500000000       -0.53699500000000
C           93.71754600000000        3.40049700000000       -0.52766600000000
C           94.84224999999999        2.79843100000000       -0.16068600000000
N           94.62372999999999        1.40585300000000        0.07759300000000
C           96.13895200000000        3.49899000000000        0.02726800000000
C           96.12946300000000        4.97468400000000        0.16330400000000
C           96.69179400000000        5.78444900000000       -0.83603100000000
C           96.66229699999998        7.17647200000000       -0.71364600000000
C           96.06542899999999        7.77779700000000        0.40570300000000
C           96.03770400000001        9.24782500000000        0.51479600000000
O           95.46166100000001        9.81778400000000        1.47832100000000
C           95.49772899999999        6.96495800000000        1.40308200000000
C           95.52711299999999        5.57297800000000        1.27964800000000
C           97.30719299999998        2.83183600000000        0.07644000000000
C           98.62889500000000        3.42255300000000        0.27980300000000
C           99.48934199999998        2.42493600000000        0.22261100000000
C           98.72642599999999        1.19874600000000       -0.00426900000000
N           97.45296399999999        1.42320300000000       -0.09134800000000
H          100.43915999999999       -0.15482600000000       -0.15495300000000
H          100.40349399999999       -2.77455700000000       -0.34603900000000
H           98.58806699999998       -4.57311600000000       -0.31911600000000
H           95.44416999999999       -5.13592400000000        1.99649600000000
H           95.37424799999999       -7.58999600000000        1.97266000000000
H           95.93937400000000       -9.75861800000000       -1.11565400000000
H           96.22421799999998       -7.56723400000000       -2.26070500000000
H           96.28233500000000       -5.10907900000000       -2.23043800000000
H           93.13172500000000       -4.48593100000000        0.25731500000000
H           91.31916000000000       -2.67909900000000        0.33353100000000
H           91.63346599999998        2.56963100000000       -0.77800400000000
H           93.59358600000000        4.44963800000000       -0.76186800000000
H           97.14816800000000        5.33660100000000       -1.71106900000000
H           97.10016500000000        7.78475800000000       -1.49658300000000
H           96.50924599999999        9.85532300000000       -0.24666800000000
H           95.03148299999999        7.40407600000000        2.27686400000000
H           95.08396500000001        4.96044600000000        2.05574500000000
H           98.88000599999999        4.46164700000000        0.44850200000000
H          100.56235000000000        2.51199200000000        0.33428300000000
C           46.10968100000000       -0.00209400000000        0.01353800000000
C           47.56790700000000       -0.02393100000000       -0.00433500000000
C           48.70183500000000       -0.04468500000000       -0.00582600000000
C           50.06321699999999       -0.05727400000000       -0.00801700000000
C           51.33743599999999       -0.04696800000000       -0.01278200000000
C           52.52589799999999       -0.02817000000000       -0.01893800000000
C           53.87825899999999       -0.00338500000000       -0.00307000000000
C           54.97852600000000       -0.00209400000000        0.01353800000000
C           63.72966800000000       -0.00209400000000        0.01353800000000
C           65.18789500000000       -0.02393100000000       -0.00433500000000
C           66.32182299999999       -0.04468500000000       -0.00582600000000
C           67.68320400000000       -0.05727400000000       -0.00801700000000
C           68.95742300000001       -0.04696800000000       -0.01278200000000
C           70.14588600000000       -0.02817000000000       -0.01893800000000
C           71.49824599999999       -0.00338500000000       -0.00307000000000
C           72.59851399999999       -0.00209400000000        0.01353800000000
C           81.34965599999998       -0.00209400000000        0.01353800000000
C           82.80788200000001       -0.02393100000000       -0.00433500000000
C           83.94181000000000       -0.04468500000000       -0.00582600000000
C           85.30319200000000       -0.05727400000000       -0.00801700000000
C           86.57741100000000       -0.04696800000000       -0.01278200000000
C           87.76587300000000       -0.02817000000000       -0.01893800000000
C           89.11823400000000       -0.00338500000000       -0.00307000000000
C           90.21850100000000       -0.00209400000000        0.01353800000000
Ni          59.40032600000000       -0.02620700000000        0.01543700000000
C           55.95809300000000        0.01749500000000       -0.00607100000000
C           56.61434500000000        1.15252300000000        0.30334400000000
C           55.97339500000000        2.44346500000000        0.56593100000000
C           56.91360000000000        3.31863200000000        0.86830500000000
C           58.21157500000000        2.63907700000000        0.82288100000000
N           58.03170000000000        1.26769000000000        0.45788500000000
C           59.39659400000000        3.22032100000000        1.10477700000000
C           59.43117300000000        4.63786600000000        1.52758400000000
C           59.93248699999999        5.61817000000000        0.65851600000000
C           59.97673200000000        6.95632300000000        1.05790800000000
C           59.52161700000000        7.33057800000000        2.33459600000000
C           59.54576500000000        8.73601400000000        2.77607100000000
O           60.01083400000000        9.63732400000000        2.03240400000000
C           59.02941999999999        6.34663600000000        3.20259100000000
C           58.98580900000000        5.00849100000000        2.80184700000000
C           60.69275199999999        2.50482300000000        1.01435300000000
C           61.96078900000000        3.04758100000000        1.51671400000000
C           62.91270900000000        2.18616900000000        1.22177100000000
N           60.86038299999999        1.35542500000000        0.43729800000000
C           62.25836600000000        1.08343500000000        0.52945500000000
C           62.87401500000000        0.01749500000000       -0.00607100000000
C           62.12542199999999       -1.06640100000000       -0.67477300000000
C           62.65846999999999       -1.93808100000000       -1.52040900000000
C           61.62679900000000       -2.90327700000000       -1.84950600000000
C           60.53476400000000       -2.55376900000000       -1.18189400000000
N           60.75985700000000       -1.37630100000000       -0.40896400000000
C           59.27961100000000       -3.34065000000000       -1.15661400000000
C           59.34120599999999       -4.77772600000000       -1.51213600000000
C           60.10831300000000       -5.65869700000000       -0.73549000000000
C           60.18060699999999       -7.01362800000000       -1.07053700000000
C           59.49209500000000       -7.50509600000000       -2.19087500000000
C           59.57615199999999       -8.93823300000000       -2.52169600000000
O           58.95614400000000       -9.41628500000000       -3.51051200000000
C           58.73330600000000       -6.61963100000000       -2.97683700000000
C           58.66123499999999       -5.26410000000000       -2.64082300000000
C           58.10642099999999       -2.78439600000000       -0.79751700000000
C           56.82949599999999       -3.48021100000000       -0.67496400000000
C           55.93847699999999       -2.56052600000000       -0.36097000000000
C           56.63596800000000       -1.27225100000000       -0.27472200000000
N           57.90349400000000       -1.39736700000000       -0.52565700000000
H           54.91664400000000        2.67494400000000        0.52302000000000
H           56.72939000000000        4.35927700000000        1.10271200000000
H           60.28611500000000        5.34452700000000       -0.32807800000000
H           60.36425700000000        7.69707500000000        0.36930800000000
H           59.15240200000000        9.00844700000000        3.75550400000000
H           58.67834100000000        6.61341100000000        4.19037800000000
H           58.60613499999999        4.26068900000000        3.48349300000000
H           62.11036300000000        3.98504200000000        2.03607200000000
H           63.96255699999999        2.30370800000000        1.45787400000000
H           63.67887300000000       -1.95234400000000       -1.87717200000000
H           61.74111799999999       -3.76871600000000       -2.48837900000000
H           60.64484800000000       -5.29631300000000        0.13334900000000
H           60.77344200000000       -7.67948800000000       -0.45392600000000
H           60.17599799999999       -9.60044800000000       -1.90865700000000
H           58.20041800000000       -6.97320800000000       -3.85110700000000
H           58.07855299999999       -4.59245600000000       -3.26063600000000
H           56.62734700000000       -4.53614500000000       -0.80192900000000
H           54.88601500000000       -2.75010800000000       -0.19371200000000
Ni          77.02031400000000       -0.02620700000000        0.01543700000000
C           73.57808000000000        0.01749500000000       -0.00607100000000
C           74.23433199999999        1.15252300000000        0.30334400000000
C           73.59338200000001        2.44346500000000        0.56593100000000
C           74.53358699999998        3.31863200000000        0.86830500000000
C           75.83156199999999        2.63907700000000        0.82288100000000
N           75.65168699999998        1.26769000000000        0.45788500000000
C           77.01658199999999        3.22032100000000        1.10477700000000
C           77.05116099999999        4.63786600000000        1.52758400000000
C           77.55247400000000        5.61817000000000        0.65851600000000
C           77.59671899999998        6.95632300000000        1.05790800000000
C           77.14160400000000        7.33057800000000        2.33459600000000
C           77.16575200000000        8.73601400000000        2.77607100000000
O           77.63082199999999        9.63732400000000        2.03240400000000
C           76.64940700000000        6.34663600000000        3.20259100000000
C           76.60579600000000        5.00849100000000        2.80184700000000
C           78.31274000000001        2.50482300000000        1.01435300000000
C           79.58077599999999        3.04758100000000        1.51671400000000
C           80.53269600000000        2.18616900000000        1.22177100000000
N           78.48036999999999        1.35542500000000        0.43729800000000
C           79.87835300000000        1.08343500000000        0.52945500000000
C           80.49400199999999        0.01749500000000       -0.00607100000000
C           79.74540899999998       -1.06640100000000       -0.67477300000000
C           80.27845800000000       -1.93808100000000       -1.52040900000000
C           79.24678599999999       -2.90327700000000       -1.84950600000000
C           78.15475099999999       -2.55376900000000       -1.18189400000000
N           78.37984399999999       -1.37630100000000       -0.40896400000000
C           76.89959800000000       -3.34065000000000       -1.15661400000000
C           76.96119400000001       -4.77772600000000       -1.51213600000000
C           77.72830099999999       -5.65869700000000       -0.73549000000000
C           77.80059500000000       -7.01362800000000       -1.07053700000000
C           77.11208200000000       -7.50509600000000       -2.19087500000000
C           77.19614000000000       -8.93823300000000       -2.52169600000000
O           76.57613200000000       -9.41628500000000       -3.51051200000000
C           76.35329299999999       -6.61963100000000       -2.97683700000000
C           76.28122200000000       -5.26410000000000       -2.64082300000000
C           75.72640800000001       -2.78439600000000       -0.79751700000000
C           74.44948400000000       -3.48021100000000       -0.67496400000000
C           73.55846400000000       -2.56052600000000       -0.36097000000000
C           74.25595600000000       -1.27225100000000       -0.27472200000000
N           75.52348099999999       -1.39736700000000       -0.52565700000000
H           72.53663099999999        2.67494400000000        0.52302000000000
H           74.34937699999999        4.35927700000000        1.10271200000000
H           77.90610300000000        5.34452700000000       -0.32807800000000
H           77.98424400000000        7.69707500000000        0.36930800000000
H           76.77238999999999        9.00844700000000        3.75550400000000
H           76.29832799999998        6.61341100000000        4.19037800000000
H           76.22612300000000        4.26068900000000        3.48349300000000
H           79.73034999999999        3.98504200000000        2.03607200000000
H           81.58254500000000        2.30370800000000        1.45787400000000
H           81.29886000000000       -1.95234400000000       -1.87717200000000
H           79.36110499999999       -3.76871600000000       -2.48837900000000
H           78.26483600000000       -5.29631300000000        0.13334900000000
H           78.39343000000000       -7.67948800000000       -0.45392600000000
H           77.79598500000000       -9.60044800000000       -1.90865700000000
H           75.82040499999999       -6.97320800000000       -3.85110700000000
H           75.69853999999999       -4.59245600000000       -3.26063600000000
H           74.24733399999998       -4.53614500000000       -0.80192900000000
H           72.50600200000000       -2.75010800000000       -0.19371200000000
262
 energy: -481.408871971864 gnorm: 1.412103833497 xtb: 6.5.1 (b24c23e)
Ni          40.45950292470403       -0.02549651178722        0.00114916582909
C           37.09654079982690        0.10404719672037       -0.11712662049511
C           37.76562269915757        1.26473944484044       -0.01625346102262
C           37.11172005340012        2.56288202686261        0.07722769883824
C           38.05524690533384        3.48008010506874        0.22296080521752
C           39.35651349619509        2.80094185077272        0.22306115418885
N           39.17691297368871        1.39871084081845        0.06964914059801
C           40.55232358493588        3.41513271526087        0.39699853103453
C           40.58418114291738        4.88391733303507        0.58940877735519
C           40.83868949280337        5.42232818366341        1.85841772548850
C           40.87718990723980        6.80530601815362        2.04135852025601
C           40.65692602857354        7.67188821447510        0.95606746600881
C           40.69180437583984        9.13641427234114        1.13722282791773
O           40.92356976872543        9.64900898924634        2.25027760302994
C           40.40096702450518        7.12859900177198       -0.31240153477605
C           40.36689873536587        5.74543160318001       -0.49551942623232
C           41.84032283402941        2.69082320027376        0.41419846369215
C           43.13437280920139        3.32992291322123        0.67217454298563
C           44.07289264128950        2.40140750550639        0.57886638207250
N           41.98319854201085        1.41524328417407        0.16237501648150
C           43.38548005688400        1.16213268757835        0.25079895550895
C           43.98447776087027       -0.02040677325553        0.00189220000983
C           43.22403725593557       -1.23395900158525       -0.35184974493795
C           43.77886637804052       -2.33585222735937       -0.87759349796439
C           42.74186165230085       -3.32393638375640       -1.01022884189600
C           41.60418067528546       -2.77662617975220       -0.55695013156483
N           41.82918478670134       -1.43600036064852       -0.12708986334854
C           40.31712209629398       -3.49838670611661       -0.47377216371424
C           40.32348348227701       -4.98033892764421       -0.54953510667813
C           39.76057850481391       -5.64029655967723       -1.65302566272096
C           39.79011941540610       -7.03352870059788       -1.73015650155096
C           40.38655426427540       -7.78932552350998       -0.70871767474217
C           40.41821118460803       -9.26216846371648       -0.80416098312651
O           40.98782596664589       -9.95785268775401        0.05879481764243
C           40.95411941871849       -7.12568837769313        0.39405766925592
C           40.92492342400827       -5.73245366474427        0.46991249678251
C           39.14397647618466       -2.84585877422186       -0.32975635249896
C           37.82602624014618       -3.46137050689643       -0.21304403760891
C           36.96069263188780       -2.46160008078642       -0.12727709236023
C           37.72016351623576       -1.21522346865618       -0.17696359238813
N           39.00242748273110       -1.43036795042947       -0.29470457278605
H           36.01313068625235        0.14195370712357       -0.13364517714194
H           36.04877509746292        2.76176590104560        0.05012397378115
H           37.86517442175032        4.53903487935686        0.33304563768858
H           41.00800273717443        4.76632121051135        2.70501853160880
H           41.07792091552648        7.19914019026847        3.03091454427497
H           40.51263027560093        9.78506433825394        0.28203104553782
H           40.22803545315507        7.77919034592353       -1.16231650915091
H           40.16993826605829        5.34161490140423       -1.48235557239787
H           43.31961738341455        4.37086170568137        0.89115496176271
H           45.13297718755742        2.57024883511733        0.70909000404973
H           44.81866876240462       -2.46577415636411       -1.13840847986496
H           42.85894381176435       -4.32856043124303       -1.39017197472180
H           39.30415014268421       -5.07141687418568       -2.45580076614893
H           39.35211382268993       -7.52528653062776       -2.59218948019415
H           39.94240823012059       -9.75248073815672       -1.65086491287953
H           41.42062891590738       -7.68607959099989        1.19666596906251
H           41.36817208717036       -5.23552771391614        1.32586778183194
H           37.57318946457141       -4.51289053204240       -0.19388923866253
H           35.88979747350665       -2.56616667286625       -0.02920581649151
Ni          95.99270078987500       -0.00785555359939        0.00241047773783
C           99.35567265976073       -0.11925636482139       -0.13310748819929
C           98.68660757845250       -1.28245380150170       -0.19855254509864
C           99.34049577187565       -2.58070354865714       -0.29088945850208
C           98.39698750770637       -3.50929466876210       -0.27725774733554
C           97.09569312324551       -2.83707634448383       -0.18044176068597
N           97.27529455976646       -1.42731729305474       -0.13260060682751
C           95.89991313755002       -3.46979922655111       -0.09574192054513
C           95.86803624432721       -4.95101373700153       -0.11445959943083
C           95.61352856467495       -5.66464948799130        1.06494293669785
C           95.57502826926495       -7.05958604526539        1.04907314689975
C           95.79529276568448       -7.76277912894312       -0.14856429391329
C           95.76041653188447       -9.23818635680469       -0.17781278330997
O           95.52864654475076       -9.90405230001344        0.85089700705970
C           96.05125203064910       -7.04439241232582       -1.32673632571874
C           96.08531995225127       -5.64924326424761       -1.31101587360165
C           94.61190059792702       -2.75523043676249        0.02442667344369
C           93.31778765926316       -3.42462091115098        0.18876495165724
C           92.37930447097187       -2.49232845789710        0.22864533954135
N           94.46917755538395       -1.45701051897151       -0.04321932455308
C           93.06661532145982       -1.21863069729271        0.08038705736869
C           92.46938035847670       -0.01290317889020        0.00249221148811
C           93.22825281022696        1.23837833818325       -0.17488550445590
C           92.67335904312652        2.40410465314975       -0.53836650237689
C           93.71032338185250        3.40098356538584       -0.52894501704021
C           94.84806090411386        2.79469033247732       -0.15821252354811
N           94.62311849776751        1.40659667397548        0.07635841436689
C           96.13508936797024        3.49726799206842        0.02689344076541
C           96.12873509483009        4.97490943650811        0.16294394611964
C           96.69163920963643        5.78527830869348       -0.83531854319950
C           96.66209818836951        7.17529846519820       -0.71325499895806
C           96.06566440093427        7.77792451646646        0.40540248948093
C           96.03400507540607        9.24936797097578        0.52067990643727
O           95.46439582342451        9.81504947606626        1.47389977876109
C           95.49809983356432        6.96401692144544        1.40243037592588
C           95.52729553100180        5.57417547663588        1.27910765887437
C           97.30824393546155        2.83087551270364        0.07651971179849
C           98.62619119741551        3.42349774509246        0.27969333310844
C           99.49152608033974        2.42170291841309        0.22221223946744
C           98.73205321867071        1.19511231476159       -0.00446058013216
N           97.44979147298824        1.42482509412515       -0.09036389795081
H          100.43908731637822       -0.15440984917161       -0.15485613023732
H          100.40344303804038       -2.77369075507047       -0.34603849821793
H           98.58704481041275       -4.57313423552139       -0.31909677418366
H           95.44421670237170       -5.13589087007246        1.99633503020889
H           95.37429861007645       -7.59032508658147        1.97245978428873
H           95.93958881047325       -9.75843383274536       -1.11666148003572
H           96.22418373105603       -7.56731846415179       -2.26063759206478
H           96.28228090067775       -5.10900950449236       -2.23028809643726
H           93.13260082076044       -4.48615738503532        0.25727382779766
H           91.31926729375638       -2.67801629300616        0.33348830304577
H           91.63356742531708        2.56984774117650       -0.77802181776051
H           93.59327462424221        4.44948233117448       -0.76194308156495
H           97.14806885931098        5.33651907239260       -1.71092309475031
H           97.10010418964619        7.78480183919075       -1.49647361308230
H           96.50981044462786        9.85524693141575       -0.24757422859720
H           95.03158920092207        7.40439730596479        2.27666457259621
H           95.08404720062316        4.96042170314833        2.05557400325440
H           98.87902913710396        4.46157180003209        0.44839691617296
H          100.56242052542780        2.51123792288782        0.33417573288578