191
 energy: -376.356725059872 gnorm: 0.686264261393 xtb: 6.5.1 (b24c23e)
Fe          28.57589500000000        0.03862100000000       -0.01083900000000
C           25.23914900000000       -0.08637700000000       -0.08853400000000
C           25.90234500000000       -1.23771000000000       -0.23125300000000
C           25.25163900000000       -2.53624100000000       -0.35728700000000
C           26.19212800000000       -3.44934900000000       -0.51171700000000
C           27.49754500000000       -2.77471600000000       -0.50288800000000
N           27.32053900000000       -1.36995000000000       -0.31553100000000
C           28.69001400000000       -3.38477500000000       -0.66550200000000
C           28.73739800000000       -4.84666900000000       -0.89475600000000
C           29.25269800000000       -5.69610800000000        0.09334400000000
C           29.31145800000000       -7.07519100000000       -0.12410000000000
C           28.85867100000000       -7.62735200000000       -1.33683900000000
N           28.91453600000000       -9.04754200000000       -1.56348000000000
O           28.47008500000000       -9.58482800000000       -2.75037800000000
O           29.35417199999999       -9.81578200000000       -0.68236700000000
C           28.34942800000000       -6.76880600000000       -2.32717500000000
C           28.29139200000000       -5.38961200000000       -2.10844300000000
C           29.98302700000000       -2.65158500000000       -0.63638900000000
C           31.26960700000000       -3.25067700000000       -1.01294800000000
C           32.20395000000000       -2.33616100000000       -0.84872800000000
N           30.12377700000000       -1.41764200000000       -0.25878200000000
C           31.52096800000000       -1.14226800000000       -0.36509500000000
C           32.11438600000000        0.00975600000000       -0.01274800000000
C           31.35109200000000        1.18469400000000        0.46494300000000
C           31.88352300000000        2.19756800000000        1.13694700000000
C           30.83993300000000        3.18658300000000        1.32507600000000
C           29.73944900000000        2.71412600000000        0.75092500000000
N           29.97235200000000        1.42520900000000        0.18002400000000
C           28.45751000000000        3.45929600000000        0.65687400000000
C           28.47500500000000        4.92699300000000        0.86872000000000
C           27.81286200000000        5.49549500000000        1.96697800000000
C           27.84995400000000        6.87684900000000        2.17547400000000
C           28.55431400000000        7.71344800000000        1.29203500000000
N           28.58908400000000        9.13593700000000        1.50870700000000
O           27.98398000000000        9.68964800000000        2.61418900000000
O           29.17280700000000        9.88910200000000        0.70149500000000
C           29.22487600000000        7.13696700000000        0.19724600000000
C           29.18791999999999        5.75507800000000       -0.00961700000000
C           27.29538900000000        2.83317600000000        0.38967700000000
C           25.98522600000000        3.46609200000000        0.24663300000000
C           25.12377200000000        2.48654800000000        0.05346400000000
C           25.87518400000000        1.23241400000000        0.05811000000000
N           27.14169900000000        1.42216600000000        0.25243600000000
H           24.15566700000000       -0.11455700000000       -0.08268800000000
H           24.18749500000000       -2.73411800000000       -0.32814400000000
H           26.00425700000000       -4.50933600000000       -0.62345100000000
H           29.60665400000000       -5.28930800000000        1.03284800000000
H           29.71202500000000       -7.70915100000000        0.65599300000000
H           27.99698300000000       -7.16248300000000       -3.27192100000000
H           27.90009400000000       -4.74371800000000       -2.88478000000000
H           31.44247200000000       -4.25875900000000       -1.36687500000000
H           33.25954300000000       -2.47542600000000       -1.04170500000000
H           32.91012400000000        2.28882000000000        1.46436800000000
H           30.95008700000000        4.14309000000000        1.82023200000000
H           27.27183000000000        4.86698400000000        2.66408600000000
H           27.32801200000000        7.28988400000000        3.02915000000000
H           29.78314400000000        7.75323900000000       -0.49506400000000
H           29.71480800000000        5.32929100000000       -0.85509000000000
H           25.74185500000000        4.51965600000000        0.28696800000000
H           24.05724600000000        2.60482000000000       -0.08672100000000
Fe          62.94178099999999       -0.01771900000000       -0.02180100000000
C           66.27852700000000        0.12729100000000       -0.04695900000000
C           65.61533000000000        1.24813900000000        0.25243700000000
C           66.26603700000000        2.49918800000000        0.62249500000000
C           65.32554800000000        3.40358200000000        0.82170900000000
C           64.02012999999999        2.77485900000000        0.57693400000000
N           64.19713600000000        1.40233200000000        0.22389300000000
C           62.82766199999999        3.40138300000000        0.65493200000000
C           62.78027800000000        4.84258000000000        0.99055400000000
C           62.26497700000000        5.25954800000000        2.22506800000000
C           62.20621700000000        6.61954700000000        2.54058800000000
C           62.65900400000000        7.58615100000000        1.62336600000000
N           62.60314000000000        8.98770700000000        1.94577300000000
O           63.04758999999999        9.93083100000000        1.04693000000000
O           62.16350400000000        9.36951600000000        3.05066000000000
C           63.16824700000000        7.16157800000000        0.38336400000000
C           63.22628300000000        5.80099300000000        0.06899700000000
C           61.53464900000000        2.71076900000000        0.40700500000000
C           60.24806800000000        3.40734600000000        0.28255300000000
C           59.31372500000000        2.49797600000000        0.09188600000000
N           61.39389799999999        1.42526500000000        0.29438400000000
C           59.99670699999999        1.20984500000000        0.09257300000000
C           59.40328900000000        0.00975600000000       -0.01274800000000
C           60.16658300000000       -1.25857500000000       -0.01046200000000
C           59.63415299999999       -2.44952500000000        0.23272800000000
C           60.67774200000000       -3.43692400000000        0.03629100000000
C           61.77822699999999       -2.78365300000000       -0.31881900000000
N           61.54532300000000       -1.37470900000000       -0.36477700000000
C           63.06016600000000       -3.43919200000000       -0.68541600000000
C           63.04267000000000       -4.87924100000000       -1.03935200000000
C           63.70481399999999       -5.81806800000000       -0.23438600000000
C           63.66772199999999       -7.17681700000000       -0.55905200000000
C           62.96336200000000       -7.62112600000000       -1.69172800000000
N           62.92859200000000       -9.02107600000000       -2.02423900000000
O           63.53369499999999       -9.94889900000000       -1.20703000000000
O           62.34486900000000       -9.41661900000000       -3.05496400000000
C           62.29279999999999       -6.67620300000000       -2.49048500000000
C           62.32975499999999       -5.31757000000000       -2.16410500000000
C           64.22228699999999       -2.75856400000000       -0.69834900000000
C           65.53245000000000       -3.29166900000000       -1.06827500000000
C           66.39390299999999       -2.31116000000000       -0.88006200000000
C           65.64249200000000       -1.15026700000000       -0.40550600000000
N           64.37597700000001       -1.39904000000000       -0.29650700000000
H           67.36200900000000        0.15122300000000       -0.03097300000000
H           67.33018100000000        2.67170100000000        0.72370700000000
H           65.51341900000000        4.42812900000000        1.11557900000000
H           61.91102100000000        4.53015200000000        2.94349400000000
H           61.80565100000000        6.91475200000000        3.50147600000000
H           63.52069299999999        7.88077400000000       -0.34484200000000
H           63.61758099999999        5.49331600000000       -0.89288300000000
H           60.07520300000000        4.47458800000000        0.33243700000000
H           58.25813200000000        2.69943900000000       -0.03479200000000
H           58.60755100000000       -2.65688900000000        0.50204500000000
H           60.56758800000000       -4.50930800000000        0.13667000000000
H           64.24584500000000       -5.49679800000000        0.64752700000000
H           64.18966300000000       -7.87981100000000        0.07746900000000
H           61.73453100000000       -6.98792500000000       -3.36336200000000
H           61.80286800000000       -4.60583100000000       -2.78824100000000
H           65.77582000000000       -4.28349000000000       -1.42592600000000
H           67.46043000000000       -2.36824000000000       -1.05436600000000
C           38.38490199999999        0.01085800000000       -0.00425800000000
C           37.17596300000000       -0.00259700000000       -0.01270500000000
C           35.75443400000000        0.00622300000000       -0.02468800000000
C           34.54276400000000        0.01366100000000       -0.01382600000000
C           39.80150600000000        0.00418300000000       -0.00372500000000
C           41.02220200000000        0.01366100000000       -0.01382600000000
C           54.34046099999999        0.01085800000000       -0.00425800000000
C           53.13152200000000       -0.00259700000000       -0.01270500000000
C           51.70999299999999        0.00622300000000       -0.02468800000000
C           50.49832300000000        0.01366100000000       -0.01382600000000
C           55.75706500000000        0.00418300000000       -0.00372500000000
C           56.97776099999999        0.01366100000000       -0.01382600000000
Fe          45.67175799999999        0.05694900000000       -0.03409500000000
C           42.30456300000000       -0.02262100000000        0.02874000000000
C           42.96068200000000       -1.19415700000000        0.11744400000000
C           42.31958700000000       -2.49714300000000        0.30543500000000
C           43.25678000000000       -3.42459400000000        0.29803000000000
C           44.55471299999999       -2.76975600000000        0.10660700000000
N           44.37691299999999       -1.35552400000000       -0.00255300000000
C           45.73953600000000       -3.41199900000000        0.03665300000000
C           45.77108700000000       -4.88957200000000        0.11058800000000
C           46.24957300000000       -5.52611000000000        1.26363500000000
C           46.28914100000000       -6.92159100000000        1.33313400000000
C           45.85426300000000       -7.70249500000000        0.24574500000000
N           45.89366300000000       -9.13989200000000        0.31281100000000
O           45.51909200000000       -9.90002700000000       -0.77136800000000
O           46.24915800000000       -9.72056500000000        1.36052200000000
C           45.38060399999999       -7.05646600000000       -0.91118800000000
C           45.34117800000000       -5.66110200000000       -0.97767800000000
C           47.03908700000000       -2.70852200000000       -0.10515000000000
C           48.31163800000000       -3.39103500000000       -0.37135500000000
C           49.26402900000000       -2.48055400000000       -0.37723400000000
N           47.20471800000000       -1.43083700000000        0.04326400000000
C           48.60579599999999       -1.20686000000000       -0.11613000000000
C           49.22068100000000       -0.02262100000000        0.02874000000000
C           48.47081100000000        1.22743000000000        0.27519300000000
C           49.00681700000000        2.34065800000000        0.75864000000000
C           47.97427399999999        3.35917200000000        0.73652700000000
C           46.87873000000000        2.79937700000000        0.23657800000000
N           47.10212200000000        1.42555100000000       -0.07722200000000
C           45.62152199999999        3.52969300000000       -0.05686500000000
C           45.67870200000000        5.00472700000000       -0.20714900000000
C           46.46138299999999        5.57811000000000       -1.21904400000000
C           46.53284800000000        6.96730300000000       -1.35515900000000
C           45.82591300000000        7.80801100000000       -0.47752500000000
N           45.89783400000000        9.23824400000000       -0.62321100000000
O           46.63224400000000        9.80125800000000       -1.64237600000000
O           45.28842200000000        9.99078400000000        0.16588600000000
C           45.05000000000000        7.22840800000000        0.54284000000000
C           44.98031800000000        5.83921900000000        0.67835100000000
C           44.44916600000000        2.88205400000000       -0.20152800000000
C           43.17081200000000        3.49086300000000       -0.55525800000000
C           42.28209000000000        2.51825700000000       -0.52865100000000
C           42.98182200000000        1.28069400000000       -0.16592800000000
N           44.24867100000000        1.48564600000000        0.02321800000000
H           41.26416499999999       -2.69842900000000        0.43154900000000
H           43.07112000000000       -4.48345700000000        0.42275700000000
H           46.58839300000000       -4.94121600000000        2.10960200000000
H           46.66322300000000       -7.38961400000000        2.23583300000000
H           45.04079400000000       -7.62940800000000       -1.76484700000000
H           44.97781300000000       -5.18055700000000       -1.87725100000000
H           48.46348800000000       -4.45029400000000       -0.53317500000000
H           50.31602800000000       -2.67243900000000       -0.54176100000000
H           50.03039700000000        2.47989100000000        1.07987600000000
H           48.09068600000000        4.39267900000000        1.03595300000000
H           47.01323500000000        4.94776100000000       -1.90558600000000
H           47.14213899999999        7.38332100000000       -2.14678900000000
H           44.49798799999999        7.84889100000000        1.23716200000000
H           44.38413500000000        5.41252500000000        1.47546700000000
H           42.96564700000000        4.52428000000000       -0.80308600000000
H           41.22989300000000        2.63590900000000       -0.75017700000000
191
 energy: -376.594280732772 gnorm: 0.413309725991 xtb: 6.5.1 (b24c23e)
Fe          28.58962426837117        0.02954444549427       -0.01487927433313
C           25.24022705830620       -0.06894476564345       -0.08725795519946
C           25.90953734051858       -1.23573151802652       -0.23114553995932
C           25.25328720391490       -2.52738526137136       -0.35589291145229
C           26.20472522238131       -3.44914473491207       -0.51225070801300
C           27.49898481895988       -2.76482187736849       -0.50194361432212
N           27.30954696685667       -1.37733562225340       -0.31162003302878
C           28.70635932125240       -3.37929673238681       -0.66709339035456
C           28.74407832299495       -4.84755535669653       -0.89741432920307
C           29.25340659653675       -5.70369626460483        0.08673590142267
C           29.30965909228654       -7.07857822728016       -0.12901846151958
C           28.85692249907220       -7.63171511846584       -1.34248647003231
N           28.90928679398176       -9.05857745701520       -1.57392689939073
O           28.48808288951888       -9.54552684555609       -2.69923385656889
O           29.34435927500481       -9.79422566992066       -0.70269742436008
C           28.34909005327452       -6.76986304012102       -2.32657116428472
C           28.29185226574344       -5.39663416784720       -2.10487271236123
C           29.97774658953667       -2.66351574943090       -0.63702909334171
C           31.25651264535696       -3.26100293377796       -1.01187742516986
C           32.20303788302888       -2.32974160473380       -0.84710886723580
N           30.13306069080926       -1.40739872254561       -0.26426000589071
C           31.53531248420628       -1.13506105404269       -0.36353435450396
C           32.12415127992060        0.02341260274242       -0.00399992617399
C           31.35410856698020        1.17298189495895        0.44952444989112
C           31.88742235631627        2.21713073769760        1.14397470741120
C           30.86065479705661        3.18765037515046        1.32652764641541
C           29.73175249364371        2.70279481717218        0.73623076865003
N           29.97084887221334        1.41515628933872        0.19250125984574
C           28.47200973426611        3.44908515545788        0.65563747732806
C           28.48418467138421        4.92373015809266        0.87265951806241
C           27.81490221174023        5.50062926351106        1.96278869741335
C           27.84996332247630        6.87695007988819        2.17441569260794
C           28.55167878141662        7.71748865002238        1.29710418481921
N           28.58508439921723        9.14671815420789        1.51981218183872
O           28.00776454107988        9.64971395485587        2.56590441412861
O           29.15902652283701        9.86774886957330        0.71991927403150
C           29.22179990197041        7.13953370921213        0.20157356024487
C           29.18777477501139        5.76151539123156       -0.00311618714635
C           27.29672563294541        2.82821861705460        0.38943817197022
C           25.99355061549036        3.46287021925720        0.24779080471242
C           25.11461699973091        2.47369840940102        0.05264415646502
C           25.85869278648112        1.22219788972264        0.05679577304538
N           27.14689696109252        1.42551184302927        0.24475871882870
H           24.15664869685868       -0.10731218239568       -0.08283671404102
H           24.18930873755305       -2.72361426812295       -0.32679613498413
H           26.01787372886006       -4.50883030070459       -0.62416072954280
H           29.60547329017348       -5.29270777638065        1.02864017225591
H           29.71063414968694       -7.71333462330960        0.65266607352052
H           27.99775272610406       -7.16627526475008       -3.27141742920385
H           27.90171220571663       -4.74654716375411       -2.88186913290201
H           31.43163648531977       -4.26413851981034       -1.36661858008340
H           33.25820777550469       -2.46466173439424       -1.03801868664657
H           32.91153267042521        2.29550006106171        1.46827894906670
H           30.95619579817623        4.14160511806434        1.82260742798238
H           27.27408779755138        4.86942090790785        2.66126734313867
H           27.32908693874503        7.29309779805823        3.02852836694372
H           29.78093944173317        7.75701404124966       -0.49214728489626
H           29.71295701783121        5.33263287591533       -0.85155619564184
H           25.75393836990071        4.51728245534892        0.28835503299645
H           24.05289971206617        2.59582669025264       -0.08783555408681
Fe          62.92801722228013       -0.00779232475298       -0.02216566973240
C           66.27744338111177        0.11064488122447       -0.05231179942699
C           65.60813203667810        1.24627170910610        0.25180282268075
C           66.26439542623470        2.49046692194361        0.62047187599591
C           65.31296142498178        3.40359704184557        0.82114020744507
C           64.01870321758581        2.76530265612894        0.57410988385839
N           64.20817570268058        1.40777473522389        0.23027924308345
C           62.81128516673611        3.39689347680757        0.65138195539081
C           62.77358227086147        4.84440337531579        0.98841390322308
C           62.26426990779584        5.26905973100205        2.22178602620444
C           62.20801896571493        6.62453509462676        2.53729543132561
C           62.66075034638725        7.59231278538182        1.61976146612915
N           62.60837044313190        9.00186555752786        1.94021412689333
O           63.02960939272321        9.87521201565353        1.07963263484229
O           62.17332453490817        9.35714793761676        3.02374542746516
C           63.16858653555499        7.16233341470243        0.38432128837590
C           63.22582192991734        5.80616223874386        0.07493832174981
C           61.53996763869232        2.72209584892564        0.41088106781805
C           60.26115637436747        3.41653927508129        0.28742675443750
C           59.31463980847235        2.49148332410850        0.09094909623885
N           61.38469011575028        1.41779323580718        0.28556215474879
C           59.98242557972824        1.20269040248456        0.09134198197230
C           59.39405292038894       -0.00606187211754       -0.00961335461573
C           60.16352083272018       -1.24194950448468       -0.02030580825280
C           59.63022324069038       -2.47039984883672        0.23195496178319
C           60.65692985394438       -3.43844634948084        0.03724330239428
C           61.78588732944388       -2.76758123397815       -0.32817069970900
N           61.54676589690623       -1.37006725169296       -0.34963633427207
C           63.04564238339696       -3.42923274154575       -0.68270876313715
C           63.03347471204913       -4.87768890253615       -1.03446189810104
C           63.70277113711411       -5.82125145505775       -0.24019365696999
C           63.66771215049538       -7.17651406416311       -0.56007477517173
C           62.96599459144262       -7.62677025352594       -1.68853951599672
N           62.93257317456387       -9.03524926115032       -2.01797548463521
O           63.50992519056735       -9.89376143043599       -1.23683740562216
O           62.35866321617953       -9.40372306054146       -3.02988867435636
C           62.29588033407798       -6.68020660945657       -2.48743305581394
C           62.32990209290691       -5.32597021960075       -2.16048851437294
C           64.22093685889124       -2.75385444839611       -0.69671054522616
C           65.52412028376597       -3.28910837589458       -1.06599359395457
C           66.40305287220619       -2.29893792927356       -0.87600366640739
C           65.65897912295878       -1.14028928109523       -0.40288865657584
N           64.37075724273944       -1.39924549341911       -0.30487048028531
H           67.36102382127417        0.14455999803341       -0.03383171129744
H           67.32837152070537        2.66146240102178        0.72101826149508
H           65.49980226572862        4.42793066964690        1.11472982515230
H           61.91220162639257        4.53488083668782        2.94086776711931
H           61.80704087000716        6.91987832525692        3.49995766707129
H           63.51992020000150        7.88410208898067       -0.34295473274391
H           63.61596072319040        5.49484722053900       -0.88912487701005
H           60.08602602765529        4.47948598537039        0.33469512609439
H           58.25945531665529        2.68807085142381       -0.03541240559746
H           58.60611656563057       -2.66460258209951        0.50316696932845
H           60.56145267625593       -4.50881373737721        0.13942368455179
H           64.24358564076987       -5.49799980211136        0.64400218562273
H           64.18858568610169       -7.88255788324209        0.07568797357677
H           61.73673506507576       -6.99251833189930       -3.36206998010404
H           61.80471873438315       -4.61025300293693       -2.78621836749801
H           65.76373277379044       -4.28180563177705       -1.42374756889656
H           67.46477246422369       -2.35948575329948       -1.05202559548390
C           38.37726465879346        0.01049410965704       -0.00484526202742
C           37.14837837718745       -0.00215897426750       -0.01322904036453
C           35.73630393970576        0.00632705873461       -0.02357375854323
C           34.50510754437626        0.01506895456527       -0.01367386265419
C           39.75834401743369        0.00443886935999       -0.00215174500585
C           40.97628697723936        0.01914035879828       -0.01350912468448
C           54.36842151698105        0.01065446524415       -0.00482989849033
C           53.13907947064136       -0.00135814230912       -0.01420985392550
C           51.75571170631678        0.00838466033196       -0.02406257183637
C           50.53704345044433        0.02649214086716       -0.01092541931848
C           55.77827188215347        0.00425275189896       -0.00391789215899
C           57.01068587157958        0.01099556817511       -0.01372455014195
Fe          45.68208612072700        0.04661437180966       -0.02941903227265
C           42.32505249056448       -0.00705409514558        0.01952927380171
C           42.98152927822360       -1.20094231439794        0.11832587306241
C           42.32266925447225       -2.48586781969605        0.30432253178726
C           43.26997256902190       -3.42546230712249        0.29709761696860
C           44.55640956390545       -2.76290654325691        0.10566725812070
N           44.37139393592228       -1.36353693224382        0.00682840636185
C           45.75371635931439       -3.41053847933799        0.03415231131209
C           45.77629807589467       -4.89300193954409        0.10883407772605
C           46.24986466813903       -5.53535482328988        1.25900170009426
C           46.28746383140633       -6.92607874906860        1.32882559983630
C           45.85321531727790       -7.70797010541109        0.24081392348103
N           45.88786223328567       -9.15291614811894        0.30462860247922
O           45.53439235459809       -9.85162564337707       -0.72804991785059
O           46.24192073215775       -9.70295834306971        1.33523823912172
C           45.38088493187558       -7.05805765599252       -0.91040188471179
C           45.34153451868522       -5.66812599178150       -0.97308589209732
C           47.02941253289728       -2.72810122402927       -0.10361375530333
C           48.29518326068280       -3.40464372834532       -0.36823370248752
C           49.25655781836488       -2.47363937117516       -0.37522310383920
N           47.20203972502458       -1.42984318723168        0.03181493911547
C           48.58541388720239       -1.21542734162599       -0.11893937860206
C           49.18923716672682       -0.00954579455683        0.02947153027429
C           48.44740728562770        1.22362583690423        0.26624705788410
C           49.00566791722583        2.36058320595733        0.76023672079831
C           47.99234671727526        3.36361433618182        0.73741413913016
C           46.86862586226952        2.79142076371976        0.22426111122960
N           47.08891043994858        1.42422365222140       -0.05963314952987
C           45.63430302139854        3.52298566357560       -0.05637018067111
C           45.68675880523173        5.00355387857002       -0.20316540295081
C           46.46170915535168        5.58446957627423       -1.21532548828664
C           46.53209971431338        6.96793556553118       -1.35518762521320
C           45.82924089195305        7.81224294262689       -0.48231003005102
N           45.90358888019694        9.24939446700782       -0.63327122180671
O           46.60169976527840        9.76076081956820       -1.59850276216670
O           45.30269075622206        9.96927691166869        0.14787290614071
C           45.05293800582869        7.23061103928159        0.53825908541739
C           44.98316311984260        5.84498729822538        0.67219437599813
C           44.45099265061798        2.88095700783518       -0.20098991385885
C           43.17880082224589        3.48879337220844       -0.55288584121417
C           42.27358808691062        2.50497975217724       -0.52576914048621
C           42.97729343623510        1.27865667432012       -0.16710997619106
N           44.26009432003985        1.49095825356848        0.01051311667479
H           41.26576302055020       -2.68396366402207        0.42996828952937
H           43.08402979837282       -4.48341956384489        0.42135572737885
H           46.58734242847990       -4.94528796572740        2.10614306348588
H           46.66157740547811       -7.39408997256173        2.23283576652128
H           45.04166725513002       -7.63329146305119       -1.76336897439572
H           44.97906165558489       -5.18299599367071       -1.87391035165866
H           48.45292914394462       -4.45722217727235       -0.53239871157061
H           50.31117725457816       -2.65922039664642       -0.53973319378608
H           50.02870405487002        2.48455772239650        1.08210191515329
H           48.09693992600835        4.39328790446867        1.03942849721033
H           47.01180249320628        4.95050283547642       -1.90332466157999
H           47.14133341270186        7.38701097040699       -2.14652334102991
H           44.50039277513622        7.85218880964671        1.23418849196553
H           44.38688562679213        5.41529637340315        1.47197000313767
H           42.97668274717400        4.52217335862742       -0.80053637372690
H           41.22530042377995        2.62442923255243       -0.74813664667226
191