646
 energy: -1003.689644049874 gnorm: 0.000190194092 xtb: 6.5.1 (b24c23e)
C          117.30045978650365        0.06394154177967        0.01115297910496
C          117.91165474728847        1.26624687293740        0.34298806846660
C          117.26342610221204        2.47746394088208        0.71476846631187
C          118.22791362975188        3.41702974131590        0.94828435995660
C          119.49655653838275        2.81320998207719        0.71557986847684
N          119.25495208060092        1.51520037398199        0.36422728989353
C          120.75988133743313        3.40420598789109        0.82794141528790
C          121.97381192616265        2.74633448019954        0.61736786166143
C          123.26899582883985        3.40035308933330        0.67140680399244
C          124.19019307669673        2.44578310832789        0.42547642849841
N          122.12951462703158        1.42609623025404        0.32284042497092
C          123.45647940809332        1.21282091799766        0.21471219483008
C          124.09379392627325       -0.01841575979506       -0.03953627202232
C          123.45677667587485       -1.24856800577627       -0.28903728303593
C          124.09836474934879       -2.49376739144629       -0.52235315367655
C          123.12955312331914       -3.43084451854907       -0.75352644566010
C          121.86531295201208       -2.78345010824824       -0.67633113139102
C          120.60335578318718       -3.36181740569929       -0.84776605195943
C          120.57137901557985       -4.80064036952126       -1.20783109662202
C          119.95002574566358       -5.72343794139144       -0.36709101958293
C          119.92095805150885       -7.07355436769640       -0.69852309241582
C          119.23746362423677       -8.06397262016970        0.20515612831992
C          120.51412553364840       -7.49812000426114       -1.88398941262504
C          121.13745021374035       -6.58970452336908       -2.73406523316386
C          121.75712258359391       -7.05572643354313       -4.02389122830951
C          121.16446568336815       -5.24244555680463       -2.38991844940789
C          119.38746976200258       -2.68490461856926       -0.70761730125021
C          118.08403299263450       -3.28773283210067       -0.93932506204294
C          117.16963788267654       -2.32762742296663       -0.69417500507647
C          117.91342039385181       -1.13617014673442       -0.32492731525570
N          119.24553304174168       -1.38542699459458       -0.35364605111973
N          122.11506327659235       -1.46891022515746       -0.38181208869000
C          120.79366394394810        4.84003933584726        1.20195808872211
C          121.42029350696637        5.24219226241450        2.37998445950181
C          121.44906624878821        6.58512085021814        2.74324492414554
C          122.13892476103101        7.00640001633540        4.01260580262061
C          120.84960542837761        7.52795236289410        1.91497866361359
C          120.22079770401527        7.14236737375905        0.73392032827450
C          119.59475800640762        8.17588082207215       -0.16316349977508
C          120.19441931271494        5.79738971706165        0.38343594326466
H          116.21511253286336        0.07246623845732        0.01785886943128
H          116.19495348243227        2.59903986699644        0.79570354913165
H          118.08011510027440        4.43789923251386        1.26133271104819
H          119.97790624782579        0.83541860113538        0.15347941888683
H          123.42852248581148        4.44998813798725        0.85817456184473
H          125.26321174881519        2.54187471423120        0.37910587148145
H          125.16587559374526       -2.64414583941129       -0.50887456748162
H          123.27382230404807       -4.48044655956294       -0.95154489089012
H          119.50508308160246       -5.38290211999009        0.56144058432917
H          118.20570473406841       -8.21301161740218       -0.12149546755202
H          119.74399148278466       -9.02906867355136        0.17648785471362
H          119.21957316353263       -7.70441286733278        1.23405754873401
H          120.49309453139334       -8.55082632839153       -2.14670677046245
H          122.58054237569908       -6.40420730227682       -4.31715405280668
H          122.12975979540786       -8.07592731865658       -3.92938345678087
H          121.01045199645391       -7.03951761220476       -4.82117131341771
H          121.63524914357808       -4.52353730680173       -3.05167767576018
H          117.91711863212694       -4.30420510575110       -1.25774864552010
H          116.09424024522073       -2.38688376252308       -0.75709373072325
H          121.39503339046058       -0.76608383596683       -0.25073944675330
H          121.87165070104589        4.49657093037445        3.02533005803405
H          121.93724790538697        6.29603245260194        4.81510497571686
H          121.80891752193720        7.99661029043553        4.32656808784630
H          123.21928878070747        7.03920888226127        3.85489327372193
H          120.86906989975390        8.57677172467167        2.19288635316083
H          119.14646088974345        8.97769268637726        0.42431197547197
H          120.35665930693673        8.61607073711556       -0.81052111831930
H          118.82718082198636        7.72953350105820       -0.79550135598854
H          119.71991088026471        5.48706028740016       -0.54118641393397
C          231.83527818450841       -0.06950777148977       -0.02655388777674
C          231.22676570052028       -1.28671454352627       -0.30462311353268
C          231.87820920853534       -2.52623177800846       -0.55893265641880
C          230.91566651263372       -3.46841170601117       -0.78990866342405
C          229.64497148142081       -2.83270524642463       -0.69337748861419
N          229.88360990846454       -1.52181940692595       -0.39141542291734
C          228.38268779787194       -3.41580568098318       -0.84978846731292
C          227.16628406793347       -2.74529578634356       -0.70479519275198
C          225.87047079893279       -3.36184079874302       -0.92576214750494
C          224.94739536688220       -2.40521504580730       -0.69576847176092
N          227.00843016471751       -1.43589615886665       -0.36549434468760
C          225.68046232601699       -1.20404134858724       -0.34515530890219
C          225.04134137251333        0.01507961978018       -0.04125225281411
C          225.67544200938102        1.23281289301169        0.26899225092126
C          225.03011838941319        2.45113125441255        0.60948290445774
C          225.99682915382496        3.38854213915039        0.84769638436240
C          227.26374109347702        2.77276397605327        0.64977003878314
C          228.52516850648152        3.35887635091379        0.79614106156893
C          228.55644394019839        4.79645481238604        1.16189362354616
C          229.14892380508564        5.20257433048299        2.35717769573584
C          229.17614494462336        6.54679193208483        2.71159403779543
C          229.82771941593117        6.98180049725974        3.99647982752283
C          228.61039652452655        7.48897281233227        1.85737736294134
C          228.01677500645752        7.10000963796220        0.66043541575209
C          227.42703363594481        8.12919417913357       -0.26577010189305
C          227.99130981945595        5.75205749552852        0.31851925002135
C          229.74250870650306        2.69151769453653        0.62588380587958
C          231.04550382881189        3.33049188085683        0.72585943002656
C          231.96182891953049        2.36853762525780        0.49575823783436
C          231.21989347883235        1.14523712084612        0.24637204548916
N          229.88693237172527        1.37908746883649        0.32486427458204
N          227.01709468774186        1.46901545345441        0.30787603147927
C          228.35451850206528       -4.85788124650443       -1.20049633962039
C          227.75972451810722       -5.77944093490384       -0.34092505069213
C          227.73512637863735       -7.13296677299828       -0.66276806639609
C          227.07829974114637       -8.11631540246979        0.26795667005060
C          228.30670523025893       -7.56024167480038       -1.85665070714023
C          228.90434727786405       -6.65183041047446       -2.72624881530288
C          229.50010181400523       -7.12432520238538       -4.02495619790097
C          228.92691015451425       -5.30255118528434       -2.39213935850566
H          232.92064676980175       -0.07796794685387       -0.02446917929697
H          232.94743187843653       -2.66666055026639       -0.55637415190583
H          231.06589056929454       -4.51479304378554       -1.00099450305300
H          229.15885673294386       -0.82663891254218       -0.24766221133842
H          225.71120775666787       -4.38396823406326       -1.22891475220208
H          223.87338944355179       -2.47726740252187       -0.75939349553879
H          223.96159487392640        2.58160494773189        0.66953290535351
H          225.84907877673260        4.41419515311022        1.14411765289617
H          229.57250025080964        4.45744485198102        3.02162593019501
H          230.86334137484073        7.27322602488378        3.80679869902742
H          229.30793371928812        7.83975997321648        4.42375670290465
H          229.83071341979445        6.17130374736059        4.72538838192534
H          228.62957669909963        8.53922219161655        2.12989054085384
H          226.62250429575494        7.69938921224595       -0.86282799275666
H          227.03603864279694        8.97800081096077        0.29574642883878
H          228.19636111169535        8.49877880270512       -0.94765922147607
H          227.54365415433236        5.43904180335950       -0.61849695461778
H          231.21074529712507        4.37600510058256        0.93099708672433
H          233.03755441056634        2.44954951486179        0.48150337887210
H          227.73932762057854        0.78055861285249        0.12341028128675
H          227.32999295144882       -5.43678817227716        0.59397666616564
H          227.28751401461176       -7.86273390120201        1.30772177258883
H          227.42779952849514       -9.13046556291807        0.07458773558173
H          225.99535492888637       -8.09464321498532        0.12663534072662
H          228.28971197324307       -8.61457322316831       -2.11302043444989
H          229.94003310756980       -8.11551970691684       -3.91150248716508
H          228.72236857065741       -7.18455757396402       -4.78973450819854
H          230.26833227838745       -6.43456965702239       -4.37479750962406
H          229.37734667495593       -4.58387365920593       -3.06817079182595
C          126.72250948784344       -0.04818580789285       -0.05258253823422
C          125.50044644590545       -0.03399371929974       -0.04686030476443
C          128.07233906974602       -0.05788281518009       -0.05865625163205
C          129.29458605858542       -0.06173902099183       -0.06473429926434
C          140.19503337837352       -0.06010805655297       -0.07930494236629
C          138.97204222406515       -0.06610893244457       -0.07878752084952
C          141.54347113800728       -0.05751776691962       -0.07784306301799
C          142.76647682550785       -0.05097462735589       -0.07848033907280
C          153.67131107666847       -0.02935499691030       -0.06899885010333
C          152.44817637022393       -0.03478187696716       -0.06780547690375
C          155.01981354679279       -0.02902273327636       -0.06854804199788
C          156.24295018240539       -0.02477979945288       -0.07000790494168
C          167.15235071899039       -0.02517956492085       -0.06728348965827
C          165.92917095560267       -0.02882877812415       -0.06581662695587
C          168.50093943733822       -0.02503952981974       -0.06711412726988
C          169.72411923819300       -0.02160033135588       -0.06879326225923
C          180.63536162686782       -0.02405665246624       -0.06709855106213
C          179.41217277005731       -0.02758632245117       -0.06620090575288
C          181.98394827789150       -0.02423329145882       -0.06731846074202
C          183.20713918346323       -0.02078639542292       -0.06987794765632
C          194.11650947992325       -0.02517263276558       -0.06833767209807
C          192.89336195637333       -0.02895801868418       -0.06722283404231
C          195.46500932373064       -0.02486926485300       -0.06889241574792
C          196.68814559670002       -0.02056459907107       -0.07079194627696
C          207.59290868591737       -0.00805693909912       -0.06977266125705
C          206.36988965398507       -0.01499685934523       -0.06872839570223
C          208.94131194845980       -0.00384189035460       -0.07021784911590
C          210.16430882862909        0.00418903890038       -0.07221188474417
C          221.06274306627731        0.04466437096088       -0.05167346166607
C          219.84046141242905        0.04127685322924       -0.05568445608507
C          222.41253439444219        0.04055870625462       -0.04689037577001
C          223.63466631276646        0.02958127213323       -0.04452060620609
C          130.70045603193674       -0.06502883285146       -0.06962974912448
C          131.32598233233870       -1.25229595719009        0.35646507996348
C          130.67680115110872       -2.42613569505336        0.81849291110832
C          131.64168770637156       -3.34178457525897        1.13942757715390
C          132.90880440986925       -2.75550258827436        0.87302784550656
N          132.66700545259170       -1.49037065559157        0.40807176686889
C          134.16788006481795       -3.33746876715641        1.06440189744238
C          135.39424444646338       -2.71584669523587        0.82734816460799
C          136.67797160391359       -3.37581725551730        0.98380832459915
C          137.61905249419303       -2.46293425133502        0.66506663574040
N          135.57679749373625       -1.43372567047287        0.40466714998367
C          136.90867297319232       -1.25120468934323        0.30715183320491
C          137.56776953109781       -0.06619713550336       -0.07973920092286
C          136.94131697235190        1.13308066471706       -0.47200715838516
C          137.59018522646912        2.33999628899078       -0.83952899450089
C          136.62505412767700        3.25649258894399       -1.15738407729445
C          135.35807716863201        2.63165147662664       -1.00059153918601
C          134.09938926508937        3.20634593259058       -1.21296364951468
C          134.08855055368636        4.60833119199082       -1.70236821560310
C          133.51513460397356        5.61777123448512       -0.92990593776645
C          133.49909253769474        6.93158149176130       -1.38424852292157
C          132.89848628569027        8.02249214862909       -0.53943257074995
C          134.06020468380501        7.23228403355246       -2.62241029047602
C          134.63373004207153        6.23596824952368       -3.40578379444658
C          135.24993740160181        6.57123183986072       -4.73719945460766
C          134.64872704538911        4.92560374223994       -2.93854060063193
C          132.87256430098466        2.57418191415415       -1.00581104188082
C          131.58829312119201        3.19027945412689       -1.28770371138605
C          130.64738101000057        2.27933636639317       -0.96359351799132
C          131.35824582615953        1.10616814928399       -0.49521394759405
N          132.69086145926576        1.30824912132951       -0.53830151086366
N          135.60044274251965        1.35179516510202       -0.57718598103159
C          134.17751731014312       -4.73517574936237        1.56610045655165
C          133.61216382311261       -5.75993387013529        0.80905478472913
C          133.62009545622422       -7.07031192625045        1.27610285538969
C          132.99638395467841       -8.16896109438614        0.45829208796237
C          134.19210359569362       -7.34970056481209        2.51323778293260
C          134.75938235100409       -6.33697171933155        3.28152746208976
C          135.35685515691958       -6.64832243415449        4.62711617624945
C          134.75042617699802       -5.03181098146717        2.80217438242680
H          129.60817255111206       -2.54391493510987        0.89877603991720
H          131.49107169895109       -4.33312519335767        1.53456933296633
H          133.38779880229418       -0.82441253596953        0.15075794512208
H          136.81745095014190       -4.40186569657114        1.28347488691074
H          138.69149094018141       -2.57546014192049        0.65746177081418
H          138.65878086540289        2.48215501019271       -0.85118278377974
H          136.77505617668129        4.27848331439018       -1.46500875336481
H          133.09076176546000        5.37219711187493        0.03737886005832
H          133.68357450266313        8.52826538434506        0.02728346589639
H          132.40061230879982        8.76518216220287       -1.16354794014679
H          132.17666123910217        7.61439202054278        0.16805234815930
H          134.04591352269159        8.25599626358664       -2.98220702846679
H          135.13977687997183        5.74116065873960       -5.43543184802535
H          136.31693377729286        6.76987872107565       -4.61255525653817
H          134.78700612633969        7.45924056021565       -5.16783031216501
H          135.07910461879689        4.13801839859821       -3.54751256818117
H          131.44796522579040        4.18001671709378       -1.69101863045913
H          129.57476440457054        2.36454974850802       -1.03398189325964
H          134.87989273212224        0.66957884439290       -0.36591068662953
H          133.18230297587070       -5.53271659156243       -0.16045918516627
H          133.46076808847471       -9.13015487329049        0.67919379833641
H          133.09727626719703       -7.96413710027743       -0.60777878069946
H          131.93135387705982       -8.24437721203494        0.68970581895382
H          134.19968154184636       -8.37016225258216        2.88234951635325
H          136.12163701810718       -5.91793285211854        4.89151246712779
H          135.80137397330290       -7.64386522587656        4.63307140647867
H          134.57918912700126       -6.61973162586979        5.39383878381759
H          135.17919746978981       -4.23215895587532        3.39612164827466
C          144.17062427510552       -0.04896013510155       -0.07630336938413
C          144.79906853751325       -1.21794793053535        0.39624332207357
C          144.15282714694865       -2.37732108054508        0.89645164393337
C          145.11996247899864       -3.28305114377136        1.23875333930213
C          146.38525194537459       -2.70478572517538        0.94792593524659
N          146.14033714928527       -1.45280439945786        0.44980523068958
C          147.64514857056434       -3.28444372391229        1.14188968620982
C          148.87106417954891       -2.67010680829069        0.88428937646086
C          150.15454007450418       -3.32972176607447        1.04404995713317
C          151.09550198957587       -2.42319932282136        0.70712640293331
N          149.05353693242364       -1.39518218113171        0.44010235386504
C          150.38529693803747       -1.21595254984740        0.33444289121408
C          151.04396041804657       -0.03604481684603       -0.06891370671917
C          150.41526034761949        1.15671678910841       -0.47785307507873
C          151.06112446903165        2.36162544919322       -0.85637798210867
C          150.09390872167879        3.26962565176119       -1.19242458757302
C          148.82885096586881        2.64077388827985       -1.03725709934671
C          147.56905195363768        3.20466417899789       -1.27284554294662
C          147.55572886649708        4.59952143967027       -1.78216862726473
C          146.96475419285116        5.61465085569722       -1.03057804882831
C          146.94671916586782        6.92265959040046       -1.50123014495927
C          146.32766248528691        8.01971677502572       -0.67796446963927
C          147.52332997258273        7.21174226091998       -2.73501838509169
C          148.11400523866629        6.20957654599616       -3.49792959949992
C          148.74666289856933        6.53240160989797       -4.82469057673273
C          148.13094226129937        4.90514445524812       -3.01433645277229
C          146.34320134576373        2.56956793195711       -1.07044841271172
C          145.05997408852008        3.17132891024587       -1.38550010417522
C          144.11907234130902        2.26396073604545       -1.05075287163470
C          144.82915052928186        1.10804894966823       -0.54074154309648
N          146.16084215723021        1.31444034874654       -0.57353029989981
N          149.07407658945976        1.36804386835813       -0.59451531709945
C          147.65537555188342       -4.67318349890715        1.66771388432061
C          147.07885299781557       -5.70798102028277        0.93304097303471
C          147.08675249637136       -7.01074354922457        1.42097799841735
C          146.45077466177381       -8.11957262009526        0.62674689058515
C          147.67016102767877       -7.27218948227724        2.65663619546970
C          148.24866876229220       -6.24923177806782        3.40281228142089
C          148.85841955654399       -6.54162300635623        4.74714398585670
C          148.23960096890920       -4.95192141237960        2.90269025498674
H          143.08470873253313       -2.49336862785941        0.98529289705978
H          144.97180583599700       -4.26249868575034        1.66335025229616
H          146.85906663596543       -0.79448706798794        0.16823957995704
H          150.29402367847106       -4.35136948065163        1.35837530401678
H          152.16771990734483       -2.53752159324437        0.69609871512521
H          152.12911581712521        2.50859734223294       -0.86250468002744
H          150.24158256033348        4.28830498579569       -1.51191300089291
H          146.52822752054223        5.37811492895903       -0.06644800942850
H          147.10044378124647        8.53097115919921       -0.09936249346112
H          145.84181222092676        8.75670927884100       -1.31807366728102
H          145.59206103695473        7.61641733953110        0.01801256248339
H          147.50776976251328        8.23085569444273       -3.10759263148221
H          148.64592974674963        5.69542759021068       -5.51608446280434
H          149.81186611211837        6.73310612509851       -4.68857892054727
H          148.28852921818142        7.41574168022953       -5.26979421359832
H          148.57480334673772        4.11303208091592       -3.60754429107631
H          144.92041929336568        4.14943822227865       -1.81655944016829
H          143.04704059944197        2.34168442757065       -1.13760076023655
H          148.35546748936611        0.68518815633112       -0.37876224038604
H          146.64005199539045       -5.49480988459931       -0.03565449554505
H          146.90374924878950       -9.08113268710815        0.86861836849413
H          146.55467123438601       -7.93888529257172       -0.44341306356394
H          145.38476051597920       -8.17735627019885        0.85864015801222
H          147.67788545566242       -8.28654319182114        3.04220910173926
H          149.62196403416047       -5.80474337633026        4.99662129254015
H          149.30755135409800       -7.53503225390270        4.76123294007678
H          148.08682885920814       -6.50760710200280        5.51975233808532
H          148.67691470727630       -4.14437758401824        3.47947467796073
C          157.64713249116716       -0.02611226527102       -0.06971121340384
C          158.27410205472094       -1.19623710872612        0.40228599195098
C          157.62678972106576       -2.35478094368711        0.90296700532053
C          158.59303011196545       -3.26208094876308        1.24368347774403
C          159.85888432425165       -2.68564520435423        0.95154045012265
N          159.61512821077230       -1.43312310913381        0.45408618133824
C          161.11791089225011       -3.26768633701158        1.14408817882371
C          162.34527154220208       -2.65639042990402        0.88585049325457
C          163.62705435558669       -3.31951154301489        1.04510762034826
C          164.57043457474720       -2.41541053284994        0.70841237645316
N          162.53114480472547       -1.38187513274672        0.44199829960827
C          163.86344182775647       -1.20620567498601        0.33621381675301
C          164.52489724811736       -0.02779366391949       -0.06694843086901
C          163.89782535880880        1.16590220095591       -0.47577936965448
C          164.54500130549198        2.36990861045931       -0.85472678898016
C          163.57872120041057        3.27895097769700       -1.19068764831685
C          162.31291507891748        2.65168601136913       -1.03495639847069
C          161.05389796700493        3.21759769622736       -1.27036439946611
C          161.04384182564391        4.61227247890227       -1.78046896095931
C          160.45691199713974        5.62961476558079       -1.02875549561183
C          160.44308655196500        6.93756465821459       -1.49979128719328
C          159.82881102241171        8.03700024578253       -0.67612278276742
C          161.01975173008481        7.22429329308627       -2.73408292679848
C          161.60630171473636        6.21985072933166       -3.49720551832701
C          162.23927023545949        6.54013721985237       -4.82443105822120
C          161.61907305083832        4.91552920457647       -3.01323119347008
C          159.82657079624420        2.58567220012096       -1.06714035543442
C          158.54483965168373        3.19085293487700       -1.38187932187574
C          157.60149498310611        2.28647543233540       -1.04588134659131
C          158.30850792854525        1.12886771055721       -0.53551342412001
N          159.64078624874958        1.33135606561972       -0.56928130903740
N          162.55679486453508        1.37880105208324       -0.59201679616229
C          161.12598212862227       -4.65662333783158        1.66967529768801
C          160.54875959744851       -5.69063847341410        0.93450086280768
C          160.55569540616287       -6.99363297447956        1.42189414068438
C          159.91936716847366       -8.10176014159413        0.62697200122971
C          161.13870800634260       -7.25601059324010        2.65752933152260
C          161.71775882677051       -6.23377701118914        3.40429095704069
C          162.32725282456090       -6.52728695775206        4.74849342032177
C          161.70971311073058       -4.93627217874339        2.90469115448247
H          156.55860794230136       -2.46929710076940        0.99304656940331
H          158.44396427129698       -4.24151327271374        1.66800533936932
H          160.33424939248658       -0.77561364131103        0.17163871643436
H          163.76391825226332       -4.34163086756705        1.35903919217073
H          165.64234573254168       -2.53257034093788        0.69716781063079
H          165.61316382127674        2.51561488842712       -0.86122347902018
H          163.72757335315825        4.29737377070421       -1.51043432051018
H          160.02038942925788        5.39491329704898       -0.06417609693842
H          160.60346964892949        8.54285138919647       -0.09527698241817
H          159.34846598989017        8.77776028415627       -1.31602235387381
H          159.08959962207598        7.63694340028561        0.01790232690946
H          161.00759875285411        8.24337377051872       -3.10687129755699
H          162.13563133396354        5.70317525389292       -5.51540681297880
H          163.30515337725285        6.73762489004487       -4.68892370520409
H          161.78365060148397        7.42469581530722       -5.26969331840795
H          162.05988919201755        4.12172036961490       -3.60644263669593
H          158.40786458044585        4.16906526035137       -1.81353870501429
H          156.52963652495373        2.36722082888862       -1.13214431354410
H          161.83770115131097        0.69663095025114       -0.37572387668833
H          160.11030621443274       -5.47674252410025       -0.03419080744683
H          160.37141124194562       -9.06372970418438        0.86895798786814
H          160.02419277647641       -7.92092730944158       -0.44307278491482
H          158.85314306747406       -8.15874722664900        0.85807879897839
H          161.14578365022754       -8.27055427798462        3.04261388485770
H          163.08985584853212       -5.78989155629501        4.99931296140239
H          162.77752701390548       -7.52020016530287        4.76137937781794
H          161.55530174341592       -6.49526973583128        5.52082245165655
H          162.14766954891255       -4.12928772865223        3.48177058689337
C          171.12837975743486       -0.02333514745660       -0.06896811037068
C          171.75549442194929       -1.19359829802477        0.40264118418509
C          171.10851906140869       -2.35234381344909        0.90332623402185
C          172.07499084380717       -3.25958359290322        1.24357289521001
C          173.34071125046520       -2.68295008585940        0.95119154935748
N          173.09659236367085       -1.43036705888855        0.45396305145079
C          174.59977038172289       -3.26498607620413        1.14335230920275
C          175.82730563156130       -2.65411925308431        0.88469036166599
C          177.10882707881922       -3.31794675489266        1.04342568354847