191
 energy: -328.842033145248 gnorm: 0.862478131359 xtb: 6.5.1 (b24c23e)
Co          28.16472800000000       -0.03266800000000        0.02981100000000
C           24.82313500000000        0.11061900000000        0.02030900000000
C           25.48540300000000        1.14969300000000       -0.49648100000000
C           24.83485500000000        2.29754900000000       -1.11666600000000
C           25.77507000000000        3.14603500000000       -1.48911000000000
C           27.07999300000000        2.58517000000000       -1.11224300000000
N           26.90283900000000        1.31166500000000       -0.49048000000000
C           28.27211500000000        3.18728500000000       -1.30488100000000
C           28.32183800000000        4.53281700000000       -1.92160200000000
C           28.87877900000000        4.70079600000000       -3.19828400000000
C           28.94203600000000        5.97180100000000       -3.77694100000000
C           28.45302900000000        7.08834000000000       -3.08401100000000
N           28.51793900000000        8.38815700000000       -3.67652000000000
C           27.90197999999999        6.92243400000000       -1.80545700000000
C           27.83906500000000        5.65208300000000       -1.22544200000000
C           29.56330300000000        2.56215600000000       -0.91481300000000
C           30.84675900000000        3.27479700000000       -0.90864300000000
C           31.78127200000000        2.41942700000000       -0.54675600000000
N           29.70596500000000        1.32026700000000       -0.56589500000000
C           31.10115800000000        1.15103500000000       -0.31522700000000
C           31.69535600000000       -0.00710000000000        0.01518000000000
C           30.93177300000000       -1.25311100000000        0.24798400000000
C           31.46229400000000       -2.46929600000000        0.22813300000000
C           30.41939800000000       -3.40089600000000        0.61187700000000
C           29.32176400000000       -2.69081700000000        0.84564600000000
N           29.55561100000000       -1.29897400000000        0.62522000000000
C           28.04315100000000       -3.26184000000000        1.34115600000000
C           28.06597100000000       -4.59982700000000        1.98106600000000
C           28.80492300000000       -4.80379200000000        3.15659600000000
C           28.84589900000000       -6.06744700000000        3.75305700000000
C           28.15371600000000       -7.14251700000000        3.17811700000000
N           28.19611400000000       -8.43487300000000        3.78872400000000
C           27.42225600000000       -6.94295700000000        1.99891000000000
C           27.38120400000000       -5.68000500000000        1.40109800000000
C           26.88109400000000       -2.59073100000000        1.22506700000000
C           25.57376199999999       -3.03336500000000        1.70701200000000
C           24.71210000000000       -2.10678000000000        1.33430500000000
C           25.46055700000000       -1.06795100000000        0.62866000000000
N           26.72541700000000       -1.33941000000000        0.55887500000000
H           23.73977200000000        0.12858300000000       -0.00315000000000
H           23.77154400000000        2.44109100000000       -1.25991500000000
H           25.58727000000000        4.08790300000000       -1.98770400000000
H           29.26184000000000        3.84717700000000       -3.74407700000000
H           29.37238500000000        6.08672400000000       -4.76380100000000
H           28.92726800000000        8.52210200000000       -4.62803100000000
H           28.15694800000000        9.22606000000000       -3.16811200000000
H           27.52378600000000        7.77686900000000       -1.25845900000000
H           27.41638800000000        5.53912100000000       -0.23457400000000
H           31.01767700000000        4.31519600000000       -1.15209200000000
H           32.83504700000000        2.64467500000000       -0.45061600000000
H           32.48797500000000       -2.72454400000000       -0.00227500000000
H           30.52814499999999       -4.47287200000000        0.71404400000000
H           29.34590500000000       -3.98303100000000        3.61158600000000
H           29.41727900000000       -6.20899700000000        4.66179800000000
H           28.73910300000000       -8.59378200000000        4.66666100000000
H           27.68461400000000       -9.24220600000000        3.36747500000000
H           26.88719200000000       -7.76594800000000        1.54206900000000
H           26.81976700000000       -5.54343600000000        0.48493300000000
H           25.33192500000000       -3.93141500000000        2.25997600000000
H           23.64754600000000       -2.12302400000000        1.52769600000000
Co          62.08599600000000        0.01922300000000        0.00195200000000
C           65.42759000000000       -0.06786700000000        0.11613200000000
C           64.76532100000000       -1.07272500000000        0.69665600000000
C           65.41587000000000       -2.22386700000000        1.31072000000000
C           64.47565500000000       -3.00310800000000        1.81214400000000
C           63.17073200000000       -2.37909900000000        1.55289500000000
N           63.34788499999999       -1.15721700000000        0.83497400000000
C           61.97861000000000       -2.87234500000000        1.94831700000000
C           61.92888600000000       -4.12982100000000        2.72905800000000
C           61.37194600000000       -5.28674300000000        2.16366800000000
C           61.30868800000000       -6.47131400000000        2.90332200000000
C           61.79769500000000       -6.51067700000000        4.21681400000000
N           61.73278600000000       -7.72271300000000        4.97282900000000
C           62.34874500000000       -5.35334100000000        4.78496600000000
C           62.41165999999999       -4.16799900000000        4.04660800000000
C           60.68742199999999       -2.20182500000000        1.64279800000000
C           59.40396600000000       -2.59043500000000        2.24019000000000
C           58.46945300000000       -1.81619000000000        1.72719500000000
N           60.54475900000000       -1.22482800000000        0.80047500000000
C           59.14956699999999       -0.92239200000000        0.79792200000000
C           58.55536900000000       -0.00710000000000        0.01518000000000
C           59.31895200000000        0.87539600000000       -0.89473500000000
C           58.78843100000000        1.53082300000000       -1.91938800000000
C           59.83132700000000        2.36540600000000       -2.48384400000000
C           60.92896000000000        2.16791400000000       -1.76283200000000
N           60.69511400000000        1.21516100000000       -0.72452900000000
C           62.20757400000000        2.89642500000000       -1.96499600000000
C           62.18475400000000        4.16906000000000       -2.72663500000000
C           61.44580200000000        5.26155400000000       -2.24712800000000
C           61.40482600000000        6.45690400000000       -2.97081900000000
C           62.09700899999999        6.57169800000000       -4.18455400000000
N           62.05461099999999        7.79469700000000       -4.92435000000000
C           62.82846800000000        5.47857200000000       -4.66976400000000
C           62.86952100000000        4.28248500000000       -3.94740600000000
C           63.36963100000000        2.42885900000000       -1.46977100000000
C           64.67696300000000        3.07512500000000       -1.57241800000000
C           65.53862500000000        2.25251300000000       -1.00604400000000
C           64.79016700000000        1.09038100000000       -0.53007100000000
N           63.52530700000000        1.18220400000000       -0.79489000000000
H           66.51095300000000       -0.09734600000000        0.11814300000000
H           66.47918100000000       -2.42257500000000        1.35121300000000
H           64.66345500000000       -3.93909000000000        2.32170100000000
H           60.98888500000000       -5.27001300000000        1.15061500000000
H           60.87833999999999       -7.35735600000000        2.45384400000000
H           61.32345599999999       -8.58980200000000        4.55873700000000
H           62.09377700000000       -7.76192100000000        5.95212600000000
H           62.72693900000000       -5.36951800000000        5.79936500000000
H           62.83433700000000       -3.27969900000000        4.49993500000000
H           59.23304799999999       -3.36819700000000        2.97284600000000
H           57.41567800000000       -1.86051300000000        1.96805800000000
H           57.76274900000000        1.47981000000000       -2.25944200000000
H           59.72258000000000        3.04285600000000       -3.32088100000000
H           60.90481999999999        5.18729500000000       -1.31163300000000
H           60.83344600000000        7.29254600000000       -2.58669700000000
H           61.51162100000000        8.61425500000000       -4.57171700000000
H           62.56611100000000        7.88966100000000       -5.83001000000000
H           63.36353299999999        5.55252200000000       -5.60814000000000
H           63.43095800000000        3.44340800000000       -4.33978100000000
H           64.91879900000001        4.03221500000000       -2.01541200000000
H           66.60317800000000        2.42267900000000       -0.91273000000000
C           37.86148100000000       -0.00599700000000        0.02367000000000
C           36.65254199999999       -0.01945200000000        0.01522200000000
C           35.23101300000000       -0.01063300000000        0.00323900000000
C           34.01934299999999       -0.00319400000000        0.01410200000000
C           39.27808600000000       -0.01267200000000        0.02420300000000
C           40.49878100000000       -0.00319400000000        0.01410200000000
C           53.59693100000000       -0.00599700000000        0.02367000000000
C           52.38799199999999       -0.01945200000000        0.01522200000000
C           50.96646300000000       -0.01063300000000        0.00323900000000
C           49.75479299999999       -0.00319400000000        0.01410200000000
C           55.01353499999999       -0.01267200000000        0.02420300000000
C           56.23423100000000       -0.00319400000000        0.01410200000000
Co          45.15882600000000       -0.04121400000000        0.04810200000000
C           41.67463999999999        0.01509000000000       -0.03374200000000
C           42.33150000000000        1.12498600000000       -0.41768900000000
C           41.68677500000000        2.35707200000000       -0.87780800000000
C           42.62479900000000        3.25266900000000       -1.11231700000000
C           43.92764700000000        2.64487900000000       -0.82254900000000
N           43.75122900000000        1.29485900000000       -0.38504000000000
C           45.11168300000000        3.28723900000000       -0.90956000000000
C           45.13306100000000        4.70733400000000       -1.32367600000000
C           44.99938900000000        5.05062800000000       -2.67749800000000
C           45.01641499999999        6.39337000000000       -3.06662000000000
C           45.17000399999999        7.40475700000000       -2.10694600000000
N           45.18793099999999        8.77808400000000       -2.50573500000000
C           45.30565699999999        7.06066800000000       -0.75388000000000
C           45.28655300000000        5.71841200000000       -0.36350700000000
C           46.41517200000000        2.64343000000000       -0.60540200000000
C           47.69408600000000        3.36453400000000       -0.57094800000000
C           48.64557300000000        2.48778800000000       -0.32506900000000
N           46.57861400000000        1.37346500000000       -0.39694100000000
C           47.98286200000000        1.19530300000000       -0.20900900000000
C           48.59795300000000        0.01509000000000       -0.03374200000000
C           47.85259500000000       -1.25933700000000        0.06138900000000
C           48.40109600000000       -2.45897000000000       -0.08395600000000
C           47.36857299999999       -3.43947700000000        0.18622600000000
C           46.25867200000000       -2.77283900000000        0.48141300000000
N           46.47319700000000       -1.36315300000000        0.41344700000000
C           44.99345600000000       -3.40910600000000        0.92355300000000
C           45.04664000000000       -4.79712100000000        1.44331600000000
C           44.40167800000000       -5.84004300000000        0.75711200000000
C           44.46782700000000       -7.14916400000000        1.24340000000000
C           45.18347100000000       -7.43110800000000        2.41665400000000
N           45.24763600000000       -8.76975200000000        2.91627200000000
C           45.83671000000000       -6.39207100000000        3.09690600000000
C           45.77241900000000       -5.08295000000000        2.61029500000000
C           43.81750900000000       -2.75352400000000        0.88085900000000
C           42.53491400000000       -3.26737200000000        1.35048200000000
C           41.64664699999999       -2.33154900000000        1.08702200000000
C           42.35008299999999       -1.21117400000000        0.45229500000000
N           43.61983300000000       -1.44995700000000        0.33175000000000
H           40.62741200000000        2.53888200000000       -1.00168800000000
H           42.43540200000000        4.26331800000000       -1.45170600000000
H           44.88025300000000        4.27832800000000       -3.42802100000000
H           44.91046500000000        6.64552900000000       -4.11443400000000
H           45.08882400000000        9.04410900000000       -3.51082800000000
H           45.30542799999999        9.53829400000000       -1.79877200000000
H           45.42613000000000        7.83214100000000       -0.00335000000000
H           45.39204600000000        5.46541600000000        0.68468700000000
H           47.85306200000000        4.42365400000000       -0.72435500000000
H           49.70063600000000        2.71259600000000       -0.24455200000000
H           49.43240800000000       -2.67508200000000       -0.32769200000000
H           47.49429100000000       -4.51464100000000        0.18461200000000
H           43.85050800000000       -5.63780500000000       -0.15370400000000
H           43.96322100000000       -7.94344500000000        0.70576400000000
H           45.77754700000000       -8.98987300000000        3.78945100000000
H           44.76227900000000       -9.55021400000000        2.41940600000000
H           46.39523600000000       -6.59662900000000        4.00297500000000
H           46.28304200000000       -4.29055700000000        3.14545500000000
H           42.32729500000000       -4.21494900000000        1.83037800000000
H           40.59220700000000       -2.39859600000000        1.31832300000000
191
 energy: -329.078735311266 gnorm: 0.340781739320 xtb: 6.5.1 (b24c23e)
Co          28.17489231885908       -0.02390672874492        0.02949552174160
C           24.82395185646930        0.09559182953544        0.02873941821959
C           25.49313959244167        1.14810795229163       -0.49589824866886
C           24.83635624158743        2.28996181959351       -1.11318630956334
C           25.78709833703770        3.14621045693241       -1.48850587904450
C           27.08180506208623        2.57567562636135       -1.10855574314186
N           26.89132936438319        1.31622218442891       -0.49705846398604
C           28.28812255581296        3.18398499656242       -1.30104264188244
C           28.32777460212758        4.53497292074864       -1.92023235012860
C           28.87900361422308        4.70868665129422       -3.19574349413594
C           28.94035994791957        5.97451168180540       -3.77479958552510
C           28.45348786127373        7.09808718906926       -3.08847617358980
N           28.51756246719149        8.38094262313146       -3.67322317499065
C           27.90314252897685        6.92211374472521       -1.80915737666516
C           27.84022047978988        5.65475722085852       -1.23297288702268
C           29.55624070894132        2.57192174078688       -0.92009118702340
C           30.83327338906139        3.28209890616531       -0.91493817332991
C           31.78021680044957        2.41308510663602       -0.54472654481369
N           29.71382421090739        1.31202235767658       -0.55437511908635
C           31.11503586195083        1.14431515966637       -0.31277835394636
C           31.71060431083322       -0.02272186699249        0.01460505106887
C           30.93508786205077       -1.23430068532330        0.25308719590570
C           31.46552218153494       -2.48988622806915        0.23278574064407
C           30.43994177702415       -3.40203215692037        0.61079793843681
C           29.31234762766979       -2.67334007798782        0.85033196167181
N           29.55462620799162       -1.29670174689375        0.61099070917280
C           28.05759014674015       -3.25364316924246        1.33734682776148
C           28.07396979319048       -4.59926993718735        1.97639220193123
C           28.80469635635407       -4.81093077765665        3.15355641655483
C           28.84342593757175       -6.06925760434090        3.75101853929786
C           28.15401474709467       -7.15209080866405        3.18267836721381
N           28.19582309444313       -8.42737839229053        3.78517734242230
C           27.42411234061001       -6.94174373129646        2.00209283811086
C           27.38346597826157       -5.68108248658332        1.40827584641099
C           26.88296693838979       -2.58585487039426        1.22322598710216
C           25.58295683735764       -3.03130273935757        1.70402769506415
C           24.70397985913517       -2.09531270897291        1.32746475456366
C           25.44469366164357       -1.05854970682398        0.62355792397669
N           26.73266556293664       -1.33745626260907        0.56629121149744
H           23.74039348993332        0.12344249938923        0.00065875857175
H           23.77291718768149        2.43280367954586       -1.25565340741310
H           25.59931194383008        4.08803561650040       -1.98674029174797
H           29.26047093432382        3.85044025484230       -3.74201718044966
H           29.37169870243318        6.08739349795074       -4.76324093922683
H           28.91877113853745        8.51560269374642       -4.60693602743982
H           28.16412613139390        9.20524727800537       -3.17672647349160
H           27.52438971830375        7.77667443329640       -1.25934328674363
H           27.41821759806545        5.53933485311386       -0.23834738747471
H           31.00786485346439        4.31888140177922       -1.15498802552843
H           32.83380908835242        2.63491962817649       -0.44824222642191
H           32.48899373273939       -2.73151707995120       -0.00160371907375
H           30.53357643328793       -4.47269848329302        0.71200784017685
H           29.34418804086318       -3.98598241272394        3.60992536125056
H           29.41628540955536       -6.20930616622104        4.66117660317349
H           28.72794631251302       -8.58669490837879        4.64692213268026
H           27.69493448559014       -9.22193343058691        3.37421230790984
H           26.88808298120934       -7.76529982419839        1.54272333673938
H           26.82213799077180       -5.54348655468516        0.48825482095662
H           25.34296166858713       -3.93019544950398        2.25749725283510
H           23.64393454381739       -2.11562470783508        1.52403426740438
Co          62.07582744375069        0.01411898947432        0.00907017988952
C           65.42676835052853       -0.05252884047311        0.10825353027829
C           64.75757306823540       -1.07137854498009        0.69564462268056
C           65.41437392273605       -2.21678595028888        1.30632453883304
C           64.46363464381396       -3.00270688782643        1.81262426563150
C           63.16892514528563       -2.37075993379331        1.54697464868220
N           63.35946255928229       -1.16525603831437        0.83521944111230
C           61.96254701222011       -2.86727725873271        1.94769677279239
C           61.92292688220410       -4.12986246967877        2.73161691202410
C           61.37172773419866       -5.28898408316696        2.17164710143904
C           61.31036536135961       -6.47102863993087        2.90676646264785
C           61.79723645704010       -6.51978529555360        4.22247165567052
N           61.73316374815092       -7.71597989188936        4.96863724746686
C           62.34758398032787       -5.35624915012163        4.78265291765469
C           62.41049264373851       -4.17575015540281        4.04467716802988
C           60.69450058919613       -2.21161521004853        1.64802979385646
C           59.41742896837359       -2.59972326192183        2.24277914924349
C           58.47046723287706       -1.81097964535356        1.72307700502833
N           60.53687012001765       -1.21069365770638        0.79982496110345
C           59.13560621157349       -0.91662025395622        0.79365801328116
C           58.54066261219701        0.00138794122221        0.00181547336244
C           59.31569007266719        0.86929843679844       -0.87633722942177
C           58.78520595695229        1.54615259816860       -1.93411464684782
C           59.81068863558111        2.36513517616381       -2.48539169773617
C           60.93837046995305        2.16212319648679       -1.74566595781105
N           60.69609723351463        1.20219801554772       -0.73042445147969
C           62.19311647727197        2.88869013804519       -1.96026452555547
C           62.17674399180883        4.16484421426868       -2.72875808620860
C           61.44603151685178        5.26296140487128       -2.25475743264697
C           61.40730090002219        6.45620554876209       -2.97345452845679
C           62.09670967116250        6.58079298230125       -4.19001669080257
N           62.05490757360224        7.78759931709513       -4.92005763769454
C           62.82661340340883        5.48055458130350       -4.66699251866634
C           62.86725372658469        4.28906071897359       -3.94434075861432
C           63.36774664068253        2.42461321222733       -1.46670001976193
C           64.66776773022060        3.07149303750251       -1.57234252799094
C           65.54674139464464        2.24047286213182       -1.00026599045340
C           64.80603045851659        1.08090905698499       -0.52504935669415
N           63.51803289716425        1.18730401530971       -0.78914098558388
H           66.51032936719199       -0.09132334419323        0.11596630401311
H           66.47781167007187       -2.41444757357020        1.34666440783640
H           64.65141221825152       -3.93836321396201        2.32234750950138
H           60.99025414454591       -5.27009815039332        1.15447247966038
H           60.87902473536621       -7.35725967199955        2.45471228869605
H           61.33195266820141       -8.56862764994089        4.56497676042116
H           62.08659790472529       -7.75760081466455        5.93001952468420
H           62.72633695085459       -5.37014801279266        5.79871225988683
H           62.83250617510928       -3.28296270341739        4.49802744372300
H           59.24284670364684       -3.37264548075301        2.97430913476032
H           57.41689376010635       -1.85315840573018        1.96126816455954
H           57.76170771033771        1.48425247240279       -2.26489889233793
H           59.71712059510727        3.04106524144065       -3.32185970297903
H           60.90653668045423        5.18754095820827       -1.31500971982804
H           60.83443914203367        7.29219867688832       -2.58729767626759
H           61.52277544981657        8.59388475540000       -4.57671924057674
H           62.55578706027554        7.88407305662170       -5.80939149559032
H           63.36264225585305        5.55270881645104       -5.60723623769058
H           63.42858602926526        3.44620454298040       -4.33798820708154
H           64.90776021848481        4.02947146290800       -2.01576438801910
H           66.60678777504531        2.41553873292969       -0.90858816896305
C           37.84672848566494       -0.00643359795531        0.02363520860436
C           36.62042893329437       -0.01867736103985        0.01485152758012
C           35.21047365814074       -0.01065612220464        0.00440922831179
C           33.97771829443875       -0.00617780148695        0.01458909650959
C           39.21245065242909       -0.01415517795471        0.02375557010772
C           40.42042861310892       -0.00923706775701        0.01830117117649
C           53.63059234493906       -0.00635255193414        0.02343226605239
C           52.40479554413436       -0.01948817307550        0.01563452512155
C           51.03975652981217       -0.01278480357276        0.00575198890380
C           49.83391876197967       -0.02029354203193        0.01775592078854
C           55.03781030790756       -0.01166285288875        0.02361080860554
C           56.27173590422874       -0.00200205986195        0.01333183640646
Co          45.14649857316507       -0.03656020418814        0.04171157612322
C           41.72845558498160        0.00226715177678       -0.02575184045035
C           42.36878999260467        1.13668264569179       -0.42301329467092
C           41.69188670610595        2.34630806010932       -0.87416212460279
C           42.63833711314909        3.25488008756841       -1.11248275122274
C           43.93088676061207        2.64031916104139       -0.82177861792957
N           43.75314461496154        1.30842697623200       -0.39222850870707
C           45.12666051161402        3.28776256281320       -0.90801978936606
C           45.13699607689021        4.71172111949499       -1.32458612859624
C           44.99905710382325        5.05825015052562       -2.67391678022731
C           45.01664116832806        6.39605912656586       -3.06350344367404
C           45.17022129594519        7.41514213709752       -2.10997778917857
N           45.18775707607210        8.77044188677165       -2.50344267521017
C           45.30523596347703        7.06171403680633       -0.75787586629755
C           45.28795469840225        5.72366557251891       -0.37023483326394
C           46.40216390461035        2.66368372400481       -0.61013574080510
C           47.67639395186544        3.37639980748151       -0.57633589127279
C           48.63641817436035        2.47922185423419       -0.32462988355282
N           46.57015652230191        1.37447804041402       -0.38904739753538
C           47.94788307365627        1.20972103787891       -0.20947871032163
C           48.52955661747396        0.00304892983612       -0.03321047585431
C           47.81834562918776       -1.25659498120067        0.06504700688196
C           48.39806919013147       -2.47827612499539       -0.08067173417089
C           47.38563662566624       -3.44326071277507        0.18650931061575
C           46.24529786077154       -2.76220227316904        0.48942601559200
N           46.45998703574950       -1.36689195635413        0.40119778668092
C           45.00672126636452       -3.40433422206049        0.92225862535026
C           45.05418994703573       -4.79782537119987        1.43945544046436
C           44.40359827026926       -5.84229536417200        0.76455499247896
C           44.46971893388849       -7.14842470036294        1.24698283372895
C           45.18382870255395       -7.44107758288018        2.42058306784002
N           45.24734637921110       -8.76184599238359        2.91326201126877
C           45.83424743378657       -6.39412532923422        3.09455525403498
C           45.77237538359919       -5.09030788550023        2.60682107602095
C           43.82076061876496       -2.75405755140465        0.88123505714011
C           42.54418719099210       -3.26674151826041        1.34802332753413
C           41.64063781576125       -2.31833012826120        1.08052486522976
C           42.35818874839360       -1.21179273240158        0.45427216314708
N           43.63908308734521       -1.45695643206282        0.34382523074968
H           40.62983447449610        2.52505777579568       -0.99718979693763
H           42.44669196799803        4.26360735474642       -1.45141534163793
H           44.88099163534316        4.28140166197120       -3.42477908268643
H           44.91073267492496        6.64613571304089       -4.11341259615229
H           45.09088050647326        9.03471671637845       -3.48917784288081
H           45.30301839194724        9.51876781396091       -1.81210608789014
H           45.42571352099869        7.83231154115967       -0.00450200772949
H           45.39158120365363        5.46661009660951        0.68053292579438
H           47.84351358456659        4.42943231936301       -0.72640927027227
H           49.69543379935028        2.69919668039824       -0.24279430947190
H           49.43055462793818       -2.67825935347898       -0.32795837043989
H           47.49971982546635       -4.51551347501367        0.18269232047765
H           43.85301109877437       -5.63816331457757       -0.14999845876986
H           43.96439296126644       -7.94258972896369        0.70686863123673
H           45.76646420060323       -8.98130452868347        3.77002102760409
H           44.77204712612112       -9.53014537172002        2.42805802072048
H           46.39396227478471       -6.59702209824164        4.00178581708909
H           46.28115081673126       -4.29372608822760        3.14321166965979
H           42.33712580685120       -4.21384412878007        1.82788953904639
H           40.58907380772054       -2.38784575017091        1.31344983549897
191