256
 energy: -431.400887676859 gnorm: 1.167480949524 xtb: 6.5.1 (b24c23e)
Zn          42.85974499999999       -0.03607100000000        0.03725700000000
C           39.51815100000000        0.10721700000000        0.02775500000000
C           40.18041999999999        1.14629000000000       -0.48903500000000
C           39.52987200000000        2.29414600000000       -1.10922000000000
C           40.47008700000000        3.14263200000000       -1.48166400000000
C           41.77500999999999        2.58176700000000       -1.10479700000000
N           41.59785600000000        1.30826200000000       -0.48303400000000
C           42.96713200000000        3.18388200000000       -1.29743500000000
C           43.01685500000000        4.52941400000000       -1.91415600000000
C           43.57379500000000        4.69739300000000       -3.19083800000000
C           43.63705300000000        5.96839800000000       -3.76949500000000
C           43.14804600000000        7.08493700000000       -3.07656500000000
N           43.21295599999999        8.38475400000000       -3.66907400000000
C           42.59699600000000        6.91903100000000       -1.79801100000000
C           42.53408200000000        5.64868000000000       -1.21799600000000
C           44.25831900000000        2.55875300000000       -0.90736700000000
C           45.54177499999999        3.27139400000000       -0.90119700000000
C           46.47628900000000        2.41602500000000       -0.53931000000000
N           44.40098199999999        1.31686400000000       -0.55844900000000
C           45.79617500000000        1.14763200000000       -0.30778100000000
C           46.39037300000000       -0.01050300000000        0.02262600000000
C           45.62679000000000       -1.25651400000000        0.25543000000000
C           46.15731100000000       -2.47269900000000        0.23557900000000
C           45.11441500000000       -3.40429900000000        0.61932300000000
C           44.01678100000000       -2.69422000000000        0.85309200000000
N           44.25062700000000       -1.30237700000000        0.63266600000000
C           42.73816700000000       -3.26524300000000        1.34860200000000
C           42.76098699999999       -4.60323000000000        1.98851200000000
C           43.49993900000000       -4.80719500000000        3.16404200000000
C           43.54091600000000       -6.07085000000000        3.76050300000000
C           42.84873300000000       -7.14592000000000        3.18556300000000
N           42.89113100000000       -8.43827500000000        3.79617000000000
C           42.11727299999999       -6.94635900000000        2.00635600000000
C           42.07622100000000       -5.68340800000000        1.40854400000000
C           41.57610999999999       -2.59413300000000        1.23251300000000
C           40.26877900000000       -3.03676800000000        1.71445800000000
C           39.40711600000000       -2.11018300000000        1.34175100000000
C           40.15557400000000       -1.07135400000000        0.63610600000000
N           41.42043400000000       -1.34281300000000        0.56632100000000
H           38.43478899999999        0.12518000000000        0.00429600000000
H           38.46656100000000        2.43768800000000       -1.25246900000000
H           40.28228700000000        4.08450000000000       -1.98025800000000
H           43.95685699999999        3.84377400000000       -3.73663100000000
H           44.06740100000000        6.08332100000000       -4.75635500000000
H           43.62228500000000        8.51869900000000       -4.62058500000000
H           42.85196499999999        9.22265700000000       -3.16066600000000
H           42.21880300000000        7.77346600000000       -1.25101300000000
H           42.11140400000000        5.53571800000000       -0.22712800000000
H           45.71269400000000        4.31179300000000       -1.14464600000000
H           47.53006299999999        2.64127200000000       -0.44317000000000
H           47.18299199999999       -2.72794700000000        0.00517100000000
H           45.22316099999999       -4.47627500000000        0.72149000000000
H           44.04092100000000       -3.98643400000000        3.61903200000000
H           44.11229500000000       -6.21240000000000        4.66924400000000
H           43.43412000000000       -8.59718500000000        4.67410700000000
H           42.37963000000000       -9.24560900000000        3.37492100000000
H           41.58220900000000       -7.76935100000000        1.54951500000000
H           41.51478300000000       -5.54683900000000        0.49237900000000
H           40.02694199999999       -3.93481800000000        2.26742200000000
H           38.34256300000000       -2.12642700000000        1.53514200000000
Zn          92.51646299999999        0.01582000000000        0.00939900000000
C           95.85805599999999       -0.07127000000000        0.12357800000000
C           95.19578799999998       -1.07612800000000        0.70410200000000
C           95.84633599999999       -2.22727000000000        1.31816600000000
C           94.90612100000000       -3.00651000000000        1.81959000000000
C           93.60119799999998       -2.38250100000000        1.56034100000000
N           93.77835200000000       -1.16062000000000        0.84242000000000
C           92.40907600000000       -2.87574800000000        1.95576300000000
C           92.35935300000000       -4.13322400000000        2.73650400000000
C           91.80241300000000       -5.29014600000000        2.17111400000000
C           91.73915499999998       -6.47471700000000        2.91076800000000
C           92.22816199999998       -6.51408000000000        4.22426000000000
N           92.16325200000000       -7.72611600000000        4.98027500000000
C           92.77921100000000       -5.35674300000000        4.79241200000000
C           92.84212599999999       -4.17140200000000        4.05405400000000
C           91.11788799999999       -2.20522800000000        1.65024400000000
C           89.83443200000001       -2.59383800000000        2.24763700000000
C           88.89991900000000       -1.81959300000000        1.73464100000000
N           90.97522599999999       -1.22823000000000        0.80792100000000
C           89.58003300000000       -0.92579500000000        0.80536800000000
C           88.98583499999999       -0.01050300000000        0.02262600000000
C           89.74941799999999        0.87199300000000       -0.88728900000000
C           89.21889700000000        1.52742000000000       -1.91194200000000
C           90.26179299999998        2.36200300000000       -2.47639800000000
C           91.35942699999998        2.16451100000000       -1.75538600000000
N           91.12558099999998        1.21175800000000       -0.71708300000000
C           92.63804000000000        2.89302200000000       -1.95755000000000
C           92.61521999999998        4.16565700000000       -2.71918900000000
C           91.87626800000000        5.25815200000000       -2.23968200000000
C           91.83529200000000        6.45350100000000       -2.96337300000000
C           92.52747500000000        6.56829500000000       -4.17710800000000
N           92.48507700000000        7.79129400000000       -4.91690400000000
C           93.25893499999999        5.47516900000000       -4.66231800000000
C           93.29998699999999        4.27908200000000       -3.93996000000000
C           93.80009799999999        2.42545600000000       -1.46232500000000
C           95.10742900000000        3.07172300000000       -1.56497200000000
C           95.96909099999999        2.24911100000000       -0.99859800000000
C           95.22063400000000        1.08697800000000       -0.52262500000000
N           93.95577400000001        1.17880100000000       -0.78744400000000
H           96.94141900000000       -0.10074900000000        0.12558900000000
H           96.90964699999999       -2.42597800000000        1.35865900000000
H           95.09392099999999       -3.94249300000000        2.32914700000000
H           91.41935099999999       -5.27341600000000        1.15806100000000
H           91.30880700000000       -7.36075900000000        2.46129000000000
H           91.75392300000000       -8.59320500000000        4.56618300000000
H           92.52424300000000       -7.76532400000000        5.95957200000000
H           93.15740499999998       -5.37292100000000        5.80681100000000
H           93.26480300000000       -3.28310200000000        4.50738100000000
H           89.66351400000001       -3.37160000000000        2.98029200000000
H           87.84614399999998       -1.86391600000000        1.97550400000000
H           88.19321600000001        1.47640800000000       -2.25199600000000
H           90.15304600000000        3.03945300000000       -3.31343500000000
H           91.33528699999999        5.18389200000000       -1.30418700000000
H           91.26391300000000        7.28914300000000       -2.57925100000000
H           91.94208799999998        8.61085200000000       -4.56427100000000
H           92.99657800000000        7.88625800000000       -5.82256400000000
H           93.79399900000000        5.54911900000000       -5.60069400000000
H           93.86142500000000        3.44000500000000       -4.33233500000000
H           95.34926599999999        4.02881200000000       -2.00796600000000
H           97.03364500000001        2.41927600000000       -0.90528400000000
C           52.55649800000000       -0.00940000000000        0.03111600000000
C           51.34755900000000       -0.02285500000000        0.02266800000000
C           49.92603000000000       -0.01403600000000        0.01068500000000
C           48.71435999999999       -0.00659700000000        0.02154800000000
C           53.97310200000000       -0.01607500000000        0.03164900000000
C           55.19379800000000       -0.00659700000000        0.02154800000000
C           68.29194800000000       -0.00940000000000        0.03111600000000
C           67.08300900000000       -0.02285500000000        0.02266800000000
C           65.66148000000000       -0.01403600000000        0.01068500000000
C           64.44981000000000       -0.00659700000000        0.02154800000000
C           69.70855200000000       -0.01607500000000        0.03164900000000
C           70.92924800000000       -0.00659700000000        0.02154800000000
C           84.02739799999999       -0.00940000000000        0.03111600000000
C           82.81845800000001       -0.02285500000000        0.02266800000000
C           81.39692900000000       -0.01403600000000        0.01068500000000
C           80.18526000000000       -0.00659700000000        0.02154800000000
C           85.44400200000000       -0.01607500000000        0.03164900000000
C           86.66469800000000       -0.00659700000000        0.02154800000000
Zn          59.85384200000000       -0.04461600000000        0.05554800000000
C           56.36965699999999        0.01168700000000       -0.02629600000000
C           57.02651700000000        1.12158300000000       -0.41024300000000
C           56.38179199999999        2.35366900000000       -0.87036200000000
C           57.31981500000000        3.24926600000000       -1.10487100000000
C           58.62266400000000        2.64147700000000       -0.81510300000000
N           58.44624600000000        1.29145600000000       -0.37759400000000
C           59.80669900000000        3.28383600000000       -0.90211400000000
C           59.82807799999999        4.70393100000000       -1.31623000000000
C           59.69440500000000        5.04722500000000       -2.67005200000000
C           59.71143199999999        6.38996700000000       -3.05917400000000
C           59.86502099999999        7.40135400000000       -2.09950000000000
N           59.88294699999999        8.77468100000000       -2.49828900000000
C           60.00067399999999        7.05726500000000       -0.74643400000000
C           59.98156900000000        5.71500900000000       -0.35606100000000
C           61.11018900000000        2.64002700000000       -0.59795600000000
C           62.38910300000000        3.36113100000000       -0.56350200000000
C           63.34059000000000        2.48438500000000       -0.31762300000000
N           61.27363099999999        1.37006200000000       -0.38949500000000
C           62.67787900000000        1.19190100000000       -0.20156300000000
C           63.29297000000000        0.01168700000000       -0.02629600000000
C           62.54761100000000       -1.26274000000000        0.06883500000000
C           63.09611300000000       -2.46237300000000       -0.07651000000000
C           62.06358999999999       -3.44288000000000        0.19367200000000
C           60.95368900000000       -2.77624200000000        0.48885900000000
N           61.16821300000000       -1.36655600000000        0.42089300000000
C           59.68847300000000       -3.41250900000000        0.93099900000000
C           59.74165599999999       -4.80052400000000        1.45076200000000
C           59.09669499999999       -5.84344600000000        0.76455800000000
C           59.16284300000000       -7.15256700000000        1.25084600000000
C           59.87848800000000       -7.43451100000000        2.42410000000000
N           59.94265200000000       -8.77315500000000        2.92371800000000
C           60.53172700000000       -6.39547400000000        3.10435200000000
C           60.46743500000000       -5.08635300000000        2.61774100000000
C           58.51252600000000       -2.75692700000000        0.88830500000000
C           57.22993100000000       -3.27077500000000        1.35792800000000
C           56.34166400000000       -2.33495200000000        1.09446800000000
C           57.04509999999999       -1.21457700000000        0.45974100000000
N           58.31485000000000       -1.45335900000000        0.33919600000000
H           55.32242900000000        2.53548000000000       -0.99424200000000
H           57.13041800000000        4.25991500000000       -1.44426000000000
H           59.57526900000000        4.27492500000000       -3.42057500000000
H           59.60548200000000        6.64212700000000       -4.10698800000000
H           59.78384100000000        9.04070600000000       -3.50338200000000
H           60.00044399999999        9.53489200000000       -1.79132600000000
H           60.12114700000000        7.82873800000000        0.00409600000000
H           60.08706300000000        5.46201300000000        0.69213300000000
H           62.54807900000000        4.42025100000000       -0.71690900000000
H           64.39565300000000        2.70919300000000       -0.23710600000000
H           64.12742400000000       -2.67848500000000       -0.32024600000000
H           62.18930800000000       -4.51804400000000        0.19205800000000
H           58.54552500000000       -5.64120800000000       -0.14625800000000
H           58.65823800000000       -7.94684800000000        0.71321000000000
H           60.47256400000000       -8.99327600000000        3.79689700000000
H           59.45729600000000       -9.55361700000000        2.42685200000000
H           61.09025300000000       -6.60003100000000        4.01042100000000
H           60.97805899999999       -4.29396000000000        3.15290100000000
H           57.02231099999999       -4.21835200000000        1.83782400000000
H           55.28722400000000       -2.40199900000000        1.32576900000000
Zn          75.58929200000000       -0.04461600000000        0.05554800000000
C           72.10510700000000        0.01168700000000       -0.02629600000000
C           72.76196700000000        1.12158300000000       -0.41024300000000
C           72.11724100000001        2.35366900000000       -0.87036200000000
C           73.05526500000001        3.24926600000000       -1.10487100000000
C           74.35811400000000        2.64147700000000       -0.81510300000000
N           74.18169600000000        1.29145600000000       -0.37759400000000
C           75.54214899999999        3.28383600000000       -0.90211400000000
C           75.56352800000001        4.70393100000000       -1.31623000000000
C           75.42985500000000        5.04722500000000       -2.67005200000000
C           75.44688200000000        6.38996700000000       -3.05917400000000
C           75.60047100000000        7.40135400000000       -2.09950000000000
N           75.61839700000000        8.77468100000000       -2.49828900000000
C           75.73612400000000        7.05726500000000       -0.74643400000000
C           75.71701899999998        5.71500900000000       -0.35606100000000
C           76.84563899999999        2.64002700000000       -0.59795600000000
C           78.12455300000001        3.36113100000000       -0.56350200000000
C           79.07604000000001        2.48438500000000       -0.31762300000000
N           77.00908099999999        1.37006200000000       -0.38949500000000
C           78.41332800000001        1.19190100000000       -0.20156300000000
C           79.02841999999998        0.01168700000000       -0.02629600000000
C           78.28306100000000       -1.26274000000000        0.06883500000000
C           78.83156200000001       -2.46237300000000       -0.07651000000000
C           77.79904000000001       -3.44288000000000        0.19367200000000
C           76.68913900000000       -2.77624200000000        0.48885900000000
N           76.90366299999999       -1.36655600000000        0.42089300000000
C           75.42392300000000       -3.41250900000000        0.93099900000000
C           75.47710600000001       -4.80052400000000        1.45076200000000
C           74.83214500000000       -5.84344600000000        0.76455800000000
C           74.89829300000000       -7.15256700000000        1.25084600000000
C           75.61393700000001       -7.43451100000000        2.42410000000000
N           75.67810199999998       -8.77315500000000        2.92371800000000
C           76.26717700000000       -6.39547400000000        3.10435200000000
C           76.20288499999998       -5.08635300000000        2.61774100000000
C           74.24797599999999       -2.75692700000000        0.88830500000000
C           72.96538099999998       -3.27077500000000        1.35792800000000
C           72.07711399999999       -2.33495200000000        1.09446800000000
C           72.78055000000001       -1.21457700000000        0.45974100000000
N           74.05029999999999       -1.45335900000000        0.33919600000000
H           71.05787900000000        2.53548000000000       -0.99424200000000
H           72.86586800000001        4.25991500000000       -1.44426000000000
H           75.31071900000001        4.27492500000000       -3.42057500000000
H           75.34093200000000        6.64212700000000       -4.10698800000000
H           75.51929000000000        9.04070600000000       -3.50338200000000
H           75.73589400000000        9.53489200000000       -1.79132600000000
H           75.85659699999999        7.82873800000000        0.00409600000000
H           75.82251300000000        5.46201300000000        0.69213300000000
H           78.28352799999999        4.42025100000000       -0.71690900000000
H           80.13110300000000        2.70919300000000       -0.23710600000000
H           79.86287400000001       -2.67848500000000       -0.32024600000000
H           77.92475799999998       -4.51804400000000        0.19205800000000
H           74.28097500000000       -5.64120800000000       -0.14625800000000
H           74.39368700000000       -7.94684800000000        0.71321000000000
H           76.20801299999999       -8.99327600000000        3.79689700000000
H           75.19274599999999       -9.55361700000000        2.42685200000000
H           76.82570300000000       -6.60003100000000        4.01042100000000
H           76.71350900000000       -4.29396000000000        3.15290100000000
H           72.75776100000000       -4.21835200000000        1.83782400000000
H           71.02267399999999       -2.40199900000000        1.32576900000000
256
 energy: -431.774948368009 gnorm: 0.465900006420 xtb: 6.5.1 (b24c23e)
Zn          42.86266862622262       -0.03437919502702        0.03669453511226
C           39.51862232914105        0.09400126297304        0.03492773382188
C           40.18584225619304        1.14800837345517       -0.48964301016842
C           39.52902595107267        2.28920147786113       -1.10681311200176
C           40.47830010718605        3.14497353322726       -1.48207250436529
C           41.77329848657062        2.57702625825905       -1.10267220451109
N           41.57995734071614        1.32317058010095       -0.49280966675925
C           42.98061831864284        3.18162940822481       -1.29461386326219
C           43.02089682799848        4.53141168838479       -1.91351811158925
C           43.57347508250309        4.70363776970597       -3.18900000729449
C           43.63573416158701        5.97023615458533       -3.76762494138090
C           43.14847801505285        7.09370031881697       -3.08056917700158
N           43.21268718038444        8.38003193168801       -3.66692854101406
C           42.59797382859448        6.91851523022280       -1.80078043402344
C           42.53516732598951        5.65088510870732       -1.22392593991315
C           44.25378899900436        2.57140199736550       -0.91341730915240
C           45.53187260998583        3.27960853242118       -0.90596845022586
C           46.47745279195303        2.41161709696545       -0.53798853659986
N           44.41523618139168        1.31609131156023       -0.55425189548140
C           45.80953647524048        1.14511699169550       -0.30656386018166
C           46.40292871656813       -0.02300722886683        0.02236156278887
C           45.63029800892360       -1.24145363629982        0.26003177241461
C           46.16039220902933       -2.49371559464802        0.23909809521076
C           45.13454750575989       -3.40707394433606        0.61692953162607
C           44.00876810349156       -2.68101032117612        0.85757327412530
N           44.26039358294300       -1.30755485445547        0.63041147610716
C           42.74992212381376       -3.25911854049104        1.34554469137210
C           42.76642105717342       -4.60305717173878        1.98540847847556
C           43.49923233176814       -4.81287083634397        3.16196748716979
C           43.53896466922082       -6.07202114114884        3.75874793029788
C           42.84902315047528       -7.15470329706691        3.18972238762633
N           42.89091401110997       -8.43330937276575        3.79384188668412
C           42.11877733699666       -6.94530850910611        2.00870837115534
C           42.07798869075384       -5.68459344814076        1.41419867609231
C           41.57415058276486       -2.59345772254643        1.23254133666109
C           40.27509485399894       -3.03754176564910        1.71320249319292
C           39.39859014005825       -2.10152008246834        1.33762399550546
C           40.13801201387697       -1.06514862392224        0.63261982984650
N           41.41863448498317       -1.35148039167157        0.57428349263559
H           38.43508206455271        0.12189112106293        0.00676793216677
H           38.46659530086414        2.43242114353562       -1.24979958554446
H           40.28961445640306        4.08545427252772       -1.98010389280768
H           43.95591514689067        3.84573991717689       -3.73519723388065
H           44.06702315892099        6.08375393634673       -4.75602153978559
H           43.61554702922882        8.51431663268747       -4.60409379598412
H           42.85774792368903        9.20683481269366       -3.16792101022789
H           42.21916279581722        7.77340376913769       -1.25155121703059
H           42.11258723052214        5.53570843237557       -0.22951136767491
H           45.70684490487177        4.31509020935063       -1.14658545374937
H           47.52999809853979        2.63484934586790       -0.44146360859043
H           47.18397748244683       -2.73307274929346        0.00513832898944
H           45.22718593289448       -4.47691341794304        0.71983089913092
H           44.03973362310973       -3.98822838855981        3.61783671190992
H           44.11172008338845       -6.21259919901800        4.66885980182889
H           43.42524811804093       -8.59234935434811        4.65872829797587
H           42.38791061248574       -9.23024046556463        3.38069368678510
H           41.58274355996237       -7.76904584280421        1.54990350698265
H           41.51630370666531       -5.54680841306847        0.49445298021205
H           40.03379166761685       -3.93487133825117        2.26639882453868
H           38.33936211892118       -2.12186998207794        1.53314651013446
Zn          92.51366376114417        0.01442999745642        0.01048461199487
C           95.85756286285798       -0.05801298094411        0.11653908473429
C           95.19039735941504       -1.07757897055436        0.70520154332660
C           95.84718416977870       -2.22253964882833        1.31538541473169
C           94.89791796440015       -3.00813584222801        1.82130290531097
C           93.60292071880458       -2.37806439967134        1.55751316364561
N           93.79619775311185       -1.17702388543004        0.84945455879271
C           92.39550277552456       -2.87211456656169        1.95547414307012
C           92.35528171373826       -4.13380372895504        2.73853632500926
C           91.80271049450585       -5.29208011975470        2.17733048427466
C           91.74046958822709       -6.47417551161285        2.91332341699938
C           92.22773092186429       -6.52232016402968        4.22938738907581
N           92.16351190257429       -7.72165797013516        4.97749271771885
C           92.77823735018642       -5.35875312235908        4.79045479281787
C           92.84105173885243       -4.17756532375584        4.05263722326179
C           91.12246695595537       -2.21726154753444        1.65746166960049
C           89.84429135288406       -2.60238070113344        2.25182461370377
C           88.89870547167956       -1.81607952562186        1.73181661599915
N           90.96090067434092       -1.22432065168261        0.80942518315431
C           89.56653852617913       -0.92343153671783        0.80397086248554
C           88.97420856217434       -0.00358099070919        0.01206577019172
C           89.74585129637879        0.86756032208461       -0.87233084530079
C           89.21578192753095        1.54198892155926       -1.92763508113717
C           90.24164293499375        2.36154254150694       -2.48001874169895
C           91.36740506455619        2.16091005565241       -1.74186807837951
N           91.11578547177727        1.21284939729823       -0.72250577007247
C           92.62633368027828        2.88710145877424       -1.95415874526966
C           92.60977358384885        4.16297532933757       -2.72076553407486
C           91.87693632660974        5.25957273682314       -2.24556545169988
C           91.83723476743128        6.45268493569801       -2.96530702116091
C           92.52718571078873        6.57668083677530       -4.18216946256079
N           92.48529027221625        7.78654407950050       -4.91401542057872
C           93.25743813548732        5.47653271800987       -4.66014459225410
C           93.29824822950062        4.28446206329017       -3.93784195778417
C           93.80204448085925        2.42510006177621       -1.46175657803686
C           95.10113830668674        3.07110362644495       -1.56630239088009
C           95.97760795200887        2.24090930819254       -0.99367462601355
C           95.23817026125997        1.08065281446794       -0.51938999676637
N           93.95755170087354        1.19020036836051       -0.79025488442032
H           96.94110440486639       -0.09687695702938        0.12421223261199
H           96.90959892521613       -2.42084299458756        1.35574498082745
H           95.08658246980892       -3.94287584600440        2.33002025906289
H           91.42029313128261       -5.27331050752682        1.16048352422043
H           91.30918790013303       -7.36071022769666        2.46182633274426
H           91.76066933406332       -8.57702796650733        4.57163668867183
H           92.51846415998916       -7.76262010374913        5.94236492109144
H           93.15704470486470       -5.37332212187621        5.80645109398562
H           93.26362026799190       -3.28508064538175        4.50606036809833
H           89.66934928716901       -3.37503511942923        2.98195614189390
H           87.84618530420498       -1.85896894748486        1.97113022221188
H           88.19219712039441        1.47923409394056       -2.25630262885862
H           90.14902125462568        3.03841003962735       -3.31486611211754
H           91.33647305853371        5.18389423857008       -1.30633280681874
H           91.26449124126235        7.28892483482876       -2.57961805426427
H           91.95096568311905        8.59535118844616       -4.56873302358331
H           92.98829778865182        7.88256731257512       -5.80655468136721
H           93.79346146128890        5.54925936477803       -5.60021592186557
H           93.85990517632997        3.44171485526760       -4.33116860896764
H           95.34241516135872        4.02797784175735       -2.00857119157070
H           97.03682690151142        2.41509416331672       -0.90258931116729
C           52.55111374267562       -0.00976771449715        0.03121116155808
C           51.32589884672993       -0.02228979448208        0.02231001463410
C           49.91472150119311       -0.01414715678342        0.01152044426286
C           48.68375274135412       -0.00841244667276        0.02195340797389
C           53.92160809012518       -0.01691300085773        0.03146037197305
C           55.12502992368731       -0.01122700811207        0.02497933414828