      -----------------------------------------------------------      
     |                   =====================                   |     
     |                           x T B                           |     
     |                   =====================                   |     
     |                         S. Grimme                         |     
     |          Mulliken Center for Theoretical Chemistry        |     
     |                    University of Bonn                     |     
      -----------------------------------------------------------      

   * xtb version 6.5.1 (b24c23e) compiled by 'conda@728c89f4b128' on 2022-07-12

   xtb is free software: you can redistribute it and/or modify it under
   the terms of the GNU Lesser General Public License as published by
   the Free Software Foundation, either version 3 of the License, or
   (at your option) any later version.
   
   xtb is distributed in the hope that it will be useful,
   but WITHOUT ANY WARRANTY; without even the implied warranty of
   MERCHANTABILITY or FITNESS FOR A PARTICULAR PURPOSE.  See the
   GNU Lesser General Public License for more details.
   
   Cite this work as:
   * C. Bannwarth, E. Caldeweyher, S. Ehlert, A. Hansen, P. Pracht,
     J. Seibert, S. Spicher, S. Grimme, WIREs Comput. Mol. Sci., 2020, 11,
     e01493. DOI: 10.1002/wcms.1493
   
   for GFN2-xTB:
   * C. Bannwarth, S. Ehlert and S. Grimme., J. Chem. Theory Comput., 2019,
     15, 1652-1671. DOI: 10.1021/acs.jctc.8b01176
   for GFN1-xTB:
   * S. Grimme, C. Bannwarth, P. Shushkov, J. Chem. Theory Comput., 2017,
     13, 1989-2009. DOI: 10.1021/acs.jctc.7b00118
   for GFN0-xTB:
   * P. Pracht, E. Caldeweyher, S. Ehlert, S. Grimme, ChemRxiv, 2019, preprint.
     DOI: 10.26434/chemrxiv.8326202.v1
   for GFN-FF:
   * S. Spicher and S. Grimme, Angew. Chem. Int. Ed., 2020, 59, 15665-15673.
     DOI: 10.1002/anie.202004239
   
   for ALPB and GBSA implicit solvation:
   * S. Ehlert, M. Stahn, S. Spicher, S. Grimme, J. Chem. Theory Comput.,
     2021, 17, 4250-4261. DOI: 10.1021/acs.jctc.1c00471
   
   for DFT-D4:
   * E. Caldeweyher, C. Bannwarth and S. Grimme, J. Chem. Phys., 2017,
     147, 034112. DOI: 10.1063/1.4993215
   * E. Caldeweyher, S. Ehlert, A. Hansen, H. Neugebauer, S. Spicher,
     C. Bannwarth and S. Grimme, J. Chem. Phys., 2019, 150, 154122.
     DOI: 10.1063/1.5090222
   * E. Caldeweyher, J.-M. Mewes, S. Ehlert and S. Grimme, Phys. Chem. Chem. Phys.
     2020, 22, 8499-8512. DOI: 10.1039/D0CP00502A
   
   for sTDA-xTB:
   * S. Grimme and C. Bannwarth, J. Chem. Phys., 2016, 145, 054103.
     DOI: 10.1063/1.4959605
   
   in the mass-spec context:
   * V. Asgeirsson, C. Bauer and S. Grimme, Chem. Sci., 2017, 8, 4879.
     DOI: 10.1039/c7sc00601b
   * J. Koopman and S. Grimme, ACS Omega 2019, 4, 12, 15120-15133.
     DOI: 10.1021/acsomega.9b02011
   
   for metadynamics refer to:
   * S. Grimme, J. Chem. Theory Comput., 2019, 155, 2847-2862
     DOI: 10.1021/acs.jctc.9b00143
   
   for SPH calculations refer to:
   * S. Spicher and S. Grimme, J. Chem. Theory Comput., 2021, 17, 1701-1714
     DOI: 10.1021/acs.jctc.0c01306
   
   with help from (in alphabetical order)
   P. Atkinson, C. Bannwarth, F. Bohle, G. Brandenburg, E. Caldeweyher
   M. Checinski, S. Dohm, S. Ehlert, S. Ehrlich, I. Gerasimov, C. Hölzer
   A. Katbashev, J. Koopman, C. Lavigne, S. Lehtola, F. März, M. Müller,
   F. Musil, H. Neugebauer, J. Pisarek, C. Plett, P. Pracht, F. Pultar,
   J. Seibert, P. Shushkov, S. Spicher, M. Stahn, M. Steiner, T. Strunk,
   J. Stückrath, T. Rose, and J. Unsleber
   
 * started run on 2022/07/30 at 11:21:46.864     

           -------------------------------------------------
          |                Calculation Setup                |
           -------------------------------------------------

          program call               : xtb Zn_Ph_C4_2.xyz --gfn 1 --opt -T 48
          hostname                   : cx3-14-28.cx3.hpc.ic.ac.uk
          coordinate file            : Zn_Ph_C4_2.xyz
          omp threads                :                     1

   ID    Z sym.   atoms
    1   30 Zn     1, 57
    2    6 C      2-6, 8-11, 13-29, 32-37, 58-62, 64-67, 69-85, 88-93, 113-116
    3    7 N      7, 12, 30, 31, 63, 68, 86, 87
    4    1 H      38-56, 94-112
########################################################################
[WARNING] Please study the warnings concerning your input carefully
-1- prog_main_parseArguments: Unknown option '-T' provided
########################################################################

           -------------------------------------------------
          |                 G F N 1 - x T B                 |
           -------------------------------------------------

        Reference                      10.1021/acs.jctc.7b00118
      * Hamiltonian:
        H0-scaling (s, p, d)           1.850000    2.250000    2.000000
        zeta-weighting                 0.000000
      * Dispersion:
        s8                             2.400000
        a1                             0.630000
        a2                             5.000000
        s9                             0.000000
      * Repulsion:
        kExp                           1.500000
        rExp                           1.000000
      * Coulomb:
        alpha                          2.000000
        third order                    atomic
        anisotropic                    false
      * Halogen bond correction:
        rad-scale                      1.300000
        damping                        0.440000


          ...................................................
          :                      SETUP                      :
          :.................................................:
          :  # basis functions                 388          :
          :  # atomic orbitals                 388          :
          :  # shells                          232          :
          :  # electrons                       354          :
          :  # halogen bonds                     0          :
          :  max. iterations                   250          :
          :  Hamiltonian                  GFN1-xTB          :
          :  restarted?                      false          :
          :  GBSA solvation                  false          :
          :  PC potential                    false          :
          :  electronic temp.          300.0000000     K    :
          :  accuracy                    1.0000000          :
          :  -> integral cutoff          0.2500000E+02      :
          :  -> integral neglect         0.1000000E-07      :
          :  -> SCF convergence          0.1000000E-05 Eh   :
          :  -> wf. convergence          0.2000000E-04 e    :
          :  Broyden damping             0.4000000          :
          ...................................................

 iter      E             dE          RMSdq      gap      omega  full diag
   1   -193.9392000 -0.193939E+03  0.104E+01    0.62       0.0  T
   2   -194.1315850 -0.192385E+00  0.625E+00    0.69       1.0  T
   3   -193.5007085  0.630877E+00  0.163E+00    0.51       1.0  T
   4   -193.9450190 -0.444311E+00  0.873E-01    0.81       1.0  T
   5   -194.1379726 -0.192954E+00  0.400E-01    0.67       1.0  T
   6   -194.1748315 -0.368589E-01  0.107E-01    0.58       1.0  T
   7   -194.1782619 -0.343044E-02  0.528E-02    0.64       1.0  T
   8   -194.1792252 -0.963290E-03  0.152E-02    0.62       1.0  T
   9   -194.1793084 -0.832252E-04  0.473E-03    0.62       2.0  T
  10   -194.1793092 -0.757116E-06  0.380E-03    0.62       2.4  T
  11   -194.1793104 -0.121330E-05  0.238E-03    0.62       3.9  T
  12   -194.1793113 -0.911586E-06  0.866E-04    0.62      10.7  T
  13   -194.1793114 -0.113821E-06  0.183E-04    0.62      50.8  T
  14   -194.1793114 -0.741849E-08  0.712E-05    0.62     130.3  T

   *** convergence criteria satisfied after 14 iterations ***

         #    Occupation            Energy/Eh            Energy/eV
      -------------------------------------------------------------
         1        2.0000           -0.7620215             -20.7357
       ...           ...                  ...                  ...
       171        2.0000           -0.3932996             -10.7022
       172        2.0000           -0.3925419             -10.6816
       173        2.0000           -0.3918939             -10.6640
       174        2.0000           -0.3905572             -10.6276
       175        2.0000           -0.3863898             -10.5142
       176        2.0000           -0.3832365             -10.4284
       177        2.0000           -0.3692442             -10.0476 (HOMO)
       178        0.0000           -0.3463226              -9.4239 (LUMO)
       179                         -0.3220300              -8.7629
       180                         -0.3213080              -8.7432
       181                         -0.3073820              -8.3643
       182                         -0.2917035              -7.9377
       ...                                ...                  ...
       388                          1.3841122              37.6636
      -------------------------------------------------------------
                  HL-Gap            0.0229215 Eh            0.6237 eV
             Fermi-level           -0.3577834 Eh           -9.7358 eV

 SCC (total)                   0 d,  0 h,  0 min,  0.876 sec
 SCC setup                      ...        0 min,  0.004 sec (  0.477%)
 Dispersion                     ...        0 min,  0.003 sec (  0.333%)
 classical contributions        ...        0 min,  0.001 sec (  0.142%)
 integral evaluation            ...        0 min,  0.106 sec ( 12.051%)
 iterations                     ...        0 min,  0.490 sec ( 55.985%)
 molecular gradient             ...        0 min,  0.264 sec ( 30.094%)
 printout                       ...        0 min,  0.008 sec (  0.915%)

         :::::::::::::::::::::::::::::::::::::::::::::::::::::
         ::                     SUMMARY                     ::
         :::::::::::::::::::::::::::::::::::::::::::::::::::::
         :: total energy            -190.984121642678 Eh    ::
         :: gradient norm              0.622747529578 Eh/a0 ::
         :: HOMO-LUMO gap              0.623726105093 eV    ::
         ::.................................................::
         :: SCC energy              -194.179311427528 Eh    ::
         :: -> electrostatic           0.138975264701 Eh    ::
         :: repulsion energy           3.297645004394 Eh    ::
         :: dispersion energy         -0.102455219544 Eh    ::
         :: halogen bond corr.         0.000000000000 Eh    ::
         :: add. restraining           0.000000000000 Eh    ::
         :: total charge               0.000000000005 e     ::
         :::::::::::::::::::::::::::::::::::::::::::::::::::::

      ----------------------------------------------------------- 
     |                   =====================                   |
     |                        A N C O P T                        |
     |                   =====================                   |
     |               Approximate Normal Coordinate               |
     |                Rational Function Optimizer                |
      ----------------------------------------------------------- 

          ...................................................
          :                      SETUP                      :
          :.................................................:
          :   optimization level            normal          :
          :   max. optcycles                   348          :
          :   ANC micro-cycles                  20          :
          :   degrees of freedom               342          :
          :.................................................:
          :   RF solver                   davidson          :
          :   write xtbopt.log                true          :
          :   linear?                        false          :
          :   energy convergence         0.5000000E-05 Eh   :
          :   grad. convergence          0.1000000E-02 Eh/α :
          :   maximium RF displ.         1.0000000          :
          :   Hlow (freq-cutoff)         0.1000000E-01      :
          :   Hmax (freq-cutoff)         5.0000000          :
          :   S6 in model hess.         20.0000000          :
          ...................................................

generating ANC from model Hessian ...
Using Lindh-Hessian (1995)
 Shifting diagonal of input Hessian by    1.0045651010179842E-002
 Lowest  eigenvalues of input Hessian
    0.010000    0.010025    0.010032    0.010043    0.000000    0.000000
    0.000000    0.000000    0.000000    0.000000    0.010204    0.010221
    0.010379    0.010453    0.010506    0.010620    0.010691    0.010742
 Highest eigenvalues
    2.101953    2.102045    2.157245    2.174497    2.480815    2.783407


........................................................................
.............................. CYCLE    1 ..............................
........................................................................
   1   -194.1793114 -0.194179E+03  0.418E-05    0.62       0.0  T
   2   -194.1793114  0.272348E-08  0.932E-05    0.62      99.6  T
   3   -194.1793114 -0.334501E-08  0.190E-05    0.62     489.1  T
     SCC iter.                  ...        0 min,  0.108 sec
     gradient                   ...        0 min,  0.265 sec
 * total energy  :  -190.9841216 Eh     change       -0.1512035E-08 Eh
   gradient norm :     0.6227469 Eh/α   predicted     0.0000000E+00 (-100.00%)
   displ. norm   :     0.4060919 α      lambda       -0.2105389E+00
   maximum displ.:     0.1107890 α      in ANC's #341, #340, #226, ...

........................................................................
.............................. CYCLE    2 ..............................
........................................................................
   1   -194.2588362 -0.194259E+03  0.153E-01    0.85       0.0  T
   2   -194.2610580 -0.222176E-02  0.891E-02    0.84       1.0  T
   3   -194.2625586 -0.150060E-02  0.475E-02    0.85       1.0  T
   4   -194.2628630 -0.304418E-03  0.206E-02    0.85       1.0  T
   5   -194.2628680 -0.502518E-05  0.141E-02    0.85       1.0  T
   6   -194.2628926 -0.245893E-04  0.403E-03    0.85       2.3  T
   7   -194.2628987 -0.610012E-05  0.986E-04    0.85       9.4  T
   8   -194.2628991 -0.367703E-06  0.403E-04    0.85      23.1  T
   9   -194.2628991 -0.398307E-07  0.145E-04    0.85      64.0  T
  10   -194.2628991 -0.428906E-08  0.599E-05    0.85     154.9  T
     SCC iter.                  ...        0 min,  0.350 sec
     gradient                   ...        0 min,  0.262 sec
 * total energy  :  -191.1435383 Eh     change       -0.1594167E+00 Eh
   gradient norm :     0.3202134 Eh/α   predicted    -0.1226452E+00 ( -23.07%)
   displ. norm   :     0.4195717 α      lambda       -0.1076462E+00
   maximum displ.:     0.0943147 α      in ANC's #340, #336, #342, ...

........................................................................
.............................. CYCLE    3 ..............................
........................................................................
   1   -194.3698401 -0.194370E+03  0.159E-01    1.09       0.0  T
   2   -194.3724847 -0.264461E-02  0.718E-02    1.07       1.0  T
   3   -194.3735888 -0.110410E-02  0.389E-02    1.09       1.0  T
   4   -194.3739216 -0.332742E-03  0.207E-02    1.08       1.0  T
   5   -194.3739660 -0.444357E-04  0.117E-02    1.08       1.0  T
   6   -194.3740093 -0.432543E-04  0.190E-03    1.08       4.9  T
   7   -194.3740101 -0.875878E-06  0.106E-03    1.08       8.7  T
   8   -194.3740106 -0.451751E-06  0.322E-04    1.08      28.9  T
   9   -194.3740106 -0.251815E-07  0.118E-04    1.08      78.4  T
  10   -194.3740106 -0.338810E-08  0.320E-05    1.08     290.2  T
     SCC iter.                  ...        0 min,  0.349 sec
     gradient                   ...        0 min,  0.263 sec
 * total energy  :  -191.1879514 Eh     change       -0.4441311E-01 Eh
   gradient norm :     0.2677997 Eh/α   predicted    -0.6329812E-01 (  42.52%)
   displ. norm   :     0.3346905 α      lambda       -0.4674414E-01
   maximum displ.:     0.1016015 α      in ANC's #106, #32, #52, ...

........................................................................
.............................. CYCLE    4 ..............................
........................................................................
   1   -194.3632848 -0.194363E+03  0.661E-02    1.05       0.0  T
   2   -194.3637458 -0.460966E-03  0.354E-02    1.05       1.0  T
   3   -194.3639140 -0.168234E-03  0.178E-02    1.05       1.0  T
   4   -194.3639317 -0.177179E-04  0.131E-02    1.05       1.0  T
   5   -194.3639676 -0.358255E-04  0.514E-03    1.05       1.8  T
   6   -194.3639757 -0.815348E-05  0.120E-03    1.05       7.8  T
   7   -194.3639761 -0.410995E-06  0.520E-04    1.05      17.9  T
   8   -194.3639762 -0.100353E-06  0.181E-04    1.05      51.4  T
   9   -194.3639762 -0.843283E-08  0.755E-05    1.05     123.0  T
     SCC iter.                  ...        0 min,  0.311 sec
     gradient                   ...        0 min,  0.263 sec
 * total energy  :  -191.2091531 Eh     change       -0.2120165E-01 Eh
   gradient norm :     0.0680527 Eh/α   predicted    -0.2599018E-01 (  22.59%)
   displ. norm   :     0.4122597 α      lambda       -0.8522980E-02
   maximum displ.:     0.2169489 α      in ANC's #32, #29, #52, ...

........................................................................
.............................. CYCLE    5 ..............................
........................................................................
   1   -194.3651994 -0.194365E+03  0.283E-02    1.07       0.0  T
   2   -194.3652397 -0.403281E-04  0.130E-02    1.07       1.0  T
   3   -194.3652638 -0.240857E-04  0.801E-03    1.07       1.2  T
   4   -194.3652947 -0.309145E-04  0.447E-03    1.07       2.1  T
   5   -194.3652977 -0.298571E-05  0.113E-03    1.07       8.2  T
   6   -194.3652977 -0.529973E-07  0.424E-04    1.07      21.9  T
   7   -194.3652978 -0.486197E-07  0.205E-04    1.07      45.2  T
   8   -194.3652978 -0.155627E-07  0.703E-05    1.07     132.0  T
   9   -194.3652978 -0.878686E-09  0.239E-05    1.07     389.1  T
     SCC iter.                  ...        0 min,  0.312 sec
     gradient                   ...        0 min,  0.265 sec
 * total energy  :  -191.2159067 Eh     change       -0.6753657E-02 Eh
   gradient norm :     0.0295688 Eh/α   predicted    -0.4986342E-02 ( -26.17%)
   displ. norm   :     0.6230718 α      lambda       -0.7446277E-02
   maximum displ.:     0.3142019 α      in ANC's #32, #29, #36, ...

........................................................................
.............................. CYCLE    6 ..............................
........................................................................
   1   -194.3717670 -0.194372E+03  0.302E-02    1.09       0.0  T
   2   -194.3718010 -0.340054E-04  0.136E-02    1.09       1.0  T
   3   -194.3718191 -0.180754E-04  0.922E-03    1.09       1.0  T
   4   -194.3718614 -0.423308E-04  0.476E-03    1.09       1.9  T
   5   -194.3718642 -0.277388E-05  0.778E-04    1.09      11.9  T
   6   -194.3718642 -0.750162E-07  0.316E-04    1.09      29.4  T
   7   -194.3718643 -0.224277E-07  0.174E-04    1.09      53.3  T
   8   -194.3718643 -0.138193E-07  0.463E-05    1.09     200.5  T
     SCC iter.                  ...        0 min,  0.278 sec
     gradient                   ...        0 min,  0.262 sec
 * total energy  :  -191.2209263 Eh     change       -0.5019582E-02 Eh
   gradient norm :     0.0189847 Eh/α   predicted    -0.5168535E-02 (   2.97%)
   displ. norm   :     0.5652598 α      lambda       -0.3813896E-02
   maximum displ.:     0.2814358 α      in ANC's #32, #29, #30, ...

........................................................................
.............................. CYCLE    7 ..............................
........................................................................
   1   -194.3788412 -0.194379E+03  0.165E-02    1.10       0.0  T
   2   -194.3788558 -0.146787E-04  0.740E-03    1.10       1.3  T
   3   -194.3788623 -0.647608E-05  0.446E-03    1.10       2.1  T
   4   -194.3788696 -0.727430E-05  0.267E-03    1.10       3.5  T
   5   -194.3788708 -0.120149E-05  0.638E-04    1.10      14.6  T
   6   -194.3788708 -0.562291E-07  0.118E-04    1.10      79.0  T
   7   -194.3788708 -0.213501E-08  0.546E-05    1.10     170.0  T
     SCC iter.                  ...        0 min,  0.245 sec
     gradient                   ...        0 min,  0.266 sec
 * total energy  :  -191.2228865 Eh     change       -0.1960213E-02 Eh
   gradient norm :     0.0281447 Eh/α   predicted    -0.2516270E-02 (  28.37%)
   displ. norm   :     0.4591317 α      lambda       -0.2646625E-02
   maximum displ.:     0.1842216 α      in ANC's #32, #13, #29, ...

........................................................................
.............................. CYCLE    8 ..............................
........................................................................
   1   -194.3909449 -0.194391E+03  0.903E-03    1.10       0.0  T
   2   -194.3909505 -0.559082E-05  0.474E-03    1.10       2.0  T
   3   -194.3909521 -0.157480E-05  0.265E-03    1.10       3.5  T
   4   -194.3909517  0.428236E-06  0.176E-03    1.10       5.3  T
   5   -194.3909527 -0.986929E-06  0.660E-04    1.10      14.1  T
   6   -194.3909528 -0.144120E-06  0.636E-05    1.10     146.1  T
   7   -194.3909528 -0.484789E-09  0.388E-05    1.10     239.4  T
     SCC iter.                  ...        0 min,  0.247 sec
     gradient                   ...        0 min,  0.267 sec
 * total energy  :  -191.2241727 Eh     change       -0.1286133E-02 Eh
   gradient norm :     0.0196454 Eh/α   predicted    -0.1602271E-02 (  24.58%)
   displ. norm   :     0.4655606 α      lambda       -0.2715242E-02
   maximum displ.:     0.1703489 α      in ANC's #13, #8, #21, ...

........................................................................
.............................. CYCLE    9 ..............................
........................................................................
   1   -194.4011590 -0.194401E+03  0.977E-03    1.09       0.0  T
   2   -194.4011657 -0.667496E-05  0.515E-03    1.09       1.8  T
   3   -194.4011665 -0.830786E-06  0.313E-03    1.09       3.0  T
   4   -194.4011671 -0.556390E-06  0.228E-03    1.09       4.1  T
   5   -194.4011685 -0.136429E-05  0.718E-04    1.09      12.9  T
   6   -194.4011686 -0.150481E-06  0.111E-04    1.09      83.4  T
   7   -194.4011686 -0.249636E-08  0.694E-05    1.09     133.8  T
     SCC iter.                  ...        0 min,  0.241 sec
     gradient                   ...        0 min,  0.250 sec
 * total energy  :  -191.2248196 Eh     change       -0.6469491E-03 Eh
   gradient norm :     0.0229577 Eh/α   predicted    -0.1651881E-02 ( 155.33%)
   displ. norm   :     0.2193003 α      lambda       -0.1740239E-02
   maximum displ.:     0.0886712 α      in ANC's #13, #29, #8, ...

........................................................................
.............................. CYCLE   10 ..............................
........................................................................
   1   -194.4106855 -0.194411E+03  0.677E-03    1.09       0.0  T
   2   -194.4106868 -0.133433E-05  0.429E-03    1.09       2.2  T
   3   -194.4106867  0.123061E-06  0.302E-03    1.09       3.1  T
   4   -194.4106883 -0.164300E-05  0.150E-03    1.09       6.2  T
   5   -194.4106889 -0.549587E-06  0.336E-04    1.09      27.7  T
   6   -194.4106889 -0.303441E-07  0.733E-05    1.09     126.7  T
   7   -194.4106889 -0.117973E-08  0.330E-05    1.09     281.6  T
     SCC iter.                  ...        0 min,  0.229 sec
     gradient                   ...        0 min,  0.251 sec
 * total energy  :  -191.2259035 Eh     change       -0.1083849E-02 Eh
   gradient norm :     0.0085489 Eh/α   predicted    -0.9119669E-03 ( -15.86%)
   displ. norm   :     0.3393275 α      lambda       -0.8256371E-03
   maximum displ.:     0.1924879 α      in ANC's #13, #23, #19, ...

........................................................................
.............................. CYCLE   11 ..............................
........................................................................
   1   -194.4124780 -0.194412E+03  0.339E-03    1.09       0.0  T
   2   -194.4124783 -0.328198E-06  0.244E-03    1.09       3.8  T
   3   -194.4124799 -0.157732E-05  0.111E-03    1.09       8.4  T
   4   -194.4124801 -0.229383E-06  0.687E-04    1.09      13.5  T
   5   -194.4124802 -0.774203E-07  0.231E-04    1.09      40.3  T
   6   -194.4124802 -0.816917E-08  0.487E-05    1.09     190.6  T
   7   -194.4124802 -0.758178E-09  0.229E-05    1.09     405.5  T
     SCC iter.                  ...        0 min,  0.230 sec
     gradient                   ...        0 min,  0.251 sec
 * total energy  :  -191.2265600 Eh     change       -0.6564864E-03 Eh
   gradient norm :     0.0078234 Eh/α   predicted    -0.4603540E-03 ( -29.88%)
   displ. norm   :     0.5040341 α      lambda       -0.8873126E-03
   maximum displ.:     0.2963438 α      in ANC's #13, #19, #20, ...

........................................................................
.............................. CYCLE   12 ..............................
........................................................................
   1   -194.4121763 -0.194412E+03  0.359E-03    1.09       0.0  T
   2   -194.4121773 -0.976546E-06  0.212E-03    1.09       4.4  T
   3   -194.4121781 -0.888705E-06  0.994E-04    1.09       9.3  T
   4   -194.4121783 -0.132137E-06  0.649E-04    1.09      14.3  T
   5   -194.4121784 -0.708155E-07  0.222E-04    1.09      41.9  T
   6   -194.4121784 -0.173617E-07  0.483E-05    1.09     192.4  T
   7   -194.4121784 -0.333699E-09  0.199E-05    1.09     467.3  T
     SCC iter.                  ...        0 min,  0.231 sec
     gradient                   ...        0 min,  0.251 sec
 * total energy  :  -191.2272655 Eh     change       -0.7055287E-03 Eh
   gradient norm :     0.0073136 Eh/α   predicted    -0.5563693E-03 ( -21.14%)
   displ. norm   :     0.5000327 α      lambda       -0.6739043E-03
   maximum displ.:     0.3136863 α      in ANC's #13, #19, #20, ...

........................................................................
.............................. CYCLE   13 ..............................
........................................................................
   1   -194.4104618 -0.194410E+03  0.401E-03    1.09       0.0  T
   2   -194.4104630 -0.122782E-05  0.187E-03    1.09       5.0  T
   3   -194.4104634 -0.370736E-06  0.110E-03    1.09       8.4  T
   4   -194.4104636 -0.211979E-06  0.762E-04    1.09      12.2  T
   5   -194.4104637 -0.110264E-06  0.248E-04    1.09      37.4  T
   6   -194.4104637 -0.262574E-07  0.574E-05    1.09     161.8  T
   7   -194.4104637 -0.851998E-09  0.142E-05    1.09     653.1  T
     SCC iter.                  ...        0 min,  0.230 sec
     gradient                   ...        0 min,  0.252 sec
 * total energy  :  -191.2277909 Eh     change       -0.5254472E-03 Eh
   gradient norm :     0.0053244 Eh/α   predicted    -0.4212068E-03 ( -19.84%)
   displ. norm   :     0.4066224 α      lambda       -0.4065786E-03
   maximum displ.:     0.2767120 α      in ANC's #13, #20, #19, ...

........................................................................
.............................. CYCLE   14 ..............................
........................................................................
   1   -194.4099173 -0.194410E+03  0.324E-03    1.09       0.0  T
   2   -194.4099180 -0.715964E-06  0.169E-03    1.09       5.5  T
   3   -194.4099182 -0.267513E-06  0.899E-04    1.09      10.3  T
   4   -194.4099184 -0.192269E-06  0.761E-04    1.09      12.2  T
   5   -194.4099186 -0.138406E-06  0.189E-04    1.09      49.1  T
   6   -194.4099186 -0.688939E-08  0.529E-05    1.09     175.6  T
     SCC iter.                  ...        0 min,  0.197 sec
     gradient                   ...        0 min,  0.252 sec
 * total energy  :  -191.2281076 Eh     change       -0.3166660E-03 Eh
   gradient norm :     0.0032712 Eh/α   predicted    -0.2369043E-03 ( -25.19%)
   displ. norm   :     0.3001911 α      lambda       -0.2399973E-03
   maximum displ.:     0.2199320 α      in ANC's #13, #20, #19, ...

........................................................................
.............................. CYCLE   15 ..............................
........................................................................
   1   -194.4102034 -0.194410E+03  0.180E-03    1.09       0.0  T
   2   -194.4102036 -0.162340E-06  0.959E-04    1.09       9.7  T
   3   -194.4102036 -0.634929E-07  0.502E-04    1.09      18.5  T
   4   -194.4102037 -0.822056E-07  0.443E-04    1.09      20.9  T
   5   -194.4102037 -0.459741E-07  0.984E-05    1.09      94.4  T
   6   -194.4102037 -0.131112E-08  0.279E-05    1.09     332.7  T
     SCC iter.                  ...        0 min,  0.198 sec
     gradient                   ...        0 min,  0.251 sec
 * total energy  :  -191.2283074 Eh     change       -0.1998194E-03 Eh
   gradient norm :     0.0033342 Eh/α   predicted    -0.1308142E-03 ( -34.53%)
   displ. norm   :     0.2511786 α      lambda       -0.1994540E-03
   maximum displ.:     0.1901889 α      in ANC's #13, #9, #20, ...

........................................................................
.............................. CYCLE   16 ..............................
........................................................................
   1   -194.4114379 -0.194411E+03  0.112E-03    1.09       0.0  T
   2   -194.4114380 -0.629231E-07  0.605E-04    1.09      15.3  T
   3   -194.4114380 -0.892683E-08  0.366E-04    1.09      25.4  T
   4   -194.4114380 -0.155209E-07  0.258E-04    1.09      36.0  T
   5   -194.4114381 -0.189046E-07  0.643E-05    1.09     144.5  T
   6   -194.4114381 -0.873769E-09  0.126E-05    1.09     739.3  T
     SCC iter.                  ...        0 min,  0.201 sec
     gradient                   ...        0 min,  0.251 sec
 * total energy  :  -191.2284811 Eh     change       -0.1737197E-03 Eh
   gradient norm :     0.0036842 Eh/α   predicted    -0.1060211E-03 ( -38.97%)
   displ. norm   :     0.2717012 α      lambda       -0.2106445E-03
   maximum displ.:     0.2036041 α      in ANC's #13, #9, #23, ...

........................................................................
.............................. CYCLE   17 ..............................
........................................................................
   1   -194.4117561 -0.194412E+03  0.120E-03    1.09       0.0  T
   2   -194.4117562 -0.749813E-07  0.740E-04    1.09      12.6  T
   3   -194.4117563 -0.100837E-06  0.407E-04    1.09      22.8  T
   4   -194.4117563 -0.307206E-07  0.254E-04    1.09      36.5  T
   5   -194.4117563 -0.127508E-07  0.788E-05    1.09     117.8  T
   6   -194.4117563 -0.164616E-08  0.195E-05    1.09     475.6  T
     SCC iter.                  ...        0 min,  0.198 sec
     gradient                   ...        0 min,  0.254 sec
 * total energy  :  -191.2286625 Eh     change       -0.1814077E-03 Eh
   gradient norm :     0.0033152 Eh/α   predicted    -0.1130977E-03 ( -37.66%)
   displ. norm   :     0.2935632 α      lambda       -0.2014810E-03
   maximum displ.:     0.2130180 α      in ANC's #13, #9, #23, ...

........................................................................
.............................. CYCLE   18 ..............................
........................................................................
   1   -194.4126266 -0.194413E+03  0.214E-03    1.09       0.0  T
   2   -194.4126268 -0.153308E-06  0.103E-03    1.09       9.0  T
   3   -194.4126268 -0.945816E-07  0.786E-04    1.09      11.8  T
   4   -194.4126271 -0.227975E-06  0.367E-04    1.09      25.3  T
   5   -194.4126271 -0.122224E-07  0.111E-04    1.09      84.0  T
   6   -194.4126271 -0.354575E-08  0.315E-05    1.09     294.5  T
     SCC iter.                  ...        0 min,  0.196 sec
     gradient                   ...        0 min,  0.252 sec
 * total energy  :  -191.2288284 Eh     change       -0.1658333E-03 Eh
   gradient norm :     0.0032162 Eh/α   predicted    -0.1094248E-03 ( -34.02%)
   displ. norm   :     0.2740401 α      lambda       -0.1657616E-03
   maximum displ.:     0.2055603 α      in ANC's #13, #9, #23, ...

........................................................................
.............................. CYCLE   19 ..............................
........................................................................
   1   -194.4115208 -0.194412E+03  0.202E-03    1.09       0.0  T
   2   -194.4115209 -0.105273E-06  0.117E-03    1.09       7.9  T
   3   -194.4115210 -0.473400E-07  0.774E-04    1.09      12.0  T
   4   -194.4115211 -0.951111E-07  0.473E-04    1.09      19.6  T
   5   -194.4115211 -0.628191E-07  0.113E-04    1.09      82.3  T
   6   -194.4115211 -0.474114E-08  0.230E-05    1.09     404.0  T
     SCC iter.                  ...        0 min,  0.199 sec
     gradient                   ...        0 min,  0.252 sec
 * total energy  :  -191.2289625 Eh     change       -0.1341273E-03 Eh
   gradient norm :     0.0026984 Eh/α   predicted    -0.8911005E-04 ( -33.56%)
   displ. norm   :     0.2226860 α      lambda       -0.1175131E-03
   maximum displ.:     0.1659791 α      in ANC's #13, #9, #23, ...

........................................................................
.............................. CYCLE   20 ..............................
........................................................................
   1   -194.4118159 -0.194412E+03  0.133E-03    1.09       0.0  T
   2   -194.4118160 -0.862007E-07  0.577E-04    1.09      16.1  T
   3   -194.4118160 -0.135857E-07  0.427E-04    1.09      21.8  T
   4   -194.4118161 -0.500136E-07  0.226E-04    1.09      41.1  T
   5   -194.4118161 -0.652221E-08  0.821E-05    1.09     113.1  T
   6   -194.4118161 -0.265038E-08  0.160E-05    1.09     581.1  T
     SCC iter.                  ...        0 min,  0.196 sec
     gradient                   ...        0 min,  0.253 sec
 * total energy  :  -191.2290646 Eh     change       -0.1020848E-03 Eh
   gradient norm :     0.0022852 Eh/α   predicted    -0.6167246E-04 ( -39.59%)
   displ. norm   :     0.2187051 α      lambda       -0.1137223E-03
   maximum displ.:     0.1667436 α      in ANC's #13, #9, #7, ...
 * RMSD in coord.:     0.4639576 α      energy gain  -0.2449429E+00 Eh

generating ANC from model Hessian ...
Using Lindh-Hessian (1995)
 Shifting diagonal of input Hessian by    1.0024941667682653E-002
 Lowest  eigenvalues of input Hessian
    0.010000    0.010011    0.010020    0.000000    0.000000    0.000000
    0.000000    0.000000    0.000000    0.010085    0.010170    0.010201
    0.010258    0.010546    0.010638    0.010660    0.010732    0.010733
 Highest eigenvalues
    2.084496    2.085590    2.124826    2.124945    2.359230    2.882357


........................................................................
.............................. CYCLE   21 ..............................
........................................................................
   1   -194.4118421 -0.194412E+03  0.109E-03    1.09       0.0  T
   2   -194.4118421 -0.736144E-07  0.530E-04    1.09      17.5  T
   3   -194.4118422 -0.455003E-07  0.362E-04    1.09      25.7  T
   4   -194.4118422 -0.358990E-07  0.161E-04    1.09      57.7  T
   5   -194.4118422 -0.218600E-08  0.547E-05    1.09     169.8  T
     SCC iter.                  ...        0 min,  0.165 sec
     gradient                   ...        0 min,  0.253 sec
 * total energy  :  -191.2291661 Eh     change       -0.1014909E-03 Eh
   gradient norm :     0.0020196 Eh/α   predicted     0.0000000E+00 (-100.00%)
   displ. norm   :     0.0567478 α      lambda       -0.4140573E-04
   maximum displ.:     0.0310356 α      in ANC's #11, #12, #20, ...

........................................................................
.............................. CYCLE   22 ..............................
........................................................................
   1   -194.4119417 -0.194412E+03  0.632E-04    1.09       0.0  T
   2   -194.4119417 -0.108407E-07  0.432E-04    1.09      21.5  T
   3   -194.4119417 -0.339809E-07  0.188E-04    1.09      49.5  T
   4   -194.4119417 -0.863915E-08  0.173E-04    1.09      53.6  T
     SCC iter.                  ...        0 min,  0.134 sec
     gradient                   ...        0 min,  0.255 sec
 * total energy  :  -191.2292037 Eh     change       -0.3757458E-04 Eh
   gradient norm :     0.0013368 Eh/α   predicted    -0.2162834E-04 ( -42.44%)
   displ. norm   :     0.5075447 α      lambda       -0.2304006E-03
   maximum displ.:     0.2593952 α      in ANC's #11, #12, #20, ...

........................................................................
.............................. CYCLE   23 ..............................
........................................................................
   1   -194.4106090 -0.194411E+03  0.525E-03    1.09       0.0  T
   2   -194.4106098 -0.805065E-06  0.346E-03    1.09       2.7  T
   3   -194.4106120 -0.227254E-05  0.154E-03    1.09       6.0  T
   4   -194.4106128 -0.730869E-06  0.133E-03    1.09       7.0  T
   5   -194.4106132 -0.387212E-06  0.338E-04    1.09      27.5  T
   6   -194.4106132 -0.170961E-07  0.100E-04    1.09      92.5  T
   7   -194.4106132 -0.378552E-08  0.325E-05    1.09     285.4  T
     SCC iter.                  ...        0 min,  0.230 sec
     gradient                   ...        0 min,  0.253 sec
 * total energy  :  -191.2293678 Eh     change       -0.1640979E-03 Eh
   gradient norm :     0.0068988 Eh/α   predicted    -0.1283899E-03 ( -21.76%)
   displ. norm   :     0.2139521 α      lambda       -0.1529078E-03
   maximum displ.:     0.1144718 α      in ANC's #11, #12, #20, ...

........................................................................
.............................. CYCLE   24 ..............................
........................................................................
   1   -194.4100380 -0.194410E+03  0.124E-03    1.09       0.0  T
   2   -194.4100381 -0.721357E-07  0.669E-04    1.09      13.9  T
   3   -194.4100381 -0.233771E-07  0.438E-04    1.09      21.2  T
   4   -194.4100381 -0.156550E-07  0.248E-04    1.09      37.4  T
   5   -194.4100381 -0.167974E-07  0.970E-05    1.09      95.7  T
   6   -194.4100381 -0.370159E-08  0.149E-05    1.09     623.5  T
     SCC iter.                  ...        0 min,  0.200 sec
     gradient                   ...        0 min,  0.253 sec
 * total energy  :  -191.2294767 Eh     change       -0.1089485E-03 Eh
   gradient norm :     0.0056147 Eh/α   predicted    -0.7995445E-04 ( -26.61%)
   displ. norm   :     0.2333673 α      lambda       -0.1316929E-03
   maximum displ.:     0.1312520 α      in ANC's #11, #12, #20, ...

........................................................................
.............................. CYCLE   25 ..............................
........................................................................
   1   -194.4110710 -0.194411E+03  0.199E-03    1.09       0.0  T
   2   -194.4110712 -0.221304E-06  0.130E-03    1.09       7.2  T
   3   -194.4110713 -0.115467E-06  0.624E-04    1.09      14.9  T
   4   -194.4110713  0.321421E-09  0.614E-04    1.09      15.1  T
   5   -194.4110714 -0.104510E-06  0.123E-04    1.09      75.7  T
   6   -194.4110714 -0.165525E-08  0.282E-05    1.09     328.8  T
     SCC iter.                  ...        0 min,  0.198 sec
     gradient                   ...        0 min,  0.254 sec
 * total energy  :  -191.2295824 Eh     change       -0.1057328E-03 Eh
   gradient norm :     0.0035796 Eh/α   predicted    -0.6943580E-04 ( -34.33%)
   displ. norm   :     0.3140465 α      lambda       -0.1601831E-03
   maximum displ.:     0.1788514 α      in ANC's #11, #12, #20, ...

........................................................................
.............................. CYCLE   26 ..............................
........................................................................
   1   -194.4128143 -0.194413E+03  0.282E-03    1.09       0.0  T
   2   -194.4128148 -0.513042E-06  0.164E-03    1.09       5.7  T
   3   -194.4128150 -0.208683E-06  0.823E-04    1.09      11.3  T
   4   -194.4128151 -0.838159E-07  0.760E-04    1.09      12.2  T
   5   -194.4128152 -0.157426E-06  0.169E-04    1.09      55.0  T
   6   -194.4128152 -0.195067E-08  0.422E-05    1.09     220.2  T
     SCC iter.                  ...        0 min,  0.200 sec
     gradient                   ...        0 min,  0.248 sec
 * total energy  :  -191.2297098 Eh     change       -0.1273602E-03 Eh
   gradient norm :     0.0040286 Eh/α   predicted    -0.8799140E-04 ( -30.91%)
   displ. norm   :     0.3678746 α      lambda       -0.1627765E-03
   maximum displ.:     0.2103886 α      in ANC's #11, #12, #20, ...

........................................................................
.............................. CYCLE   27 ..............................
........................................................................
   1   -194.4137284 -0.194414E+03  0.252E-03    1.09       0.0  T
   2   -194.4137289 -0.454871E-06  0.119E-03    1.09       7.8  T
   3   -194.4137290 -0.969303E-07  0.713E-04    1.09      13.0  T
   4   -194.4137291 -0.118961E-06  0.484E-04    1.09      19.2  T
   5   -194.4137292 -0.604578E-07  0.144E-04    1.09      64.5  T
   6   -194.4137292 -0.316427E-08  0.327E-05    1.09     283.7  T
     SCC iter.                  ...        0 min,  0.200 sec
     gradient                   ...        0 min,  0.270 sec
 * total energy  :  -191.2298428 Eh     change       -0.1329981E-03 Eh
   gradient norm :     0.0059625 Eh/α   predicted    -0.9240379E-04 ( -30.52%)
   displ. norm   :     0.4234688 α      lambda       -0.1899345E-03
   maximum displ.:     0.2432444 α      in ANC's #11, #12, #20, ...

........................................................................
.............................. CYCLE   28 ..............................
........................................................................
   1   -194.4142758 -0.194414E+03  0.210E-03    1.09       0.0  T
   2   -194.4142760 -0.236405E-06  0.951E-04    1.09       9.8  T
   3   -194.4142761 -0.116473E-06  0.671E-04    1.09      13.8  T
   4   -194.4142763 -0.136649E-06  0.297E-04    1.09      31.2  T
   5   -194.4142763 -0.907647E-08  0.132E-04    1.09      70.4  T
   6   -194.4142763 -0.494566E-08  0.266E-05    1.09     348.6  T
     SCC iter.                  ...        0 min,  0.207 sec
     gradient                   ...        0 min,  0.256 sec
 * total energy  :  -191.2299993 Eh     change       -0.1565000E-03 Eh
   gradient norm :     0.0066703 Eh/α   predicted    -0.1119998E-03 ( -28.43%)
   displ. norm   :     0.4805495 α      lambda       -0.2222064E-03
   maximum displ.:     0.2788154 α      in ANC's #11, #12, #20, ...

........................................................................
.............................. CYCLE   29 ..............................
........................................................................
   1   -194.4140653 -0.194414E+03  0.196E-03    1.09       0.0  T
   2   -194.4140653 -0.117736E-07  0.149E-03    1.09       6.2  T
   3   -194.4140658 -0.523389E-06  0.662E-04    1.09      14.0  T
   4   -194.4140659 -0.442704E-07  0.460E-04    1.09      20.2  T
   5   -194.4140659 -0.493267E-07  0.110E-04    1.09      84.2  T
   6   -194.4140659 -0.254400E-08  0.266E-05    1.09     349.0  T
     SCC iter.                  ...        0 min,  0.189 sec
     gradient                   ...        0 min,  0.259 sec
 * total energy  :  -191.2301776 Eh     change       -0.1782853E-03 Eh
   gradient norm :     0.0056254 Eh/α   predicted    -0.1367644E-03 ( -23.29%)
   displ. norm   :     0.4856370 α      lambda       -0.2071100E-03
   maximum displ.:     0.2869008 α      in ANC's #11, #12, #20, ...

........................................................................
.............................. CYCLE   30 ..............................
........................................................................
   1   -194.4129484 -0.194413E+03  0.230E-03    1.09       0.0  T
   2   -194.4129484 -0.980378E-08  0.194E-03    1.09       4.8  T
   3   -194.4129493 -0.943502E-06  0.765E-04    1.09      12.1  T
   4   -194.4129494 -0.164540E-07  0.622E-04    1.09      14.9  T
   5   -194.4129494 -0.829026E-07  0.150E-04    1.09      61.8  T
   6   -194.4129494 -0.262813E-08  0.218E-05    1.09     426.8  T
     SCC iter.                  ...        0 min,  0.191 sec
     gradient                   ...        0 min,  0.265 sec
 * total energy  :  -191.2303377 Eh     change       -0.1600784E-03 Eh
   gradient norm :     0.0038890 Eh/α   predicted    -0.1279781E-03 ( -20.05%)
   displ. norm   :     0.4391123 α      lambda       -0.1523787E-03
   maximum displ.:     0.2653662 α      in ANC's #11, #12, #20, ...

........................................................................
.............................. CYCLE   31 ..............................
........................................................................
   1   -194.4117558 -0.194412E+03  0.236E-03    1.09       0.0  T
   2   -194.4117559 -0.116993E-06  0.164E-03    1.09       5.7  T
   3   -194.4117566 -0.617724E-06  0.780E-04    1.09      11.9  T
   4   -194.4117567 -0.179050E-06  0.499E-04    1.09      18.6  T
   5   -194.4117568 -0.425483E-07  0.129E-04    1.09      71.9  T
   6   -194.4117568 -0.157956E-08  0.220E-05    1.09     421.8  T
     SCC iter.                  ...        0 min,  0.189 sec
     gradient                   ...        0 min,  0.262 sec
 * total energy  :  -191.2304524 Eh     change       -0.1147559E-03 Eh
   gradient norm :     0.0033026 Eh/α   predicted    -0.9088149E-04 ( -20.80%)
   displ. norm   :     0.3678035 α      lambda       -0.1020594E-03
   maximum displ.:     0.2274544 α      in ANC's #11, #12, #18, ...

........................................................................
.............................. CYCLE   32 ..............................
........................................................................
   1   -194.4114652 -0.194411E+03  0.191E-03    1.09       0.0  T
   2   -194.4114653 -0.134596E-06  0.960E-04    1.09       9.7  T
   3   -194.4114654 -0.103202E-06  0.739E-04    1.09      12.6  T
   4   -194.4114657 -0.220747E-06  0.286E-04    1.09      32.4  T
   5   -194.4114657 -0.377850E-08  0.888E-05    1.09     104.6  T
   6   -194.4114657 -0.119235E-08  0.273E-05    1.09     339.7  T
     SCC iter.                  ...        0 min,  0.188 sec
     gradient                   ...        0 min,  0.256 sec
 * total energy  :  -191.2305290 Eh     change       -0.7663642E-04 Eh
   gradient norm :     0.0032057 Eh/α   predicted    -0.5793510E-04 ( -24.40%)
   displ. norm   :     0.3532227 α      lambda       -0.7429239E-04
   maximum displ.:     0.2216014 α      in ANC's #11, #12, #18, ...

........................................................................
.............................. CYCLE   33 ..............................
........................................................................
   1   -194.4099320 -0.194410E+03  0.154E-03    1.09       0.0  T
   2   -194.4099321 -0.126993E-06  0.687E-04    1.09      13.5  T
   3   -194.4099321 -0.381817E-08  0.571E-04    1.09      16.3  T
   4   -194.4099322 -0.717269E-07  0.257E-04    1.09      36.1  T
   5   -194.4099322 -0.103709E-07  0.105E-04    1.09      88.6  T
   6   -194.4099322 -0.337124E-08  0.205E-05    1.09     452.6  T
     SCC iter.                  ...        0 min,  0.196 sec
     gradient                   ...        0 min,  0.248 sec
 * total energy  :  -191.2305828 Eh     change       -0.5377738E-04 Eh
   gradient norm :     0.0031951 Eh/α   predicted    -0.4178609E-04 ( -22.30%)
   displ. norm   :     0.3216431 α      lambda       -0.1067118E-03
   maximum displ.:     0.2000950 α      in ANC's #11, #12, #16, ...

........................................................................
.............................. CYCLE   34 ..............................
........................................................................
   1   -194.4184056 -0.194418E+03  0.417E-03    1.09       0.0  T
   2   -194.4184060 -0.388051E-06  0.229E-03    1.09       4.1  T
   3   -194.4184057  0.300529E-06  0.155E-03    1.09       6.0  T
   4   -194.4184059 -0.194845E-06  0.829E-04    1.09      11.2  T
   5   -194.4184062 -0.308192E-06  0.188E-04    1.09      49.5  T
   6   -194.4184062 -0.139707E-07  0.308E-05    1.09     301.0  T
     SCC iter.                  ...        0 min,  0.221 sec
     gradient                   ...        0 min,  0.278 sec
 * total energy  :  -191.2305730 Eh     change        0.9865061E-05 Eh
   gradient norm :     0.0064491 Eh/α   predicted    -0.5887962E-04 (-696.85%)
   displ. norm   :     0.2163986 α      lambda       -0.1330947E-03
   maximum displ.:     0.1321068 α      in ANC's #11, #12, #20, ...

........................................................................
.............................. CYCLE   35 ..............................
........................................................................
   1   -194.4115182 -0.194412E+03  0.344E-03    1.09       0.0  T
   2   -194.4115184 -0.220279E-06  0.188E-03    1.09       4.9  T
   3   -194.4115184  0.522064E-07  0.900E-04    1.09      10.3  T
   4   -194.4115183  0.544358E-07  0.518E-04    1.09      17.9  T
   5   -194.4115184 -0.127996E-06  0.110E-04    1.09      84.1  T
   6   -194.4115185 -0.534703E-08  0.157E-05    1.09     592.4  T
     SCC iter.                  ...        0 min,  0.221 sec
     gradient                   ...        0 min,  0.259 sec
 * total energy  :  -191.2306427 Eh     change       -0.6969879E-04 Eh
   gradient norm :     0.0027230 Eh/α   predicted    -0.6966503E-04 (  -0.05%)
   displ. norm   :     0.0466503 α      lambda       -0.1861503E-04
   maximum displ.:     0.0197544 α      in ANC's #11, #12, #20, ...

........................................................................
.............................. CYCLE   36 ..............................
........................................................................
   1   -194.4122229 -0.194412E+03  0.102E-03    1.09       0.0  T
   2   -194.4122230 -0.543598E-07  0.394E-04    1.09      23.6  T
   3   -194.4122230  0.138948E-08  0.359E-04    1.09      25.9  T
   4   -194.4122230 -0.323683E-07  0.153E-04    1.09      60.9  T
   5   -194.4122230 -0.868738E-09  0.685E-05    1.09     135.5  T
     SCC iter.                  ...        0 min,  0.170 sec
     gradient                   ...        0 min,  0.254 sec
 * total energy  :  -191.2306572 Eh     change       -0.1453897E-04 Eh
   gradient norm :     0.0014880 Eh/α   predicted    -0.9330213E-05 ( -35.83%)
   displ. norm   :     0.2138330 α      lambda       -0.3181489E-04
   maximum displ.:     0.1277586 α      in ANC's #11, #12, #15, ...

........................................................................
.............................. CYCLE   37 ..............................
........................................................................
   1   -194.4141958 -0.194414E+03  0.241E-03    1.09       0.0  T
   2   -194.4141961 -0.302513E-06  0.886E-04    1.09      10.5  T
   3   -194.4141961 -0.154733E-08  0.827E-04    1.09      11.2  T
   4   -194.4141963 -0.211368E-06  0.338E-04    1.09      27.5  T
   5   -194.4141963 -0.624368E-09  0.136E-04    1.09      68.4  T
   6   -194.4141963 -0.522968E-08  0.275E-05    1.09     338.2  T
     SCC iter.                  ...        0 min,  0.227 sec
     gradient                   ...        0 min,  0.278 sec
 * total energy  :  -191.2306772 Eh     change       -0.1999186E-04 Eh
   gradient norm :     0.0020707 Eh/α   predicted    -0.1623183E-04 ( -18.81%)
   displ. norm   :     0.0293630 α      lambda       -0.7944853E-05
   maximum displ.:     0.0160397 α      in ANC's #11, #12, #16, ...

........................................................................
.............................. CYCLE   38 ..............................
........................................................................
   1   -194.4144245 -0.194414E+03  0.603E-04    1.09       0.0  T
   2   -194.4144245 -0.178568E-07  0.247E-04    1.09      37.6  T
   3   -194.4144245  0.720405E-09  0.212E-04    1.09      43.8  T
   4   -194.4144245 -0.108606E-07  0.942E-05    1.09      98.6  T
   5   -194.4144245 -0.757723E-09  0.375E-05    1.09     247.3  T
     SCC iter.                  ...        0 min,  0.185 sec
     gradient                   ...        0 min,  0.277 sec
 * total energy  :  -191.2306835 Eh     change       -0.6337493E-05 Eh
   gradient norm :     0.0014447 Eh/α   predicted    -0.3977705E-05 ( -37.24%)
   displ. norm   :     0.1244794 α      lambda       -0.1450374E-04
   maximum displ.:     0.0674302 α      in ANC's #11, #12, #16, ...

........................................................................
.............................. CYCLE   39 ..............................
........................................................................
   1   -194.4143889 -0.194414E+03  0.182E-03    1.09       0.0  T
   2   -194.4143891 -0.193647E-06  0.684E-04    1.09      13.6  T
   3   -194.4143891 -0.330601E-07  0.590E-04    1.09      15.7  T
   4   -194.4143893 -0.114524E-06  0.229E-04    1.09      40.5  T
   5   -194.4143893  0.481236E-09  0.113E-04    1.09      82.2  T
   6   -194.4143893 -0.352384E-08  0.264E-05    1.09     352.3  T
     SCC iter.                  ...        0 min,  0.205 sec
     gradient                   ...        0 min,  0.255 sec
 * total energy  :  -191.2306925 Eh     change       -0.8985925E-05 Eh
   gradient norm :     0.0015007 Eh/α   predicted    -0.7304751E-05 ( -18.71%)
   displ. norm   :     0.0453289 α      lambda       -0.5644093E-05
   maximum displ.:     0.0263847 α      in ANC's #20, #10, #19, ...

........................................................................
.............................. CYCLE   40 ..............................
........................................................................
   1   -194.4143237 -0.194414E+03  0.556E-04    1.09       0.0  T
   2   -194.4143237 -0.212284E-07  0.298E-04    1.09      31.1  T
   3   -194.4143237 -0.210900E-08  0.217E-04    1.09      42.7  T
   4   -194.4143237 -0.426749E-08  0.113E-04    1.09      81.8  T
   5   -194.4143237 -0.417486E-08  0.452E-05    1.09     205.4  T
     SCC iter.                  ...        0 min,  0.184 sec
     gradient                   ...        0 min,  0.249 sec
 * total energy  :  -191.2306973 Eh     change       -0.4777896E-05 Eh
   gradient norm :     0.0013849 Eh/α   predicted    -0.2826533E-05 ( -40.84%)
   displ. norm   :     0.0896831 α      lambda       -0.7016026E-05
   maximum displ.:     0.0453104 α      in ANC's #20, #10, #12, ...

........................................................................
.............................. CYCLE   41 ..............................
........................................................................
   1   -194.4140095 -0.194414E+03  0.949E-04    1.09       0.0  T
   2   -194.4140096 -0.496603E-07  0.444E-04    1.09      20.9  T
   3   -194.4140096 -0.322510E-08  0.366E-04    1.09      25.4  T
   4   -194.4140096 -0.349437E-07  0.155E-04    1.09      59.8  T
   5   -194.4140096 -0.304823E-08  0.606E-05    1.09     153.2  T
     SCC iter.                  ...        0 min,  0.178 sec
     gradient                   ...        0 min,  0.248 sec
 * total energy  :  -191.2307022 Eh     change       -0.4881076E-05 Eh
   gradient norm :     0.0007405 Eh/α   predicted    -0.3525442E-05 ( -27.77%)
   displ. norm   :     0.0360505 α      lambda       -0.2352382E-05
   maximum displ.:     0.0192715 α      in ANC's #20, #10, #15, ...

   *** GEOMETRY OPTIMIZATION CONVERGED AFTER 41 ITERATIONS ***

------------------------------------------------------------------------
 total energy gain   :        -0.2465805 Eh     -154.7316 kcal/mol
 total RMSD          :         0.7766913 a0        0.4110 Å
 total power (kW/mol):       -15.7901731 (step)  -26.4881 (real)
------------------------------------------------------------------------

 ANCopt (total)                0 d,  0 h,  0 min, 24.441 sec
 optimizer setup                ...        0 min,  0.000 sec (  0.001%)
 model hessian                  ...        0 min,  0.082 sec (  0.334%)
 ANC generation                 ...        0 min,  0.037 sec (  0.153%)
 coordinate transformation      ...        0 min,  0.005 sec (  0.021%)
 single point calculation       ...        0 min, 24.240 sec ( 99.177%)
 optimization log               ...        0 min,  0.030 sec (  0.122%)
 hessian update                 ...        0 min,  0.005 sec (  0.019%)
 rational function              ...        0 min,  0.019 sec (  0.076%)

================
 final structure:
================
116
 xtb: 6.5.1 (b24c23e)
Zn          14.03128698033996       -0.05338099792585       -0.00428220090879
C           10.62001548460690       -0.07236474224859       -0.02733077088677
C           11.24695077390629       -1.31088514979158       -0.09458444326066
C           10.56966104964156       -2.57676973933359       -0.13770208563401
C           11.52611664270530       -3.53771596130013       -0.18055254980198
C           12.80084292850299       -2.86975704968770       -0.17251944363844
N           12.59579998620008       -1.52202685391864       -0.11391881664097
C           14.04963438541465       -3.50241571487431       -0.18943335753184
C           15.29077223288566       -2.85888614452499       -0.13884303540619
C           16.56831225372018       -3.51327981195274       -0.20233831788452
C           17.51770937893949       -2.54482943731567       -0.14079316828352
N           15.48865238385357       -1.50653901727934       -0.05192642125327
C           16.83119312997882       -1.29002729986231       -0.04716896932186
C           17.46509788048793       -0.03328868257240        0.02197825954425
C           16.81475370425487        1.21569618763648        0.08327259090181
C           17.48587197497808        2.48157858156980        0.12145604192522
C           16.52481028113599        3.43951309770113        0.16375621014805
C           15.25555247971879        2.76661933586235        0.16004759138136
C           14.00693279380314        3.39670387857486        0.18218955239508
C           13.99684617466825        4.87966141167907        0.26189726292091
C           13.45374668776872        5.63952255198215       -0.77491808766254
C           13.44680689601033        7.02440947142985       -0.70069564668406
C           13.97648527683896        7.66651169069644        0.41036328485235
C           14.51679722508916        6.91753069739544        1.44716354428740
C           14.52993901574214        5.53269634244378        1.37398220537064
C           12.76577560304630        2.75082176576484        0.13537703438106
C           11.48320189825590        3.39991453141460        0.20301068274078
C           10.53837046541439        2.42840337736339        0.14145778221292
C           11.23100449687422        1.17398202048890        0.04405600622641
N           12.57706509354886        1.40244212437216        0.04676615084879
N           15.46989175594172        1.41504326457310        0.10329665386673
C           14.05716433656608       -4.98567686916222       -0.26483368548815
C           13.52814652018183       -5.64110902183711       -1.37737887005547
C           13.53671660945395       -7.02629201182357       -1.44512614904808
C           14.06755895847750       -7.77321802947956       -0.40224326168760
C           14.59448802222838       -7.12868282836843        0.70870375595216
C           14.59227481977572       -5.74356355469554        0.77753316107529
H            9.53437737540608       -0.07985937794418       -0.02019219323544
H            9.49810085621806       -2.70211231039109       -0.12856100405871
H           11.38645999543719       -4.60676231451867       -0.20371808791803
H           16.71760982168433       -4.57700934159087       -0.29544352647901
H           18.58961849312615       -2.66127674036112       -0.16329153715286
H           18.55615834492298        2.61331922511910        0.11036630422154
H           16.66155376497530        4.50879365933274        0.18314602121325
H           13.05067836762250        5.13962410057140       -1.64874787976674
H           13.02661656608494        7.60494401752754       -1.51468190116470
H           13.96851523643553        8.74913771525553        0.46799039535362
H           14.92960788914516        7.41428953426365        2.31826310453015
H           14.94195816410674        4.94867774432171        2.18955792476106
H           11.33075202032571        4.46315492037008        0.29806421632845
H            9.46541190095100        2.53919194217716        0.16580580868071
H           13.12377263427867       -5.05889411839526       -2.19810938833080
H           13.12724868250276       -7.52488954993388       -2.31677848918676
H           14.07138623687061       -8.85606343001645       -0.45538486683633
H           15.00788789191904       -7.70756836421660        1.52714032445601
H           14.99362959063508       -5.24168766241251        1.65101443764393
Zn          27.50361853258854        0.05425124569312       -0.00123780525064
C           30.91491150630009        0.07393046889085       -0.02374427327014
C           30.28795041068713        1.31426301679687       -0.03273140525328
C           30.96529852616325        2.58072537086481       -0.01569150939426
C           30.00891401470562        3.54270499359899       -0.01606331538980
C           28.73415185962748        2.87522990270184       -0.04204166887304
N           28.93913705775931        1.52620492202606       -0.04458938355205
C           27.48528948800170        3.50812343991731       -0.03520261931533
C           26.24405588986021        2.86291686978592       -0.01644407475339
C           24.96650897970821        3.51915206300252       -0.05637562704379
C           24.01719420061385        2.54884186844931       -0.03711487925937
N           26.04623895550985        1.50806841356325        0.01340468441870
C           24.70374916304074        1.29134701758978        0.00643260328967
C           24.06974837752782        0.03284731963770        0.02422736278527
C           24.71996305660810       -1.21760405554497        0.03468349967505
C           24.04890455507746       -2.48413138166546        0.02370455578694
C           25.01010943562800       -3.44283960553525        0.02456835694920
C           26.27932423093574       -2.77011345379451        0.04399365522490
C           27.52786142769394       -3.40045136595695        0.03431286257932
C           27.53773782927068       -4.88567154291312        0.04974680293390
C           28.06685915442378       -5.60015527194667       -1.02570847302074
C           28.07287952324527       -6.98698041028802       -1.01152141026907
C           27.55678971156276       -7.67610874569439        0.07756516205588
C           27.03082659376786       -6.97232149148883        1.15271241042252
C           27.01803639966499       -5.58561685823996        1.13934162092655
C           28.76894389630331       -2.75341503412366        0.01122162148425
C           30.05143047031943       -3.40528883262570        0.04415535911759
C           30.99639562100217       -2.43215377739947        0.02556780443735
C           30.30390967216081       -1.17436645244956       -0.01084507099033
N           28.95780586801181       -1.40242411251286       -0.01558477202420
N           26.06490923829658       -1.41736949897204        0.04318274249576
C           27.47792590811333        4.99315232071332       -0.04697671015828
C           28.01565067848660        5.69538728505938       -1.12632348456286
C           28.00764763755080        7.08218100732063       -1.13500271903508
C           27.46840583307377        7.78412708846142       -0.06560328452405
C           26.93243586017287        7.09294258966774        1.01245542054256
C           26.93435815044825        5.70614571484518        1.02233511945724
H           32.00055463389253        0.08113184864556       -0.01664246044896
H           32.03683067123299        2.70545503373282        0.00164689570418
H           30.14873133234753        4.61164226883680        0.01098870689605
H           24.81694541842915        4.58575949134296       -0.10623271579769
H           22.94533866578886        2.66608999665110       -0.05763699165998
H           22.97856030377074       -2.61536401487966        0.01043711389954
H           24.87376725108616       -4.51208809307929        0.00180754404353
H           28.45980864347294       -5.06314027357659       -1.88191807374922
H           28.48178748796161       -7.53208884889800       -1.85515383710348
H           27.56418370593912       -8.76020432876730        0.08830564307474
H           26.62869191148679       -7.50599557614068        2.00676521459982
H           26.61660593013204       -5.03697696614864        1.98417838374584
H           30.20349201977797       -4.47192285467126        0.08807700027689
H           32.06937493480354       -2.54410741719905        0.04142492022582
H           28.42668135002515        5.14861199788904       -1.96796348707302
H           28.42463812826264        7.61735132652840       -1.98119912433663
H           27.46507316781504        8.86825604097908       -0.07254978618907
H           26.51216969004798        7.63654073548851        1.85130702453998
H           26.52603127846769        5.16770766950420        1.87049971288604
C           20.09271121188642       -0.00658423096235        0.02111831991747
C           18.87069471597982       -0.02229421240731        0.01891388714248
C           21.44208064109448        0.00679063551223        0.02157516903041
C           22.66414577877188        0.02213768202990        0.02191062872130

 Bond Distances (Angstroems)
 ---------------------------
Zn1-N7=2.0566        Zn1-N12=2.0586       Zn1-N30=2.0583       Zn1-N31=2.0585       C2-C3=1.3898         C2-C29=1.3899        
C2-H38=1.0857        C3-C2=1.3898         C3-C4=1.4363         C3-N7=1.3654         C4-C3=1.4363         C4-C5=1.3565         
C4-H39=1.0789        C5-C4=1.3565         C5-C6=1.4392         C5-H40=1.0784        C6-C5=1.4392         C6-N7=1.3645         
C6-C8=1.4000         N7-Zn1=2.0566        N7-C3=1.3654         N7-C6=1.3645         C8-C6=1.4000         C8-C9=1.3990         
C8-C32=1.4852        C9-C8=1.3990         C9-C10=1.4368        C9-N12=1.3695        C10-C9=1.4368        C10-C11=1.3576       
C10-H41=1.0782       C11-C10=1.3576       C11-C13=1.4334       C11-H42=1.0785       N12-Zn1=2.0586       N12-C9=1.3695        
N12-C13=1.3599       C13-C11=1.4334       C13-N12=1.3599       C13-C14=1.4093       C14-C13=1.4093       C14-C15=1.4095       
C14-C114=1.4056      C15-C14=1.4095       C15-C16=1.4333       C15-N31=1.3597       C16-C15=1.4333       C16-C17=1.3576       
C16-H43=1.0784       C17-C16=1.3576       C17-C18=1.4366       C17-H44=1.0782       C18-C17=1.4366       C18-C19=1.3988       
C18-N31=1.3696       C19-C18=1.3988       C19-C20=1.4851       C19-C26=1.3999       C20-C19=1.4851       C20-C21=1.3955       
C20-C25=1.3955       C21-C20=1.3955       C21-C22=1.3869       C21-H45=1.0844       C22-C21=1.3869       C22-C23=1.3883       
C22-H46=1.0845       C23-C22=1.3883       C23-C24=1.3885       C23-H47=1.0842       C24-C23=1.3885       C24-C25=1.3868       
C24-H48=1.0844       C25-C20=1.3955       C25-C24=1.3868       C25-H49=1.0844       C26-C19=1.3999       C26-C27=1.4391       
C26-N30=1.3644       C27-C26=1.4391       C27-C28=1.3566       C27-H50=1.0783       C28-C27=1.3566       C28-C29=1.4362       
C28-H51=1.0789       C29-C2=1.3899        C29-C28=1.4362       C29-N30=1.3653       N30-Zn1=2.0583       N30-C26=1.3644       
N30-C29=1.3653       N31-Zn1=2.0585       N31-C15=1.3597       N31-C18=1.3696       C32-C8=1.4852        C32-C33=1.3954       
C32-C37=1.3954       C33-C32=1.3954       C33-C34=1.3869       C33-H52=1.0845       C34-C33=1.3869       C34-C35=1.3883       
C34-H53=1.0845       C35-C34=1.3883       C35-C36=1.3883       C35-H54=1.0842       C36-C35=1.3883       C36-C37=1.3868       
C36-H55=1.0844       C37-C32=1.3954       C37-C36=1.3868       C37-H56=1.0844       H38-C2=1.0857        H39-C4=1.0789        
H40-C5=1.0784        H41-C10=1.0782       H42-C11=1.0785       H43-C16=1.0784       H44-C17=1.0782       H45-C21=1.0844       
H46-C22=1.0845       H47-C23=1.0842       H48-C24=1.0844       H49-C25=1.0844       H50-C27=1.0783       H51-C28=1.0789       
H52-C33=1.0845       H53-C34=1.0845       H54-C35=1.0842       H55-C36=1.0844       H56-C37=1.0844       Zn57-N63=2.0565      
Zn57-N68=2.0586      Zn57-N86=2.0583      Zn57-N87=2.0585      C58-C59=1.3898       C58-C85=1.3899       C58-H94=1.0857       
C59-C58=1.3898       C59-C60=1.4363       C59-N63=1.3654       C60-C59=1.4363       C60-C61=1.3565       C60-H95=1.0789       
C61-C60=1.3565       C61-C62=1.4392       C61-H96=1.0784       C62-C61=1.4392       C62-N63=1.3645       C62-C64=1.4001       
N63-Zn57=2.0565      N63-C59=1.3654       N63-C62=1.3645       C64-C62=1.4001       C64-C65=1.3990       C64-C88=1.4851       
C65-C64=1.3990       C65-C66=1.4368       C65-N68=1.3695       C66-C65=1.4368       C66-C67=1.3576       C66-H97=1.0782       
C67-C66=1.3576       C67-C69=1.4334       C67-H98=1.0784       N68-Zn57=2.0586      N68-C65=1.3695       N68-C69=1.3599       
C69-C67=1.4334       C69-N68=1.3599       C69-C70=1.4093       C70-C69=1.4093       C70-C71=1.4094       C70-C116=1.4056      
C71-C70=1.4094       C71-C72=1.4334       C71-N87=1.3597       C72-C71=1.4334       C72-C73=1.3576       C72-H99=1.0784       
C73-C72=1.3576       C73-C74=1.4366       C73-H100=1.0781      C74-C73=1.4366       C74-C75=1.3987       C74-N87=1.3696       
C75-C74=1.3987       C75-C76=1.4853       C75-C82=1.3998       C76-C75=1.4853       C76-C77=1.3954       C76-C81=1.3954       
C77-C76=1.3954       C77-C78=1.3869       C77-H101=1.0844      C78-C77=1.3869       C78-C79=1.3883       C78-H102=1.0845      
C79-C78=1.3883       C79-C80=1.3885       C79-H103=1.0842      C80-C79=1.3885       C80-C81=1.3868       C80-H104=1.0844      
C81-C76=1.3954       C81-C80=1.3868       C81-H105=1.0844      C82-C75=1.3998       C82-C83=1.4390       C82-N86=1.3644       
C83-C82=1.4390       C83-C84=1.3566       C83-H106=1.0783      C84-C83=1.3566       C84-C85=1.4363       C84-H107=1.0789      
C85-C58=1.3899       C85-C84=1.4363       C85-N86=1.3653       N86-Zn57=2.0583      N86-C82=1.3644       N86-C85=1.3653       
N87-Zn57=2.0585      N87-C71=1.3597       N87-C74=1.3696       C88-C64=1.4851       C88-C89=1.3954       C88-C93=1.3954       
C89-C88=1.3954       C89-C90=1.3868       C89-H108=1.0846      C90-C89=1.3868       C90-C91=1.3882       C90-H109=1.0846      
C91-C90=1.3882       C91-C92=1.3882       C91-H110=1.0842      C92-C91=1.3882       C92-C93=1.3868       C92-H111=1.0843      
C93-C88=1.3954       C93-C92=1.3868       C93-H112=1.0844      H94-C58=1.0857       H95-C60=1.0789       H96-C61=1.0784       
H97-C66=1.0782       H98-C67=1.0784       H99-C72=1.0784       H100-C73=1.0781      H101-C77=1.0844      H102-C78=1.0845      
H103-C79=1.0842      H104-C80=1.0844      H105-C81=1.0844      H106-C83=1.0783      H107-C84=1.0789      H108-C89=1.0846      
H109-C90=1.0846      H110-C91=1.0842      H111-C92=1.0843      H112-C93=1.0844      C113-C114=1.2221     C113-C115=1.3494     
C114-C14=1.4056      C114-C113=1.2221     C115-C113=1.3494     C115-C116=1.2222     C116-C70=1.4056      C116-C115=1.2222     
 C  H  Rav=1.0820 sigma=0.0030  Rmin=1.0781  Rmax=1.0857    38
 C  C  Rav=1.3992 sigma=0.0429  Rmin=1.2221  Rmax=1.4853    73
 N  C  Rav=1.3648 sigma=0.0035  Rmin=1.3597  Rmax=1.3696    16
 Zn N  Rav=2.0580 sigma=0.0008  Rmin=2.0565  Rmax=2.0586     8

 selected bond angles (degree)
 --------------------
N12-Zn1-N7= 89.36              N30-Zn1-N7= 90.76              N30-Zn1-N12=179.85             N31-Zn1-N7=179.91              
N31-Zn1-N12= 90.57             N31-Zn1-N30= 89.31             C29-C2-C3=127.11               H38-C2-C3=116.44               
H38-C2-C29=116.45              C4-C3-C2=125.04                N7-C3-C2=125.74                N7-C3-C4=109.21                
C5-C4-C3=107.03                H39-C4-C3=124.78               H39-C4-C5=128.19               C6-C5-C4=107.19                
H40-C5-C4=127.71               H40-C5-C6=125.10               N7-C6-C5=109.00                C8-C6-C5=125.47                
C8-C6-N7=125.51                C3-N7-Zn1=125.33               C6-N7-Zn1=127.07               C6-N7-C3=107.57                
C9-C8-C6=125.66                C32-C8-C6=117.16               C32-C8-C9=117.18               C10-C9-C8=125.29               
N12-C9-C8=125.78               N12-C9-C10=108.91              C11-C10-C9=107.15              H41-C10-C9=125.19              
H41-C10-C11=127.65             

 selected dihedral angles (degree)
 ---------------------------------
C4-C3-C2-C29=178.56           C4-C3-C2-H38=359.20           N7-C3-C2-C29=359.40           N7-C3-C2-H38=180.04           
C5-C4-C3-C2=180.81            C5-C4-C3-N7=  0.09            H39-C4-C3-C2=  0.39           H39-C4-C3-N7=179.67           
C6-C5-C4-C3=359.65            C6-C5-C4-H39=180.09           H40-C5-C4-C3=178.91           H40-C5-C4-H39=359.35          
N7-C6-C5-C4=  0.50            N7-C6-C5-H40=181.21           C8-C6-C5-C4=179.08            C8-C6-C5-H40=359.80           
C3-N7-Zn1-N12=178.13          C3-N7-Zn1-N30=358.22          C3-N7-Zn1-N31=219.04          C6-N7-Zn1-N12=  0.52          
C6-N7-Zn1-N30=180.61          C6-N7-Zn1-N31= 41.43          Zn1-N7-C3-C2=  1.49           Zn1-N7-C3-C4=182.22           
C6-N7-C3-C2=179.49            C6-N7-C3-C4=  0.22            Zn1-N7-C6-C5=177.52           Zn1-N7-C6-C8=358.94           
C3-N7-C6-C5=359.56            C3-N7-C6-C8=180.98            C9-C8-C6-C5=182.16            C9-C8-C6-N7=  0.52            
C32-C8-C6-C5=  2.03           C32-C8-C6-N7=180.39           C10-C9-C8-C6=182.24           C10-C9-C8-C32=  2.37          
N12-C9-C8-C6=  0.65           N12-C9-C8-C32=180.78          C11-C10-C9-C8=179.17          C11-C10-C9-N12=  0.52         
H41-C10-C9-C8=359.94          H41-C10-C9-N12=181.30         
           -------------------------------------------------
          |                Final Singlepoint                |
           -------------------------------------------------

          ...................................................
          :                      SETUP                      :
          :.................................................:
          :  # basis functions                 388          :
          :  # atomic orbitals                 388          :
          :  # shells                          232          :
          :  # electrons                       354          :
          :  # halogen bonds                     0          :
          :  max. iterations                   250          :
          :  Hamiltonian                  GFN1-xTB          :
          :  restarted?                      false          :
          :  GBSA solvation                  false          :
          :  PC potential                    false          :
          :  electronic temp.          300.0000000     K    :
          :  accuracy                    1.0000000          :
          :  -> integral cutoff          0.2500000E+02      :
          :  -> integral neglect         0.1000000E-07      :
          :  -> SCF convergence          0.1000000E-05 Eh   :
          :  -> wf. convergence          0.2000000E-04 e    :
          :  Broyden damping             0.4000000          :
          ...................................................

 iter      E             dE          RMSdq      gap      omega  full diag
   1   -194.4140096 -0.194414E+03  0.140E-05    1.09       0.0  T
   2   -194.4140096  0.217710E-10  0.138E-05    1.09     671.5  T
   3   -194.4140096 -0.846399E-10  0.307E-06    1.09    3022.6  T

   *** convergence criteria satisfied after 3 iterations ***

         #    Occupation            Energy/Eh            Energy/eV
      -------------------------------------------------------------
         1        2.0000           -0.7573459             -20.6084
       ...           ...                  ...                  ...
       171        2.0000           -0.4183612             -11.3842
       172        2.0000           -0.4169334             -11.3453
       173        2.0000           -0.4155402             -11.3074
       174        2.0000           -0.3909724             -10.6389
       175        2.0000           -0.3909718             -10.6389
       176        2.0000           -0.3860981             -10.5063
       177        2.0000           -0.3737012             -10.1689 (HOMO)
       178                         -0.3336595              -9.0793 (LUMO)
       179                         -0.3235530              -8.8043
       180                         -0.3235418              -8.8040
       181                         -0.3197536              -8.7009
       182                         -0.2932912              -7.9809
       ...                                ...                  ...
       388                          1.5232303              41.4492
      -------------------------------------------------------------
                  HL-Gap            0.0400416 Eh            1.0896 eV
             Fermi-level           -0.3536804 Eh           -9.6241 eV

 SCC (total)                   0 d,  0 h,  0 min,  0.494 sec
 SCC setup                      ...        0 min,  0.004 sec (  0.863%)
 Dispersion                     ...        0 min,  0.003 sec (  0.612%)
 classical contributions        ...        0 min,  0.001 sec (  0.229%)
 integral evaluation            ...        0 min,  0.111 sec ( 22.504%)
 iterations                     ...        0 min,  0.118 sec ( 23.886%)
 molecular gradient             ...        0 min,  0.248 sec ( 50.194%)
 printout                       ...        0 min,  0.008 sec (  1.704%)

         :::::::::::::::::::::::::::::::::::::::::::::::::::::
         ::                     SUMMARY                     ::
         :::::::::::::::::::::::::::::::::::::::::::::::::::::
         :: total energy            -191.230702175071 Eh    ::
         :: gradient norm              0.000740627695 Eh/a0 ::
         :: HOMO-LUMO gap              1.089588698898 eV    ::
         ::.................................................::
         :: SCC energy              -194.414009612591 Eh    ::
         :: -> electrostatic           0.130217868835 Eh    ::
         :: repulsion energy           3.286652661280 Eh    ::
         :: dispersion energy         -0.103345223760 Eh    ::
         :: halogen bond corr.         0.000000000000 Eh    ::
         :: add. restraining           0.000000000000 Eh    ::
         :: total charge              -0.000000000000 e     ::
         :::::::::::::::::::::::::::::::::::::::::::::::::::::

           -------------------------------------------------
          |                Property Printout                |
           -------------------------------------------------

[...]
 ---------------------------------------------------------------------------
     1  30 Zn   1.998 --     7 N    0.460    30 N    0.459    31 N    0.457
                            12 N    0.457
     2   6 C    3.927 --     3 C    1.357    29 C    1.357    38 H    0.971
     3   6 C    3.922 --     2 C    1.357     7 N    1.233     4 C    1.171
     4   6 C    3.960 --     5 C    1.658     3 C    1.171    39 H    0.976
     5   6 C    3.963 --     4 C    1.658     6 C    1.172    40 H    0.973
     6   6 C    3.918 --     8 C    1.315     7 N    1.243     5 C    1.172
     7   7 N    3.294 --     6 C    1.243     3 C    1.233     1 Zn   0.460
     8   6 C    3.933 --     9 C    1.324     6 C    1.315    32 C    1.026
     9   6 C    3.913 --     8 C    1.324    12 N    1.225    10 C    1.179
    10   6 C    3.960 --    11 C    1.646     9 C    1.179    41 H    0.973
    11   6 C    3.962 --    10 C    1.646    13 C    1.187    42 H    0.974
    12   7 N    3.297 --    13 C    1.263     9 C    1.225     1 Zn   0.457
    13   6 C    3.903 --    12 N    1.263    14 C    1.254    11 C    1.187
    14   6 C    3.938 --    13 C    1.254    15 C    1.254   114 C    1.190
    15   6 C    3.903 --    31 N    1.263    14 C    1.254    16 C    1.187
    16   6 C    3.962 --    17 C    1.645    15 C    1.187    43 H    0.974
    17   6 C    3.960 --    16 C    1.645    18 C    1.180    44 H    0.973
    18   6 C    3.913 --    19 C    1.324    31 N    1.225    17 C    1.180
    19   6 C    3.933 --    18 C    1.324    26 C    1.315    20 C    1.026
    20   6 C    3.988 --    21 C    1.396    25 C    1.396    19 C    1.026
                            23 C    0.108
    21   6 C    3.988 --    22 C    1.447    20 C    1.396    45 H    0.973
                            24 C    0.110
    22   6 C    3.995 --    21 C    1.447    23 C    1.438    46 H    0.973
                            25 C    0.110
    23   6 C    3.990 --    22 C    1.438    24 C    1.437    47 H    0.974
                            20 C    0.108
    24   6 C    3.995 --    25 C    1.447    23 C    1.437    48 H    0.973
                            21 C    0.110
    25   6 C    3.988 --    24 C    1.447    20 C    1.396    49 H    0.973
                            22 C    0.110
    26   6 C    3.918 --    19 C    1.315    30 N    1.244    27 C    1.172
    27   6 C    3.963 --    28 C    1.658    26 C    1.172    50 H    0.973
    28   6 C    3.960 --    27 C    1.658    29 C    1.171    51 H    0.976
    29   6 C    3.922 --     2 C    1.357    30 N    1.234    28 C    1.171
    30   7 N    3.293 --    26 C    1.244    29 C    1.234     1 Zn   0.459
    31   7 N    3.298 --    15 C    1.263    18 C    1.225     1 Zn   0.457
    32   6 C    3.988 --    33 C    1.396    37 C    1.396     8 C    1.026
                            35 C    0.108
    33   6 C    3.988 --    34 C    1.447    32 C    1.396    52 H    0.973
                            36 C    0.110
    34   6 C    3.995 --    33 C    1.447    35 C    1.438    53 H    0.973
                            37 C    0.110
    35   6 C    3.990 --    34 C    1.438    36 C    1.438    54 H    0.974
                            32 C    0.108
    36   6 C    3.995 --    37 C    1.447    35 C    1.438    55 H    0.973
                            33 C    0.110
    37   6 C    3.988 --    36 C    1.447    32 C    1.396    56 H    0.973
                            34 C    0.110
    38   1 H    1.002 --     2 C    0.971
    39   1 H    0.998 --     4 C    0.976
    40   1 H    1.005 --     5 C    0.973
    41   1 H    1.005 --    10 C    0.973
    42   1 H    1.003 --    11 C    0.974
    43   1 H    1.003 --    16 C    0.974
    44   1 H    1.005 --    17 C    0.973
    45   1 H    1.005 --    21 C    0.973
    46   1 H    1.003 --    22 C    0.973
    47   1 H    1.003 --    23 C    0.974
    48   1 H    1.003 --    24 C    0.973
    49   1 H    1.005 --    25 C    0.973
    50   1 H    1.005 --    27 C    0.973
    51   1 H    0.998 --    28 C    0.976
    52   1 H    1.005 --    33 C    0.973
    53   1 H    1.003 --    34 C    0.973
    54   1 H    1.003 --    35 C    0.974
    55   1 H    1.003 --    36 C    0.973
    56   1 H    1.005 --    37 C    0.973
    57  30 Zn   1.998 --    63 N    0.460    86 N    0.459    87 N    0.457
                            68 N    0.457
    58   6 C    3.927 --    59 C    1.357    85 C    1.357    94 H    0.971
    59   6 C    3.922 --    58 C    1.357    63 N    1.233    60 C    1.171
    60   6 C    3.960 --    61 C    1.658    59 C    1.171    95 H    0.976
    61   6 C    3.963 --    60 C    1.658    62 C    1.172    96 H    0.973
    62   6 C    3.918 --    64 C    1.315    63 N    1.244    61 C    1.172
    63   7 N    3.294 --    62 C    1.244    59 C    1.233    57 Zn   0.460
    64   6 C    3.933 --    65 C    1.324    62 C    1.315    88 C    1.026
    65   6 C    3.913 --    64 C    1.324    68 N    1.225    66 C    1.179
    66   6 C    3.960 --    67 C    1.646    65 C    1.179    97 H    0.973
    67   6 C    3.962 --    66 C    1.646    69 C    1.187    98 H    0.974
    68   7 N    3.297 --    69 C    1.263    65 C    1.225    57 Zn   0.457
    69   6 C    3.903 --    68 N    1.263    70 C    1.254    67 C    1.187
    70   6 C    3.938 --    69 C    1.254    71 C    1.254   116 C    1.190
    71   6 C    3.903 --    87 N    1.263    70 C    1.254    72 C    1.187
    72   6 C    3.962 --    73 C    1.646    71 C    1.187    99 H    0.974
    73   6 C    3.960 --    72 C    1.646    74 C    1.179   100 H    0.973
    74   6 C    3.913 --    75 C    1.324    87 N    1.224    73 C    1.179
    75   6 C    3.933 --    74 C    1.324    82 C    1.315    76 C    1.025
    76   6 C    3.988 --    77 C    1.396    81 C    1.396    75 C    1.025
                            79 C    0.108
    77   6 C    3.988 --    78 C    1.447    76 C    1.396   101 H    0.973
                            80 C    0.110
    78   6 C    3.995 --    77 C    1.447    79 C    1.438   102 H    0.973
                            81 C    0.110
    79   6 C    3.990 --    78 C    1.438    80 C    1.438   103 H    0.974
                            76 C    0.108
    80   6 C    3.995 --    81 C    1.447    79 C    1.438   104 H    0.973
                            77 C    0.110
    81   6 C    3.988 --    80 C    1.447    76 C    1.396   105 H    0.973
                            78 C    0.110
    82   6 C    3.918 --    75 C    1.315    86 N    1.244    83 C    1.172
    83   6 C    3.963 --    84 C    1.658    82 C    1.172   106 H    0.973
    84   6 C    3.960 --    83 C    1.658    85 C    1.171   107 H    0.976
    85   6 C    3.922 --    58 C    1.357    86 N    1.234    84 C    1.171
    86   7 N    3.293 --    82 C    1.244    85 C    1.234    57 Zn   0.459
    87   7 N    3.297 --    71 C    1.263    74 C    1.224    57 Zn   0.457
    88   6 C    3.988 --    89 C    1.396    93 C    1.396    64 C    1.026
                            91 C    0.108
    89   6 C    3.988 --    90 C    1.447    88 C    1.396   108 H    0.973
                            92 C    0.110
    90   6 C    3.995 --    89 C    1.447    91 C    1.438   109 H    0.973
                            93 C    0.110
    91   6 C    3.990 --    90 C    1.438    92 C    1.438   110 H    0.974
                            88 C    0.108
    92   6 C    3.995 --    93 C    1.447    91 C    1.438   111 H    0.973
                            89 C    0.110
    93   6 C    3.988 --    92 C    1.447    88 C    1.396   112 H    0.973
                            90 C    0.110
    94   1 H    1.002 --    58 C    0.971
    95   1 H    0.998 --    60 C    0.976
    96   1 H    1.005 --    61 C    0.973
    97   1 H    1.005 --    66 C    0.973
    98   1 H    1.003 --    67 C    0.974
    99   1 H    1.003 --    72 C    0.974
   100   1 H    1.005 --    73 C    0.973
   101   1 H    1.005 --    77 C    0.973
   102   1 H    1.003 --    78 C    0.973
   103   1 H    1.003 --    79 C    0.974
   104   1 H    1.003 --    80 C    0.973
   105   1 H    1.005 --    81 C    0.973
   106   1 H    1.005 --    83 C    0.973
   107   1 H    0.998 --    84 C    0.976
   108   1 H    1.005 --    89 C    0.973
   109   1 H    1.003 --    90 C    0.973
   110   1 H    1.003 --    91 C    0.974
   111   1 H    1.003 --    92 C    0.973
   112   1 H    1.005 --    93 C    0.973
   113   6 C    3.934 --   114 C    2.475   115 C    1.309
   114   6 C    3.925 --   113 C    2.475    14 C    1.190   116 C    0.199
   115   6 C    3.934 --   116 C    2.475   113 C    1.309
   116   6 C    3.925 --   115 C    2.475    70 C    1.190   114 C    0.199
 ---------------------------------------------------------------------------

Topologies differ in total number of bonds
Writing topology from bond orders to xtbtopo.mol

 dipole moment from electron density (au)
     X       Y       Z   
   0.0001  -0.0014   0.0084  total (Debye):    0.022

           -------------------------------------------------
          |                Geometry Summary                 |
           -------------------------------------------------

      molecular mass/u    :     1097.8409804
   center of mass at/Å    :       20.7674132       0.0003428      -0.0000127
  moments of inertia/u·Å² :        0.1684689E+05   0.5199245E+05   0.6824101E+05
rotational constants/cm⁻¹ :        0.1000638E-02   0.3242323E-03   0.2470308E-03

 * 120 selected distances

     #   Z          #   Z                                           value/Å
     2   6 C        3   6 C                                       1.3897856
     3   6 C        4   6 C                                       1.4363303
     4   6 C        5   6 C                                       1.3564886
     5   6 C        6   6 C                                       1.4391529
     3   6 C        7   7 N                                       1.3654117
     6   6 C        7   7 N                                       1.3644976
     6   6 C        8   6 C                                       1.4000084
     8   6 C        9   6 C                                       1.3989686
     9   6 C       10   6 C                                       1.4367921
    10   6 C       11   6 C                                       1.3575858
     9   6 C       12   7 N                                       1.3695087
    11   6 C       13   6 C                                       1.4333872
    12   7 N       13   6 C                                       1.3598956
    13   6 C       14   6 C                                       1.4092583
    14   6 C       15   6 C                                       1.4094921
    15   6 C       16   6 C                                       1.4332886
    16   6 C       17   6 C                                       1.3575963
    17   6 C       18   6 C                                       1.4365986
    18   6 C       19   6 C                                       1.3987667
    20   6 C       21   6 C                                       1.3954685
    21   6 C       22   6 C                                       1.3868919
    22   6 C       23   6 C                                       1.3882747
    23   6 C       24   6 C                                       1.3884757
    20   6 C       25   6 C                                       1.3954841
    24   6 C       25   6 C                                       1.3868290
    19   6 C       26   6 C                                       1.3999381
    26   6 C       27   6 C                                       1.4390592
    27   6 C       28   6 C                                       1.3565874
     2   6 C       29   6 C                                       1.3898864
    28   6 C       29   6 C                                       1.4362459
    26   6 C       30   7 N                                       1.3644015
    29   6 C       30   7 N                                       1.3653135
    15   6 C       31   7 N                                       1.3597037
    18   6 C       31   7 N                                       1.3696424
    32   6 C       33   6 C                                       1.3954241
    33   6 C       34   6 C                                       1.3868653
    34   6 C       35   6 C                                       1.3882713
    35   6 C       36   6 C                                       1.3882664
    32   6 C       37   6 C                                       1.3954442
    36   6 C       37   6 C                                       1.3868303
     2   6 C       38   1 H                                       1.0856875
     4   6 C       39   1 H                                       1.0789049
     5   6 C       40   1 H                                       1.0783788
    10   6 C       41   1 H                                       1.0781832
    11   6 C       42   1 H                                       1.0784505
    16   6 C       43   1 H                                       1.0784209
    17   6 C       44   1 H                                       1.0781632
    21   6 C       45   1 H                                       1.0844083
    22   6 C       46   1 H                                       1.0845064
    23   6 C       47   1 H                                       1.0841881
    24   6 C       48   1 H                                       1.0844338
    25   6 C       49   1 H                                       1.0844360
    27   6 C       50   1 H                                       1.0783119
    28   6 C       51   1 H                                       1.0789380
    33   6 C       52   1 H                                       1.0844774
    34   6 C       53   1 H                                       1.0844545
    35   6 C       54   1 H                                       1.0841555
    36   6 C       55   1 H                                       1.0843646
    37   6 C       56   1 H                                       1.0844053
    58   6 C       59   6 C                                       1.3898152
    59   6 C       60   6 C                                       1.4363210
    60   6 C       61   6 C                                       1.3564942
    61   6 C       62   6 C                                       1.4391723 (max)
    59   6 C       63   7 N                                       1.3654149
    62   6 C       63   7 N                                       1.3645124
    62   6 C       64   6 C                                       1.4000924
    64   6 C       65   6 C                                       1.3990370
    65   6 C       66   6 C                                       1.4367901
    66   6 C       67   6 C                                       1.3575978
    65   6 C       68   7 N                                       1.3695390
    67   6 C       69   6 C                                       1.4333694
    68   7 N       69   6 C                                       1.3598882
    69   6 C       70   6 C                                       1.4092890
    70   6 C       71   6 C                                       1.4094387
    71   6 C       72   6 C                                       1.4333638
    72   6 C       73   6 C                                       1.3575851
    73   6 C       74   6 C                                       1.4366086
    74   6 C       75   6 C                                       1.3986655
    76   6 C       77   6 C                                       1.3953712
    77   6 C       78   6 C                                       1.3869109
    78   6 C       79   6 C                                       1.3882926
    79   6 C       80   6 C                                       1.3884868
    76   6 C       81   6 C                                       1.3954319
    80   6 C       81   6 C                                       1.3868282
    75   6 C       82   6 C                                       1.3998126
    82   6 C       83   6 C                                       1.4390262
    83   6 C       84   6 C                                       1.3565754
    58   6 C       85   6 C                                       1.3898688
    84   6 C       85   6 C                                       1.4362771
    82   6 C       86   7 N                                       1.3643915
    85   6 C       86   7 N                                       1.3652943
    71   6 C       87   7 N                                       1.3597276
    74   6 C       87   7 N                                       1.3696317
    88   6 C       89   6 C                                       1.3954468
    89   6 C       90   6 C                                       1.3868441
    90   6 C       91   6 C                                       1.3882095
    91   6 C       92   6 C                                       1.3882402
    88   6 C       93   6 C                                       1.3954403
    92   6 C       93   6 C                                       1.3868335
    58   6 C       94   1 H                                       1.0856903
    60   6 C       95   1 H                                       1.0789066
    61   6 C       96   1 H                                       1.0783820
    66   6 C       97   1 H                                       1.0781960
    67   6 C       98   1 H                                       1.0784446
    72   6 C       99   1 H                                       1.0784410
    73   6 C      100   1 H                                       1.0781465 (min)
    77   6 C      101   1 H                                       1.0843844
    78   6 C      102   1 H                                       1.0844652
    79   6 C      103   1 H                                       1.0841741
    80   6 C      104   1 H                                       1.0844016
    81   6 C      105   1 H                                       1.0843899
    83   6 C      106   1 H                                       1.0783136
    84   6 C      107   1 H                                       1.0789207
    89   6 C      108   1 H                                       1.0845587
    90   6 C      109   1 H                                       1.0845907
    91   6 C      110   1 H                                       1.0841564
    92   6 C      111   1 H                                       1.0843407
    93   6 C      112   1 H                                       1.0844491
   113   6 C      114   6 C                                       1.2221196
   115   6 C      116   6 C                                       1.2221617

 * 3 distinct bonds (by element types)

   Z      Z             #   av. dist./Å        max./Å        min./Å
   1 H    6 C          38     1.0819637     1.0856903     1.0781465
   6 C    6 C          66     1.3945388     1.4391723     1.2221196
   6 C    7 N          16     1.3647984     1.3696424     1.3597037


optimized geometry written to: xtbopt.xyz


           -------------------------------------------------
          | TOTAL ENERGY             -191.230702175071 Eh   |
          | GRADIENT NORM               0.000740627695 Eh/α |
          | HOMO-LUMO GAP               1.089588698898 eV   |
           -------------------------------------------------

------------------------------------------------------------------------
 * finished run on 2022/07/30 at 11:22:12.805     
------------------------------------------------------------------------
 total:
 * wall-time:     0 d,  0 h,  0 min, 25.941 sec
 *  cpu-time:     0 d,  0 h,  0 min, 25.782 sec
 * ratio c/w:     0.994 speedup
 SCF:
 * wall-time:     0 d,  0 h,  0 min,  0.877 sec
 *  cpu-time:     0 d,  0 h,  0 min,  0.872 sec
 * ratio c/w:     0.994 speedup
 ANC optimizer:
 * wall-time:     0 d,  0 h,  0 min, 24.944 sec
 *  cpu-time:     0 d,  0 h,  0 min, 24.794 sec
 * ratio c/w:     0.994 speedup

