116
 energy: -190.984121644190 gnorm: 0.622746898208 xtb: 6.5.1 (b24c23e)
Zn          13.92092700000000        0.04870900000000        0.00435800000000
C           10.58436400000000       -0.10736100000000       -0.00605500000000
C           11.24847300000000       -1.25956500000000       -0.13388400000000
C           10.59879500000000       -2.55630600000000       -0.28427300000000
C           11.54062400000000       -3.48001900000000       -0.33166500000000
C           12.84545300000000       -2.81559800000000       -0.21219800000000
N           12.66716700000000       -1.40401900000000       -0.09176100000000
C           14.03565600000000       -3.44732400000000       -0.16701800000000
C           15.32928900000000       -2.73128700000000       -0.01655000000000
C           16.61983200000000       -3.40608500000000        0.16836200000000
C           17.55454800000000       -2.47960900000000        0.22615600000000
N           15.46990700000000       -1.44223200000000       -0.07651800000000
C           16.86941200000000       -1.20219600000000        0.07075500000000
C           17.46398600000000        0.00023300000000        0.00006600000000
C           16.70297200000000        1.25781600000000       -0.17884400000000
C           17.23994000000000        2.40288700000000       -0.58104900000000
C           16.19620500000000        3.40763800000000       -0.53899100000000
C           15.09018700000000        2.81119200000000       -0.10969700000000
C           13.80507900000000        3.51320600000000        0.14150600000000
C           13.82419900000000        4.98800700000000        0.29946600000000
C           13.16493500000000        5.81395900000000       -0.62678200000000
C           13.20363800000000        7.20407200000000       -0.48168400000000
C           13.90519300000000        7.77803200000000        0.58229100000000
C           14.57123600000000        6.96279800000000        1.50178900000000
C           14.53444200000000        5.57214500000000        1.36086600000000
C           12.64003100000000        2.84320300000000        0.23020800000000
C           11.32767200000000        3.42414000000000        0.50899200000000
C           10.46607900000000        2.42706800000000        0.45650800000000
C           11.21906100000000        1.21011900000000        0.15822500000000
N           12.48721200000000        1.44022700000000        0.02479200000000
N           15.31994600000000        1.42256600000000        0.13732600000000
C           14.07443700000000       -4.92223400000000       -0.25892500000000
C           13.97344900000000       -5.55438600000000       -1.50782100000000
C           14.01154100000000       -6.94963400000000       -1.59241300000000
C           14.15145700000000       -7.71816700000000       -0.43281300000000
C           14.25330500000000       -7.09258500000000        0.81343700000000
C           14.21492400000000       -5.69763400000000        0.90228900000000
H            9.50096300000000       -0.13596100000000       -0.00904400000000
H            9.53446900000000       -2.74602300000000       -0.33879700000000
H           11.35519100000000       -4.54188500000000       -0.42945000000000
H           16.79725100000000       -4.47093600000000        0.24046700000000
H           18.61321800000000       -2.66409300000000        0.35100700000000
H           18.26927999999999        2.57056900000000       -0.86821000000000
H           16.30905500000000        4.45428000000000       -0.79040900000000
H           12.62607600000000        5.38064800000000       -1.46046200000000
H           12.69236600000000        7.83651100000000       -1.19583800000000
H           13.93509300000000        8.85430100000000        0.69258500000000
H           15.11703700000000        7.40855900000000        2.32326100000000
H           15.05553100000000        4.95025100000000        2.07848500000000
H           11.08282700000000        4.45634900000000        0.72192900000000
H            9.39880300000000        2.50853600000000        0.61538300000000
H           13.86537400000000       -4.96683600000000       -2.41128100000000
H           13.93297700000000       -7.43509700000000       -2.55653600000000
H           14.18109500000000       -8.79798600000000       -0.49995100000000
H           14.36190200000000       -7.68859400000000        1.71029400000000
H           14.29456100000000       -5.22134900000000        1.87179900000000
Zn          27.61509400000000       -0.04838500000000        0.00224900000000
C           30.95165700000000        0.10799000000000       -0.00137700000000
C           30.28754800000000        1.26465800000000       -0.07905400000000
C           30.93722600000000        2.56670600000000       -0.17299600000000
C           29.99539700000000        3.49160600000000       -0.18023400000000
C           28.69056800000000        2.82262400000000       -0.08972900000000
N           28.86885400000000        1.40714700000000       -0.03070000000000
C           27.50036500000000        3.45179300000000       -0.01716100000000
C           26.20673200000000        2.72989700000000        0.10207300000000
C           24.91618900000000        3.39602900000000        0.31611200000000
C           23.98147300000000        2.46791800000000        0.33362200000000
N           26.06611400000000        1.44466200000000       -0.01381100000000
C           24.66660900000000        1.19845700000000        0.12290000000000
C           24.07203500000000        0.00023300000000        0.00006600000000
C           24.83304900000000       -1.24839600000000       -0.23328200000000
C           24.29608100000000       -2.37492300000000       -0.68482800000000
C           25.33981600000000       -3.38055200000000       -0.68643800000000
C           26.44583400000000       -2.80331000000000       -0.23165100000000
C           27.73094200000000       -3.51556900000000       -0.01116800000000
C           27.71182200000000       -4.99583800000000        0.08260600000000
C           28.37108600000000       -5.78079200000000       -0.87863300000000
C           28.33238300000000       -7.17589400000000       -0.79403400000000
C           27.63082800000000       -7.79551200000000        0.24401500000000
C           26.96478500000000       -7.02097300000000        1.19804500000000
C           27.00157900000000       -5.62551300000000        1.11764000000000
C           28.89599000000000       -2.85005000000000        0.10654400000000
C           30.20834900000000       -3.44254400000000        0.35983900000000
C           31.06994200000000       -2.44413300000000        0.35070000000000
C           30.31696000000000       -1.21538100000000        0.10554000000000
N           29.04880900000000       -1.43947700000000       -0.03775900000000
N           26.21607500000000       -1.42672000000000        0.07543600000000
C           27.46158399999999        4.92930200000000       -0.04493800000000
C           27.56257200000000        5.61508700000000       -1.26520700000000
C           27.52448000000000        7.01269300000000       -1.28913500000000
C           27.38456400000000        7.73014900000000       -0.09725800000000
C           27.28271600000000        7.05104200000000        1.12065300000000
C           27.32109700000000        5.65354900000000        1.14885000000000
H           32.03505800000000        0.13669300000000       -0.00312200000000
H           32.00155200000000        2.75861200000000       -0.21923000000000
H           30.18083000000000        4.55671600000000       -0.23181800000000
H           24.73877000000000        4.45674500000000        0.43438700000000
H           22.92280299999999        2.64680600000000        0.46636600000000
H           23.26674100000000       -2.52997800000000       -0.97900000000000
H           25.22696600000000       -4.41529000000000       -0.98306700000000
H           28.90994500000000       -5.31168900000000       -1.69271300000000
H           28.84365500000000       -7.77672700000000       -1.53497600000000
H           27.60092800000000       -8.87555500000000        0.30747200000000
H           26.41898400000000       -7.50198400000000        1.99938700000000
H           26.48049000000000       -5.03536600000000        1.86158600000000
H           30.45319400000000       -4.48302600000000        0.52775600000000
H           32.13721800000000       -2.53242300000000        0.50588700000000
H           27.67064700000000        5.06732200000000       -2.19332700000000
H           27.60304400000000        7.53956100000000       -2.23126900000000
H           27.35492600000000        8.81186400000000       -0.11744500000000
H           27.17411900000000        7.60754600000000        2.04254400000000
H           27.24146000000000        5.13561500000000        2.09676400000000
C           20.03074800000000        0.01266900000000        0.00250700000000
C           18.77847700000000       -0.00651200000000       -0.00184100000000
C           21.34441600000000        0.01190300000000        0.00444000000000
C           22.84755000000000       -0.00651200000000       -0.00184100000000
116
 energy: -191.143538322401 gnorm: 0.320213433519 xtb: 6.5.1 (b24c23e)
Zn          13.92444396524692        0.04256160033729        0.00316148380170
C           10.58326815269717       -0.08792742965870       -0.00349717172447
C           11.25210766935656       -1.26050278604035       -0.13373810719168
C           10.59853443437755       -2.54913933636460       -0.28347698110948
C           11.55226001453091       -3.48262986202997       -0.33131390364257
C           12.84421040408535       -2.81101884781775       -0.21266122830241
N           12.64207359687501       -1.42777143315688       -0.09666445515568
C           14.05314556004481       -3.44520527164313       -0.16575419294028
C           15.32101578612970       -2.75707468912490       -0.01749238893450
C           16.60275267551348       -3.42500549960885        0.16601175759808
C           17.54732090928629       -2.47567743494880        0.22470812174113
N           15.48133553494018       -1.44857759098501       -0.06741960779550
C           16.85722833055506       -1.21433617783802        0.07239834603942
C           17.45642641214852        0.01629208900509       -0.00422213002478
C           16.69002787780286        1.25660183374857       -0.16853465201729
C           17.24270004322100        2.43143202204802       -0.58334404916829
C           16.22129452591569        3.41473133290686       -0.54023800798465
C           15.08287218350032        2.80219931666701       -0.09860353505558
C           13.82154256781639        3.50336728031429        0.14175070930592
C           13.83580093047042        4.98535748311623        0.29370535023823
C           13.16769689680849        5.81338897209831       -0.62063793667030
C           13.20623543643268        7.19859268188646       -0.47685207968522
C           13.90504243904140        7.77243406645961        0.58175000306501
C           14.56740719856746        6.95912723158212        1.49724963270860
C           14.53501661163021        5.57427187182254        1.35493949522803
C           12.63830396708909        2.84274488753582        0.23148320104175
C           11.33461129778575        3.42249910990144        0.50669189591869
C           10.45221653503150        2.41490794530826        0.45505545852259
C           11.19446301480018        1.20313611755261        0.15718642660178
N           12.48061677881552        1.45373236310936        0.03320826162787
N           15.32667725076514        1.43124461755065        0.12738569890473
C           14.08098241006553       -4.92656797622636       -0.25872592018017
C           13.97371793819748       -5.55829296224414       -1.50243850991632
C           14.01148142290483       -6.94736682585534       -1.58673031004748
C           14.15134728734802       -7.71348451432734       -0.43250247509450
C           14.25261772147716       -7.09012916141500        0.80840303852845
C           14.21676542160627       -5.70158624306841        0.89726574271928
H            9.50040615138409       -0.12637374291254       -0.00692731745219
H            9.53458024925703       -2.73365762340034       -0.33799338308887
H           11.37139771177721       -4.54358278804335       -0.42931042637790
H           16.78438517526402       -4.48287500278219        0.23954404884793
H           18.60820935103011       -2.64911041888263        0.35027196741247
H           18.27051550589047        2.58088255068866       -0.87185071081628
H           16.31911589841982        4.45720505398148       -0.79435401964259
H           12.62889069133944        5.37936451524147       -1.45685448766462
H           12.69405062148653        7.83289973747319       -1.19358722962064
H           13.93503682488175        8.85132622870337        0.69212761328431
H           15.11492903096921        7.40611854028322        2.32080991998459
H           15.05386533429262        4.95045968192058        2.07524696650503
H           11.09741511906921        4.45546799321318        0.71982829318909
H            9.39038393063981        2.49820639639626        0.61441136847021
H           13.86615597094548       -4.96733369306530       -2.40665024716623
H           13.93314510442189       -7.43331424819850       -2.55372913424217
H           14.18104374223488       -8.79561049034023       -0.49986113244987
H           14.36134174855784       -7.68689883933069        1.70789393588076
H           14.29433497700996       -5.22173809245553        1.86769904025506
Zn          27.61100002570000       -0.04202269243401        0.00132986785278
C           30.95278977161797        0.08839803330047        0.00033331918410
C           30.28388236605793        1.26565971551323       -0.07888041189039
C           30.93746800928180        2.55945571271835       -0.17251846718162
C           29.98362819392790        3.49420567382249       -0.17978806260725
C           28.69184746287296        2.81815358567131       -0.09041961155217
N           28.89400539949888        1.43098311035951       -0.03454068968490
C           27.48265088871806        3.44945728634872       -0.01591148898847
C           26.21432744013156        2.75622033309457        0.10225502950621
C           24.93446393401027        3.41591525719724        0.31450372032749
C           23.98879781849824        2.46448179316514        0.33246676781012
N           26.05142666011592        1.44958802624261       -0.00528659896031
C           24.67604454887013        1.21407028680591        0.12555747048893
C           24.06205628496638       -0.01634128756948       -0.00561145863859
C           24.84487101953075       -1.24976238376610       -0.22379729044263
C           24.29352398736121       -2.40372077770178       -0.68909349590871
C           25.31544283070777       -3.38800916356735       -0.68794427098306
C           26.45301751893232       -2.79498731644189       -0.22014872957630
C           27.71468442535749       -3.50575950438656       -0.01047642498913
C           27.70026843326147       -4.99292009364796        0.07699445574097
C           28.36833287497755       -5.78048396095793       -0.87246603032224
C           28.32978292182198       -7.17062471421922       -0.78896916461742
C           27.63097896388151       -7.78989447307715        0.24371737229845
C           26.96861351697256       -7.01710252362199        1.19366983901369
C           27.00100276185372       -5.62737547837470        1.11162722887113
C           28.89773308390444       -2.84968599677492        0.10780102527467
C           30.20142910742535       -3.44080930788823        0.35763343935291
C           31.08377853812202       -2.43192821824338        0.34978692871960
C           30.34148240691022       -1.20834198022611        0.10481671682658
N           29.05530479929882       -1.45321112660233       -0.02997683442236
N           26.20809079052297       -1.43474868599920        0.06560844630050
C           27.45503926071786        4.93349619527741       -0.04451778546627
C           27.56231007659179        5.61869357982143       -1.25963541821664
C           27.52453683831347        7.01013915677814       -1.28353990214747
C           27.38467657369916        7.72544013094344       -0.09714993072581
C           27.28341725969070        7.04877463174563        1.11550951597977
C           27.31926610536858        5.65767137447660        1.14400548210540
H           32.03563556525415        0.12699006134830       -0.00142114475964
H           32.00142517900780        2.74619215722309       -0.21895722696122
H           30.16457217916025        4.55840343603081       -0.23160383634376
H           24.75216943315398        4.46919860601346        0.43402202033410
H           22.92770181228204        2.63165610059582        0.46497023803972
H           23.26539243266705       -2.54014321328311       -0.98311374581610
H           25.21719719548772       -4.41828018471471       -0.98708019634047
H           28.90713268360527       -5.31056280859751       -1.68905288514309
H           28.84196878230661       -7.77321384197136       -1.53257003362414
H           27.60098349703413       -8.87256264468449        0.30714371968771
H           26.42109317384216       -7.49943704335599        1.99704497913897
H           26.48215324129810       -5.03543227386261        1.85834349975783
H           30.43862240368755       -4.48205942515914        0.52570167752712
H           32.14562225377190       -2.52205463015679        0.50536136758752
H           27.66986038266361        5.06760319824310       -2.18868009601628
H           27.60287406550800        7.53763096975757       -2.22853065695210
H           27.35497709399674        8.80947678273542       -0.11746011564728
H           27.17467903574124        7.60593789805379        2.04006345573139
H           27.24167452834220        5.13617364753724        2.09269329895576
C           20.07739146714986        0.01945347170498        0.00371480385334
C           18.82197807063600        0.01288867873968       -0.00366707098941
C           21.40332229300749        0.00509608779260        0.00365297091623
C           22.72320298915202       -0.02620376685917       -0.00111462752596
116
 energy: -191.187951436994 gnorm: 0.267799736530 xtb: 6.5.1 (b24c23e)
Zn          13.93464058579910        0.03465064860497        0.00384182291404
C           10.58584085820478       -0.06787662323404       -0.00076125581543
C           11.25632648858293       -1.26504171480476       -0.13540818334957
C           10.59953342721785       -2.54294841685135       -0.28256756935614
C           11.56422820307495       -3.48425601145533       -0.33115426645404
C           12.83963121291880       -2.80526634471033       -0.21448622722982
N           12.61307808311984       -1.45508023647341       -0.10184875857512
C           14.07312313020689       -3.43776253300667       -0.16400169038730
C           15.31430352702924       -2.78125198180360       -0.01768208672364
C           16.58777907217963       -3.43840175935987        0.16112264761619
C           17.53727531398151       -2.47132483917215        0.22153082001563
N           15.50075147849565       -1.44752120516556       -0.05361762814835
C           16.85068977119704       -1.21932819104595        0.07556423185984
C           17.45627043902381        0.03632881989648       -0.01000014496950
C           16.68685692802439        1.25292283328930       -0.15814410547196
C           17.24742015045895        2.46572112006846       -0.57909381085103
C           16.25470999969525        3.41931890711632       -0.53468987264610
C           15.08103941901611        2.79242340844727       -0.08671917926279
C           13.84663098959686        3.48609050300010        0.14016524428939
C           13.85247425458358        4.97672454639231        0.28415365425514
C           13.17332669821383        5.80811985180092       -0.61661682914614
C           13.20810564048853        7.19007199693483       -0.47238324160717
C           13.90493178616844        7.76641592134180        0.58126653624589
C           14.56491089353125        6.95368053001795        1.49295901041165
C           14.53910690102643        5.57282330625172        1.34702444946421
C           12.63528547267389        2.83539259599538        0.23502047790976
C           11.34221036740179        3.41586891442660        0.50280793895321
C           10.44117482181463        2.40502174244235        0.45037080172237
C           11.16787193585251        1.19557020484038        0.15698277421252
N           12.47711827433587        1.46866291415695        0.04633468831218
N           15.34620772180193        1.44371056161981        0.11087677908535
C           14.08657707956487       -4.92723305832500       -0.25771283000971
C           13.97470970917293       -5.55976620577735       -1.49725312566869
C           14.01114608275200       -6.94481361025680       -1.58190971715488
C           14.15122038636666       -7.71040694292371       -0.43219172816478
C           14.25225872350243       -7.08817065281707        0.80470071233358
C           14.21939321127395       -5.70376264124542        0.89345253049777
H            9.50219079554947       -0.11826216765532       -0.00208405264369
H            9.53546312884248       -2.71858025518100       -0.33686103287709
H           11.39282785673360       -4.54524889099986       -0.42916195812114
H           16.76979918951851       -4.49470236150254        0.23726286423855
H           18.59920993772572       -2.63194398984438        0.34902967065976
H           18.27425450583723        2.59358538727317       -0.87519623141282
H           16.33011067946759        4.46057968527117       -0.79700792309371
H           12.63258117571849        5.37480168878612       -1.45286961596166
H           12.69496774712072        7.82523511604428       -1.19024509021856
H           13.93473545142885        8.84665124918421        0.69134731422854
H           15.11150810101841        7.40131750241305        2.31865238239314
H           15.05410692932656        4.94852344743694        2.07058717231417
H           11.11659871692727        4.45099339273160        0.71642962315552
H            9.38127741335562        2.48876599533469        0.61190253292248
H           13.86722764598957       -4.96628749486582       -2.40077074797745
H           13.93269718246017       -7.43037511563830       -2.55052856810120
H           14.18104203513139       -8.79342910258781       -0.49990554753462
H           14.36029637690547       -7.68488820840926        1.70565843328429
H           14.29503970954880       -5.22102346444891        1.86333669622142
Zn          27.59966410003073       -0.03426677903449        0.00237299102766
C           30.95007906560291        0.06827675357927        0.00222319588118
C           30.27940092050115        1.27017011113758       -0.08030503227606
C           30.93609995488104        2.55321213879366       -0.17183064626691
C           29.97111307754926        3.49564211298453       -0.17946920803538
C           28.69569800406719        2.81194128572775       -0.09247821800209
N           28.92264585691317        1.45817686239250       -0.03853404555525
C           27.46105033048398        3.44019514906091       -0.01460412701065
C           26.21879221117799        2.77691521169765        0.10288140930049
C           24.94782250958259        3.42778300953579        0.31028861417460
C           23.99588445378186        2.46005636211885        0.32874336709306
N           26.02684826885470        1.44423009254600        0.00841688144270
C           24.67472899352300        1.21417591404040        0.12698569696938
C           24.04835070154867       -0.03354566944719       -0.01320738789388
C           24.84071075705941       -1.24204384215473       -0.21140178428567
C           24.28608592534751       -2.43704191030770       -0.68598781505612
C           25.28067301219287       -3.39135889813571       -0.68273431325241
C           26.45288229398095       -2.78330661416072       -0.20735508748265
C           27.68821244575761       -3.48726469658454       -0.01115693032829
C           27.68301374471495       -4.98326461593236        0.06766713071441
C           28.36251284504446       -5.77505913698557       -0.86813850012916
C           28.32788047511773       -7.16207270513996       -0.78406671553936
C           27.63108440203236       -7.78374359713050        0.24350441539061
C           26.97113226905105       -7.01133554543777        1.18961366332030
C           26.99682081177154       -5.62539126439052        1.10375874796368
C           28.90019549670547       -2.84212848723091        0.11173390053839
C           30.19342217632841       -3.43391967226078        0.35395564446265
C           31.09460206465342       -2.42182943496410        0.34551359903767
C           30.36792136796256       -1.20074000442887        0.10493619519544
N           29.05862883099778       -1.46852797813647       -0.01749023533413
N           26.18349544315421       -1.44313457134819        0.04855062406864
C           27.44857103950172        4.93318518578705       -0.04348779457172
C           27.56114303546508        5.61953281657579       -1.25424121448448
C           27.52491267494564        7.00708098225366       -1.27872787700605
C           27.38480498637301        7.72216651888504       -0.09695287747436
C           27.28381396916772        7.04670349559055        1.11168405049969
C           27.31647245125317        5.65962441844557        1.14020595786272
H           32.03374405792098        0.11873854608947        0.00308282021357
H           32.00022641813609        2.73115215516256       -0.21845506651202
H           30.14281448075788        4.55990247810105       -0.23134910680106
H           24.76652677153221        4.48009895986645        0.43230934551683
H           22.93477019317486        2.61654911735644        0.46336718727750
H           23.26010450911740       -2.55374112076234       -0.98767721075671
H           25.20604438549047       -4.42062192340811       -0.98992306913597
H           28.90338006835118       -5.30603671951062       -1.68481884938987
H           28.84103308864304       -7.76552619833511       -1.52882969146521
H           27.60130356506795       -8.86776633858950        0.30656946984259
H           26.42454468962018       -7.49447149364027        1.99508260369282
H           26.48183328023609       -5.03325216940618        1.85383700146924
H           30.41914902035384       -4.47735478199332        0.52246185861804
H           32.15454694776106       -2.51253882466704        0.50327265231252
H           27.66874222131923        5.06616189610047       -2.18282949181497
H           27.60335577300359        7.53433874671056       -2.22535624768727
H           27.35498913923249        8.80714775235068       -0.11758753518752
H           27.17576726105522        7.60383964074312        2.03769052596675
H           27.24091105566936        5.13552332977199        2.08834951303669
C           20.10780460893376        0.02577809441365        0.00317922599842
C           18.86965360747421        0.03820976736470       -0.00928168157692
C           21.48254374768257       -0.00835835031470        0.00513078420663
C           22.63331352543432       -0.04429433290297       -0.00797310336516
116
 energy: -191.209153086245 gnorm: 0.068052701819 xtb: 6.5.1 (b24c23e)
Zn          13.93912411187297        0.02898888010381        0.00428029472235
C           10.58254722131446       -0.06182350961661        0.00138577158981
C           11.25218721679111       -1.26814495198188       -0.13677869311941
C           10.59861545609197       -2.54265348378188       -0.28286912001938
C           11.56852153457676       -3.48670512785290       -0.33223343882128
C           12.83565085894322       -2.80692496037334       -0.21680746523019
N           12.60018781831511       -1.46617646823444       -0.10604448414327
C           14.07664491026032       -3.43896825527869       -0.16300148965037
C           15.30812371669873       -2.79513683893266       -0.01405034223092
C           16.57882253072241       -3.44778394591253        0.15656553810831
C           17.52385269174700       -2.46961883612184        0.21831512057337
N           15.49638861571830       -1.45204538700927       -0.03890293214710
C           16.83444423765802       -1.21873843780658        0.07941736431453
C           17.43140547181506        0.04959658134690       -0.01386780307647
C           16.68471551340170        1.26224488385256       -0.15700948945440
C           17.25801206218007        2.48968824964455       -0.56982054657200
C           16.27663414462843        3.43445119519227       -0.52310065558861
C           15.08852362662191        2.79678288776750       -0.08141071935409
C           13.86037830639453        3.47494829663865        0.14007040018064
C           13.86897702754971        4.96659077707947        0.27519144125630
C           13.18107321494434        5.79756699345359       -0.61693241129141
C           13.20954940212071        7.17837508756068       -0.47055621439063
C           13.90505244330623        7.75788031848999        0.58044529937703
C           14.56576691766400        6.94560519766586        1.48972104447829
C           14.54899146315242        5.56623042327038        1.33872610255628
C           12.63672200443837        2.82759298647619        0.23994684935276
C           11.34632724145593        3.41039000653339        0.49961913732599
C           10.43392796029424        2.40335011184800        0.44569009111744
C           11.15503020395851        1.19410090691949        0.15954362455089
N           12.47449867952548        1.47090296437828        0.05988224771599
N           15.35166539657044        1.45369320248137        0.09560464072478
C           14.09055888668429       -4.92860178436741       -0.25648114200356