250
 energy: -433.244210014129 gnorm: 0.000853978176 xtb: 6.5.1 (b24c23e)
Ni          47.54317647646103        0.02083554742990        0.03243658227115
C           44.15523875154550        0.11182811403974        0.13212733587901
C           44.81220017398501        1.13329455887513       -0.52245447420404
C           44.14342420843148        2.20385204464677       -1.19552891776734
C           45.10593346525555        3.05477459707268       -1.62351296032632
C           46.36157782973624        2.51076231282981       -1.19706088222753
N           46.17308577036757        1.30979168996482       -0.55956199882350
C           47.58217803699797        3.15587139303001       -1.35842248858873
C           47.60172073608303        4.51174018300682       -1.95366957144541
C           48.31554900949381        4.76470739574193       -3.12766730820839
C           48.33783962715537        6.03065138573176       -3.68539003318937
C           47.65521470128524        7.08138350982148       -3.06705038039770
N           47.64467177467616        8.34062832359329       -3.64152878377529
C           46.93497255810159        6.83550481713684       -1.89528079639157
C           46.90960278292281        5.56432106265849       -1.34973300414080
C           48.78568280426557        2.57898583990406       -0.97234514989724
C           50.05071214380689        3.24273852156887       -1.05812857746232
C           50.99238380998680        2.34204925220584       -0.68592193195862
N           48.94898590463054        1.29369407275722       -0.50606483972679
C           50.30035456091204        1.13529655663685       -0.36495556548685
C           50.95163103047003       -0.05603456039794       -0.03281312197327
C           50.26123482088439       -1.22103573922333        0.31304885788413
C           50.90974022583478       -2.46112968647840        0.59508071698321
C           49.94209124034863       -3.32501623481188        0.98775382588740
C           48.70611016609866       -2.60393007423058        0.95846930075488
N           48.90999289005502       -1.32132936181837        0.50045271211192
C           47.49508446774821       -3.12638241969753        1.39511396320461
C           47.47416419814179       -4.48703719432830        1.97934934156793
C           48.22935944762393       -4.78621360535983        3.11598558689383
C           48.20977644268185       -6.05517137049654        3.66683629276543
C           47.44162823462183       -7.06318425327901        3.07848998480763
N           47.38909955281915       -8.32330313511160        3.64878305184971
C           46.68017222042303       -6.77096808875781        1.94394073828604
C           46.69736842432462       -5.49655439579084        1.40564115128114
C           46.30278669881093       -2.41721369090276        1.30633882176511
C           45.04697561163037       -2.89747556494832        1.80318053771517
C           44.10926960179174       -1.98836663090794        1.44568434516258
C           44.79401358856305       -0.94821963439822        0.74169404748719
N           46.14274339424843       -1.19983836696447        0.69292352227184
H           43.07235922705441        0.14215089980879        0.16653803903808
H           43.07425092814402        2.27628520051507       -1.31713906072663
H           44.98893967515672        3.96910690968418       -2.18230778668150
H           48.84200202874480        3.95269467605525       -3.61729584872996
H           48.88632236493535        6.21226535686022       -4.60332541927295
H           48.41584048948472        8.53294184526785       -4.26051078176788
H           47.43294137432491        9.09571005756323       -3.00900093171396
H           46.40023554712989        7.64635805514963       -1.41278706800816
H           46.36401938751047        5.38564274297793       -0.42951862782094
H           50.19073306100557        4.26848676864362       -1.35782370274525
H           52.06155549542702        2.46884278479289       -0.62974316296358
H           51.96952326958596       -2.63401657067163        0.49814385848691
H           50.04632217766364       -4.36041851458637        1.26836119371042
H           48.82152415719855       -4.00701310715596        3.58328709671613
H           48.79115321009606       -6.27223339030483        4.55632776602814
H           48.17721213480975       -8.56156273931316        4.22937677754092
H           47.10483630901546       -9.06185793023960        3.02527185700525
H           46.07898555664020       -7.54834174481172        1.48506776580127
H           46.11735581121425       -5.28206914850617        0.51464272919028
H           44.91339791963116       -3.81165963218192        2.35843421690745
H           43.04727894583358       -2.00316690858072        1.63305344281789
Ni          87.82235140090033       -0.02635118623209        0.04252725328859
C           91.21107923012960        0.00579914126890        0.17850678346249
C           90.55311880327568       -1.10119303318093        0.67323821987873
C           91.22187047614285       -2.24964002816989        1.20263895633857
C           90.25884516705230       -3.07618132430072        1.67467046114634
C           89.00281431813231       -2.42453631159569        1.44607822732332
N           89.19187649601980       -1.23139769721042        0.79426173660868
C           87.78064318826544       -2.92166191459865        1.88292480081056
C           87.76065007065090       -4.16553132432378        2.68664109546213
C           87.06229819957538       -5.29110798578504        2.24280583346216
C           87.03785660406146       -6.45249651719817        2.99439492211024
C           87.70256421714714       -6.50723391561769        4.22218834643979
N           87.71005850420750       -7.67830098681643        4.96018753839775
C           88.40845146653076       -5.38772075988112        4.67015805243488
C           88.43614372253313       -4.23363342414137        3.90760360883364
C           86.57605044925998       -2.28892583602548        1.60253807526058
C           85.30849243874555       -2.73883552451855        2.09186802870177
C           84.36763233200040       -1.93291084962100        1.54298394015384
N           86.41459826962834       -1.18614516461681        0.79398163687327
C           85.06259449438835       -0.98731628813694        0.72974690259542
C           84.41339031642946       -0.04057390801189       -0.06676580691836
C           85.10416277477617        0.90518587046324       -0.82861062457573
C           84.45534651214184        1.83722105650650       -1.69386431976495
C           85.42364273967488        2.64394905375490       -2.19174505050246
C           86.66043731111287        2.21080087838496       -1.61603055502043
N           86.45608669776162        1.11347721537217       -0.80963373181675
C           87.87345409955343        2.85845166850896       -1.81393410220448
C           87.89580606315148        4.09981924052983       -2.62134899192591
C           87.14968473134518        5.21567214055827       -2.23425458619399
C           87.16962295037601        6.37753471104021       -2.98514110178058
C           87.92910768825901        6.44267891588244       -4.15614403546112
N           87.98182105950632        7.61550997719204       -4.88939491125035
C           88.68200956823060        5.33257690770675       -4.54754163274371
C           88.66435035552014        4.17804220419523       -3.78533951585320
C           89.06652462695156        2.38505359606943       -1.28053002434548
C           90.32431568149697        3.05993822190858       -1.41139479221615
C           91.26111263503778        2.25668764407265       -0.85411675897050
C           90.57384488197911        1.09809104392998       -0.37275490085140
N           89.22482780442064        1.20010137845898       -0.60614109269838
H           92.29393943844144        0.01706259750179        0.22359551032749
H           92.29138999469396       -2.38857045520357        1.20188503722367
H           90.37546609410613       -4.04456974339467        2.13351280684641
H           86.54950253024133       -5.25845381757690        1.28771159138172
H           86.50120072955831       -7.32357678070214        2.63427194770893
H           86.94527060281709       -8.30597215660794        4.77035406067315
H           87.90578271726370       -7.56162543283640        5.94164148818281
H           88.92984654044238       -5.42567095275103        5.62040918644943
H           88.97017821757731       -3.36236376410392        4.27110034504078
H           85.16633694951342       -3.56119274231825        2.77380273069668
H           83.29732176343937       -1.96330250122126        1.66890518322354
H           83.39501981704794        1.85696968170301       -1.88798790868626
H           85.31948057785537        3.45737049115750       -2.89108542172423
H           86.56424319140943        5.17566741110125       -1.32219907514698
H           86.59505753353147        7.24113648672707       -2.66831189068812
H           87.19732300800324        8.23434117021310       -4.76032073970053
H           88.25834993301396        7.50425262301180       -5.85179886999006
H           89.27671923729662        5.37858713126356       -5.45335556334362
H           89.23737825199305        3.31455264393993       -4.10521278591856
H           90.45962985076287        4.02724981124284       -1.86733182910976
H           92.32395136990533        2.41739109015958       -0.76645382323565
C           53.57793392013976       -0.08735402314092       -0.05101560453241
C           52.35635186075591       -0.07980994394847       -0.04535492208038
C           54.92793749465821       -0.09389571648395       -0.04961953391267
C           56.14962187726592       -0.08855360823444       -0.04546619329846
C           67.00468447118645       -0.05939061453053       -0.06855757243967
C           65.78308429921728       -0.05938213719921       -0.05356983217944
C           68.35445315763067       -0.05683328762722       -0.07638393539480
C           69.57618655151661       -0.05005914028520       -0.07522982742001
C           80.43544351865508       -0.03492739368155       -0.11328767940014
C           79.21409350045967       -0.03390022141389       -0.10244342904955
C           81.78630374372409       -0.03983825053753       -0.11181740794122
C           83.00752545467287       -0.03919947698269       -0.09841440280282
Ni          60.96676452001054       -0.05858764170475        0.00443666805091
C           57.55418790453196       -0.08028942534029       -0.03478051795351
C           58.22348417575343        1.04183416061733       -0.53205749586862
C           57.54670502977212        2.18765617239451       -1.04893786280592
C           58.49655657118088        3.12375077632952       -1.28993114646588
C           59.75323023175577        2.54085456348418       -0.93222247128317
N           59.57452663401786        1.24955674494059       -0.48844149609263
C           60.95538088683455        3.23676903325821       -0.92890242822535
C           60.95046392973131        4.66763154223577       -1.32002475081876
C           60.61988107514478        5.04870554284559       -2.62176836546066
C           60.61630191845882        6.38281478686337       -2.98948713451290
C           60.93142553366212        7.36946650488227       -2.05185279688660
N           60.96674966680219        8.70195501080309       -2.42606707044292
C           61.26862915360900        6.99449128793473       -0.74888440321470
C           61.27839947900431        5.65760717980323       -0.39160575227395
C           62.16359417408101        2.64674922408030       -0.58162457972027
C           63.41961788310255        3.33152950159712       -0.61330520336278
C           64.37794286779628        2.40488782629915       -0.37006321457232
N           62.35123972207348        1.31222773697460       -0.29729094383885
C           63.70589011265254        1.15768174215244       -0.19382128817358
C           64.37872234788279       -0.05665404714601       -0.02866110782663
C           63.70900508487983       -1.26757657917192        0.17009971504273
C           64.38021897131209       -2.51918168282468        0.31202412447728
C           63.42869097041613       -3.43913370762708        0.60489785613322
C           62.18000227136175       -2.74251370867008        0.65042069233432
N           62.35955380590217       -1.41402018502737        0.33660540208040
C           60.97667835253448       -3.33161318702895        1.01907927637809
C           60.98257822319641       -4.74340434174287        1.46420661896485
C           60.22517446626726       -5.70608490826832        0.79209483015465
C           60.23074398195229       -7.02698651480635        1.20298031142282
C           60.98745595921036       -7.41311518428523        2.31244875467186
N           61.02555415589384       -8.73996912125869        2.70322346175215
C           61.75160761837263       -6.45733326534138        2.98714300734221
C           61.74803126022813       -5.14039998988414        2.56365588841160
C           59.76745167182285       -2.64818019984821        0.97726512212440
C           58.51780939580566       -3.21025970045926        1.38825552406159
C           57.55892218591080       -2.30439679127204        1.07563780316341
C           58.22737508650101       -1.18607276340331        0.49307524521232
N           59.58052971873725       -1.38121999287178        0.47120373991257
H           56.47978750208415        2.25880337147835       -1.18655655017370
H           58.36432787824349        4.12677803426642       -1.66133607880581
H           60.38142369516309        4.28778888662783       -3.35681221868781
H           60.36768792125091        6.66691820982154       -4.00608240238626
H           60.41304063253019        8.93099906498147       -3.23583522554881
H           60.86983810811863        9.35906792685912       -1.66850646439383
H           61.51910463987099        7.75569436836345       -0.01803078752301
H           61.52611113690545        5.37460593821830        0.62562891622825
H           63.54456827003451        4.38238251214801       -0.81713710747807
H           65.44692951884412        2.53667570592053       -0.32365797310167
H           65.44308594643314       -2.66068325968064        0.20011711171561
H           63.55198890886038       -4.49715784277614        0.76871356847552
H           59.64308060287599       -5.41642340786757       -0.07589793102014
H           59.64747240899803       -7.76709329244417        0.66609104058360
H           61.30245141054217       -8.89545067180987        3.65921433452899
H           60.23540928114928       -9.29304383351099        2.41277948698654
H           62.34414220384159       -6.75181661349033        3.84646527671047
H           62.32943960156251       -4.40107351376140        3.10373284088785
H           58.39776424714948       -4.17218903226126        1.85922723226234
H           56.49321565606545       -2.37236894563796        1.22377452595132
Ni          74.39480155584302       -0.02432608245571       -0.02571227491673
C           70.98090836877880       -0.04411821108973       -0.06635958775334
C           71.65047184526763        1.08405326846457       -0.54871956573243
C           70.97202545739367        2.23759356495676       -1.04627005592377
C           71.92178236231426        3.17448199976505       -1.28303912611337
C           73.18010442682670        2.58363698693182       -0.94434021359218
N           73.00224685860452        1.28809140559787       -0.51209815108091
C           74.38526462093881        3.27335776383201       -0.95744547324883
C           74.38236997118290        4.70775023410049       -1.33528064675326
C           74.02833443991405        5.10684835147325       -2.62540711919391
C           74.03072989248633        6.44518618450070       -2.97800158775078
C           74.38748446300094        7.41689884515242       -2.03978144146300
N           74.34409838164416        8.75966801578548       -2.37425392593782
C           74.73151118988005        7.02511545185740       -0.74359376819320
C           74.73514714379860        5.68426379923470       -0.40168672157695
C           75.59688104727049        2.67521013817336       -0.63649089142485
C           76.85552201315097        3.35310442632215       -0.69794209471887
C           77.81337966321634        2.42371392581748       -0.46398665821259
N           75.78248352140685        1.34196050577401       -0.34666728361739
C           77.13807493735398        1.18224293485360       -0.26179488369763
C           77.80866465716082       -0.02937103094414       -0.07479352973694
C           77.13861858700741       -1.23399390266157        0.15512459210564
C           77.81082246105836       -2.48158989869841        0.32556746432492
C           76.85897389559804       -3.39674728227895        0.63162127708177
C           75.60898212375952       -2.70137722773368        0.65537420372186
N           75.78841046666535       -1.37848009109512        0.31981028011114
C           74.40288909832114       -3.29055313636130        1.01521694081623
C           74.40980916836513       -4.69881597225819        1.47243047729340
C           73.67281930440402       -5.67274895977021        0.79386542845172
C           73.68438304578382       -6.99113689329812        1.21282589544458
C           74.43633047707345       -7.36547911380888        2.32946454223760
N           74.41257710132197       -8.67379285259964        2.77998275628651
C           75.16534451099083       -6.39501590754104        3.02172490352111
C           75.15586720392507       -5.08061934511942        2.59037335930919
C           73.19185276688337       -2.61301378486392        0.95111035316450
C           71.93933773208613       -3.17998227342546        1.34692105275307
C           70.98122965299113       -2.27729271276678        1.02411358351484
C           71.65267480332489       -1.15539746764368        0.45145206403512
N           73.00648037300574       -1.34692265995615        0.44163243075421
H           69.90421461124912        2.31245885773680       -1.17459419057988
H           71.78907716769747        4.18225091804576       -1.64106050398942
H           73.76687047494974        4.35688178193618       -3.36394190900786
H           73.75960965516748        6.74376605388030       -3.98475626499598
H           74.41915891964966        8.95539989285706       -3.35971203531670
H           74.91006531737170        9.36029040440556       -1.79634926547378
H           74.99715486541074        7.77582949580380       -0.00744638630946
H           74.99769987252979        5.38721122359333        0.60773474868491
H           76.98204148522022        4.40141883701167       -0.91367302478784
H           78.88370452157237        2.55025243234459       -0.43790471698869
H           78.87439013487842       -2.62386122380298        0.22165316277195
H           76.98293346178701       -4.45116436991824        0.81708531464503
H           73.10237159631174       -5.39396218969519       -0.08541590605849
H           73.11364645283007       -7.73931396294313        0.67356764602263
H           75.19914430745091       -8.94323808579227        3.34902165724243
H           74.15790245822758       -9.35891238772342        2.08658107263799
H           75.73939034629566       -6.67704567363201        3.89769307267273
H           75.71773691268372       -4.33169883139350        3.13778221952593
H           71.81744444230915       -4.14259720183484        1.81591273789516
H           69.91420883873442       -2.34876761684534        1.16052655209520
