189
 energy: -350.497039669820 gnorm: 2.042311055093 xtb: 6.5.1 (b24c23e)
Zn          38.59987099999999        0.01692300000000       -0.00316400000000
C           35.18184700000000       -0.09009200000000        0.08605700000000
C           35.84713800000000       -0.19168600000000        1.24018900000000
C           35.19927600000000       -0.33421500000000        2.53877400000000
C           36.14140100000000       -0.35523000000000        3.46321800000000
C           37.44444000000000       -0.22498000000000        2.79739500000000
N           37.26496099999999       -0.12631700000000        1.38432700000000
C           38.63359600000000       -0.15404900000000        3.42852000000000
C           39.92508099999999        0.00562100000000        2.71093700000000
C           41.21180700000000        0.22244300000000        3.38344300000000
C           42.14629300000000        0.28005600000000        2.45666900000000
N           40.06761800000000       -0.07290600000000        1.42313900000000
C           41.46474100000000        0.09294700000000        1.18154100000000
C           42.06106800000000        0.01247700000000       -0.01937400000000
C           41.30332899999999       -0.19757400000000       -1.27408800000000
C           41.84643600000000       -0.61018100000000       -2.41254900000000
C           40.80263900000000       -0.59846700000000       -3.41813000000000
C           39.69046600000000       -0.17534300000000       -2.82872800000000
C           38.40247000000000        0.04765000000000       -3.53489600000000
C           38.42025599999999        0.18359200000000       -5.01188500000000
C           37.77711300000000       -0.76342300000000       -5.82288400000000
C           37.81257400000000       -0.64100300000000       -7.21469500000000
C           38.49889099999999        0.42761300000000       -7.81919600000000
C           38.53994200000000        0.56165700000000       -9.29203300000000
O           39.22394000000000        1.62177800000000       -9.88162300000000
O           37.95681800000000       -0.28110600000000      -10.02661800000000
C           39.15003600000000        1.36844100000000       -7.00266000000000
C           39.11305400000000        1.24517600000000       -5.61085300000000
C           37.23595099999999        0.13090000000000       -2.86676100000000
C           35.92031699999999        0.38312700000000       -3.45239400000000
C           35.05887400000000        0.33392600000000       -2.45500100000000
C           35.81505199999999        0.06406200000000       -1.23339300000000
N           37.08503300000000       -0.05563200000000       -1.46096700000000
N           39.91611799999999        0.09661100000000       -1.44413200000000
C           38.67334500000000       -0.22572800000000        4.90435600000000
C           38.60912199999999       -1.46670100000000        5.55140800000000
C           38.64843800000000       -1.53517300000000        6.94692600000000
C           38.75380500000000       -0.36147900000000        7.71568600000000
C           38.79634600000000       -0.42824900000000        9.19302900000000
O           38.89952999999999        0.73881800000000        9.94573300000000
O           38.73976900000000       -1.54059100000000        9.78405900000000
C           38.81864899999999        0.88029500000000        7.05928800000000
C           38.77861300000000        0.94693600000000        5.66366800000000
H           34.09860000000000       -0.10871800000000        0.11423400000000
H           34.13583700000000       -0.40244400000000        2.72899100000000
H           35.95729200000000       -0.44202800000000        4.52629500000000
H           41.38680300000000        0.31529200000000        4.44711800000000
H           43.20263300000000        0.42527200000000        2.63960600000000
H           42.87984500000000       -0.88527700000000       -2.57541600000000
H           40.91949099999999       -0.86433900000000       -4.46077000000000
H           37.25134200000000       -1.59842200000000       -5.37606700000000
H           37.30527100000000       -1.38449100000000       -7.81667500000000
H           39.25818300000000        1.72293700000000      -10.88902200000000
H           39.68946199999999        2.20019400000000       -7.43790500000000
H           39.62214699999999        1.97947700000000       -4.99844500000000
H           35.67332900000000        0.57713100000000       -4.48783400000000
H           33.98959400000000        0.47703800000000       -2.53929400000000
H           38.52843500000000       -2.37975500000000        4.97425500000000
H           38.59672000000000       -2.50627600000000        7.42312800000000
H           38.92945400000000        0.70435900000000       10.95775300000000
H           38.90045099999999        1.80110900000000        7.62286300000000
H           38.82992999999999        1.91160200000000        5.17367900000000
Zn          60.26160699999999        0.01876200000000       -0.03496200000000
C           63.67963200000000       -0.07725100000000       -0.13592800000000
C           63.01434000000000       -0.04508200000000       -1.29407700000000
C           63.66220200000000       -0.03691800000000       -2.60043400000000
C           62.72007700000000        0.04880600000000       -3.52113500000000
C           61.41703900000000        0.10141000000000       -2.84473400000000
N           61.59651800000000        0.03647200000000       -1.42971600000000
C           60.22788200000000        0.24464300000000       -3.46347100000000
C           58.93639699999999        0.32050300000000       -2.73226200000000
C           57.64967100000000        0.61342600000000       -3.37528000000000
C           56.71518500000000        0.56378800000000       -2.44804500000000
N           58.79386100000000        0.09400100000000       -1.46211000000000
C           57.39673700000000        0.23089000000000       -1.20299900000000
C           56.80041000000000        0.01247700000000       -0.01937400000000
C           57.55814899999999       -0.34085600000000        1.20274900000000
C           57.01504200000000       -0.88198800000000        2.28603800000000
C           58.05883900000000       -0.98630700000000        3.28626200000000
C           59.17101200000000       -0.49804100000000        2.74958200000000
C           60.45900800000000       -0.35796500000000        3.47675300000000
C           60.44122200000000       -0.39324400000000        4.95956600000000
C           61.08436500000000       -1.42745900000000        5.65595300000000
C           61.04890499999999       -1.46634700000000        7.05259600000000
C           60.36258699999999       -0.47456600000000        7.77628900000000
C           60.32153599999999       -0.51125100000000        9.25475800000000
O           59.63753800000000        0.47381200000000        9.96266000000000
O           60.90465999999999       -1.43309800000000        9.88726200000000
C           59.71144200000000        0.55414200000000        7.07368800000000
C           59.74842400000000        0.59219100000000        5.67695200000000
C           61.62552699999999       -0.19822700000000        2.82267600000000
C           62.94116099999999       -0.01521300000000        3.43348700000000
C           63.80260400000000        0.05092600000000        2.43707300000000
C           63.04642599999999       -0.07627300000000        1.19249600000000
N           61.77644500000000       -0.22141000000000        1.40474900000000
N           58.94536099999999       -0.06824200000000        1.40558300000000
C           60.18813300000000        0.34362400000000       -4.93772700000000
C           60.25235599999999       -0.81445900000000       -5.72356200000000
C           60.21304000000000       -0.72155400000000       -7.11766600000000
C           60.10767300000000        0.53295700000000       -7.74595700000000
C           60.06513300000000        0.63698700000000       -9.22114500000000
O           59.96194799999999        1.88306400000000       -9.83425200000000
O           60.12170900000000       -0.39978200000000       -9.93649800000000
C           60.04282899999999        1.69075700000000       -6.95074700000000
C           60.08286500000000        1.59602200000000       -5.55675300000000
H           64.76287900000000       -0.09250300000000       -0.16606500000000
H           64.72564199999999       -0.08275800000000       -2.79725100000000
H           62.90418600000000        0.08517200000000       -4.58712900000000
H           57.47467600000000        0.82831000000000       -4.42115300000000
H           55.65884500000000        0.72912900000000       -2.61301600000000
H           55.98163300000000       -1.17403000000000        2.41609700000000
H           57.94198799999999       -1.37063500000000        4.29128900000000
H           61.61013599999999       -2.20536500000000        5.11583200000000
H           61.55620800000000       -2.27429100000000        7.56482800000000
H           59.60329500000000        0.45813200000000       10.97500300000000
H           59.17201700000000        1.33015800000000        7.60194000000000
H           59.23933099999999        1.39221200000000        5.15330200000000
H           63.18815000000000        0.05810000000000        4.48439000000000
H           64.87188399999999        0.18336300000000        2.53730700000000
H           60.33304300000000       -1.78797500000000       -5.25554400000000
H           60.26475900000000       -1.63126800000000       -7.70267000000000
H           59.93202400000000        1.96553300000000      -10.84349400000000
H           59.96102699999999        2.67041600000000       -7.40438200000000
H           60.03154799999999        2.49775200000000       -4.95879400000000
C           43.73145100000000        0.01247700000000       -0.01937400000000
C           44.95336900000000        0.01247700000000       -0.01937400000000
C           53.90810900000000        0.01247700000000       -0.01937400000000
C           55.13002700000000        0.01247700000000       -0.01937400000000
Zn          49.41669200000000        0.00403400000000       -0.02943400000000
C           45.96423900000000       -0.02618200000000        0.04065300000000
C           46.61933500000000       -1.20187100000000        0.03206300000000
C           45.97870100000000       -2.51405100000000       -0.07520200000000
C           46.91587700000000       -3.43944600000000       -0.01821000000000
C           48.21284500000000       -2.77470000000000        0.13790300000000
N           48.03450800000000       -1.35620300000000        0.16116400000000
C           49.39790400000000       -3.41021000000000        0.25691200000000
C           50.69230800000000       -2.69250300000000        0.37656500000000
C           51.95654700000000       -3.34063300000000        0.75234100000000
C           52.90920600000000       -2.43026300000000        0.69887800000000
N           50.86261000000000       -1.43513200000000        0.10826500000000
C           52.25871399999999       -1.19150000000000        0.29064000000000
C           52.87639100000000       -0.02618200000000        0.04065300000000
C           52.12670500000000        1.18698600000000       -0.34559000000000
C           52.65986300000000        2.23910700000000       -0.95404400000000
C           51.62660799999999        3.25507900000000       -1.03657100000000
C           50.53478500000000        2.75346300000000       -0.46934600000000
C           49.28118100000000        3.51126200000000       -0.24305500000000
C           49.33861600000000        4.99295500000000       -0.25054400000000
C           50.11410000000000        5.67089700000000        0.69911800000000
C           50.18883800000000        7.06600700000000        0.68099300000000
C           49.49609400000000        7.80594400000000       -0.29494300000000
C           49.56792699999999        9.28288900000000       -0.31561200000000
O           48.93553299999999       10.00461400000000       -1.32829900000000
O           50.19423599999999        9.90232100000000        0.58690200000000
C           48.73110399999999        7.12126800000000       -1.25407300000000
C           48.65478699999999        5.72609700000000       -1.23262700000000
C           48.11200699999999        2.88262600000000       -0.01776900000000
C           46.83787100000000        3.52499600000000        0.28749300000000
C           45.94849400000000        2.55579500000000        0.36618100000000
C           46.64399800000000        1.28770000000000        0.11752800000000
N           47.90892400000000        1.47185600000000       -0.10391400000000
N           50.76052800000000        1.42307900000000       -0.00681400000000
C           49.43941600000000       -4.89062000000000        0.26290500000000
C           48.92695400000000       -5.61318800000000        1.35184400000000
C           48.98709700000000       -7.00992500000000        1.36160300000000
C           49.56575299999999       -7.70608500000000        0.28382300000000
C           49.63533200000000       -9.18429400000000        0.29019300000000
O           50.20585699999999       -9.86435200000000       -0.78272000000000
O           49.18037500000000       -9.84166600000000        1.26492600000000
C           50.08224300000000       -6.97621500000000       -0.80239000000000
C           50.02132499999999       -5.57982500000000       -0.81090800000000
H           44.92402300000000       -2.72235200000000       -0.19187000000000
H           46.73033100000000       -4.50359000000000       -0.08519400000000
H           52.10312400000000       -4.37727000000000        1.02630900000000
H           53.95592800000000       -2.59978600000000        0.91983500000000
H           53.68191200000000        2.34046400000000       -1.29418000000000
H           51.74075499999999        4.25093000000000       -1.44559200000000
H           50.65663200000000        5.11804200000000        1.45623400000000
H           50.79148500000000        7.56431800000000        1.42811200000000
H           48.97724999999999       11.01615300000000       -1.35059400000000
H           48.18916500000000        7.66246300000000       -2.02158700000000
H           48.06687800000000        5.21539200000000       -1.98581000000000
H           46.63615300000000        4.57833700000000        0.43339400000000
H           44.89838400000000        2.69706900000000        0.58545600000000
H           48.48274200000000       -5.09378600000000        2.19330300000000
H           48.58316700000000       -7.54417900000000        2.21352900000000
H           50.25783899999999      -10.87648300000000       -0.78826200000000
H           50.53565199999999       -7.48284200000000       -1.64611200000000
H           50.42610200000000       -5.03428800000000       -1.65560900000000
189
 energy: -351.066349823861 gnorm: 0.517599969089 xtb: 6.5.1 (b24c23e)
Zn          38.59934411819231        0.01602552676810       -0.00412866462569
C           35.18263192782084       -0.08876578804611        0.07437881425711
C           35.85268327151892       -0.19148165558424        1.24230824015744
C           35.19810175953188       -0.33392982664742        2.53463345306376
C           36.14716250327910       -0.35501709475660        3.46525475800814
C           37.44202922638607       -0.22495116514364        2.79204599236150
N           37.25209293518130       -0.12834412667339        1.39751010674756
C           38.64417289501765       -0.15300047885213        3.42541496995834
C           39.92023833302924        0.00517573917205        2.72303850928555
C           41.20372706811443        0.22158145510799        3.39040547551167
C           42.14689963558251        0.27939743217226        2.45193558055610
N           40.07694937818422       -0.06983774354955        1.42160210558399
C           41.46727139547374        0.09361919554877        1.18296472260420
C           42.06892225962076        0.00965585615395       -0.02878785570175
C           41.30032447748160       -0.19116094706990       -1.26421616548579
C           41.84756567097067       -0.61305666179216       -2.42860567538322
C           40.81790633294437       -0.60114305276805       -3.41954995080192
C           39.68150449331608       -0.16890216469948       -2.82075386319677
C           38.41085208202391        0.04712945149324       -3.53014786461474
C           38.42326196546529        0.18219967750366       -5.01132310606948
C           37.77800820816942       -0.76068913500888       -5.82540257641167
C           37.81414122161588       -0.63839573687036       -7.21403799016850
C           38.50112786494485        0.43110341172016       -7.82122548553753
C           38.53625682591510        0.55667087836441       -9.30598615708263
O           39.22072826613950        1.61675778152015       -9.87731809351454
O           37.96392658035185       -0.27067405536629      -10.01995072239013
C           39.14927298882365        1.36755599011204       -7.00069357809493
C           39.11266135106134        1.24355753240048       -5.61321932431460
C           37.23390609982853        0.13098125404899       -2.86564584362725
C           35.92523379844840        0.38247959628966       -3.45358656875977
C           35.05296430457040        0.33333800011039       -2.44797089734434
C           35.80292111981142        0.06339482385822       -1.22695819724072
N           37.08579875284271       -0.05292250581036       -1.46882588644370
N           39.92285444886132        0.09256609606427       -1.44889674516797
C           38.67509553858532       -0.22550813635480        4.90606147189064
C           38.60910405060223       -1.46447149117269        5.55499775999332
C           38.64853095184908       -1.53214002335429        6.94704632894272
C           38.75414978400768       -0.35765059793935        7.71821823835027
C           38.79623584300986       -0.43626667578444        9.20599764022693
O           38.89901940463407        0.73352522351815        9.94069201451754
O           38.74051679164364       -1.52720345428876        9.77916283995017
C           38.81851717444690        0.87944071887537        7.05759792399240
C           38.77903156958778        0.94504295448569        5.66637731996825
H           34.09890823913062       -0.10829442382542        0.11222188187893
H           34.13584728435914       -0.40227725928524        2.72573108615961
H           35.96119590758978       -0.44193537797908        4.52665205453829
H           41.38362587082074        0.31504483501125        4.44895116266314
H           43.20231618270656        0.42507421864638        2.63581558949805
H           42.88003385076888       -0.88607918060969       -2.57748218514531
H           40.92148013085259       -0.86515960595378       -4.46069195284336
H           37.25196830226124       -1.59754426411712       -5.37636955050761
H           37.30603857406793       -1.38337598218856       -7.81757418475083
H           39.25367857604419        1.71549909751667      -10.87573241614414
H           39.68905452762256        2.19968188015617       -7.43842363638368
H           39.62172458811337        1.97877210523175       -4.99858212554415
H           35.67700041395285        0.57670479493742       -4.48780220035430
H           33.98820476734263        0.47674544259704       -2.53659468192115
H           38.52857865477018       -2.37869425085071        4.97478941317237
H           38.59686981429979       -2.50509343145296        7.42432517833411
H           38.92853946981857        0.69757363077804       10.94343662948729
H           38.90037377973224        1.80042873521834        7.62343116422668
H           38.82986893260385        1.91072568281907        5.17380424593016
Zn          60.26215709967521        0.01779244737593       -0.03407580985076
C           63.67882925828922       -0.07728374825343       -0.12422397413832
C           63.00884266539114       -0.04463788376152       -1.29616055137158
C           63.66338652895733       -0.03711424017945       -2.59629051948367
C           62.71431721602337        0.04924183454874       -3.52312479852514
C           61.41950230910245        0.10082181724134       -2.83932308805105
N           61.60934265745137        0.03598293354192       -1.44310175889255
C           60.21714988663282        0.24534217275874       -3.46023371991882
C           58.94132252859664        0.32140711712104       -2.74438705717494
C           57.65769798610557        0.61335590581373       -3.38230604018440
C           56.71456379962445        0.56259742326703       -2.44349115965977
N           58.78438562234070        0.09679842925150       -1.46007201677388
C           57.39412461491536        0.23196788682306       -1.20427078210039
C           56.79146752862776        0.00862109637205       -0.00971380731985
C           57.56091162049093       -0.33357389557728        1.19381500057509
C           57.01387961406214       -0.88675709439863        2.30176269114845
C           58.04357053110904       -0.98913372069745        3.28736915752268
C           59.17994691666752       -0.49070103597711        2.74237957730222
C           60.45062098336446       -0.35793452794491        3.47196871416087
C           60.43820430342518       -0.39456776108636        4.95888756356897
C           61.08347327487627       -1.42503831060805        5.65875541482442
C           61.04732677447541       -1.46367147304424        7.05225650052037
C           60.36034867569673       -0.47132966141949        7.77867246975702
C           60.32519752350215       -0.51779990666475        9.26813819160630
O           59.64078835049089        0.46928097052453        9.95776796565528
O           60.89755531847064       -1.42195382483289        9.88179513003483
C           59.71221667813930        0.55348061248136        7.07164463596411
C           59.74881031370762        0.59031514461047        5.67909571074872
C           61.62756274719060       -0.19800010724645        2.82157638329783
C           62.93624920402775       -0.01599800677919        3.43459337942884
C           63.80850811272099        0.05115337114054        2.43003671341891
C           63.05852437128237       -0.07619158279825        1.18607737501470
N           61.77568598297638       -0.21964652488644        1.41284052255986
N           58.93849184925367       -0.07279689060934        1.40974391955102
C           60.18636988852916        0.34405544203493       -4.93941423609416
C           60.25237293549681       -0.81183205467510       -5.72685874897382
C           60.21294635132600       -0.71851921503616       -7.11743890811520
C           60.10732856067118        0.53705316796039       -7.74801668663229
C           60.06524809551146        0.63053686448506       -9.23499396808915
O           59.96245519075691        1.87719461054411       -9.82983890207230
O           60.12095244232760       -0.38705315617322       -9.93006824403272
C           60.04296254309465        1.68970745451275       -6.94917208380085
C           60.08244917457701        1.59446122789594       -5.55965355675968
H           64.76256103113754       -0.09231614992949       -0.16402330840865
H           64.72562749165196       -0.08296798878529       -2.79399382840145
H           62.90027547952418        0.08530475098534       -4.58746452649697
H           57.47784233560930        0.82828407075622       -4.42299084827770
H           55.65915381372776        0.72852047686092       -2.60930381728169
H           55.98142762113165       -1.17509606723628        2.41811707367155
H           57.93999833219070       -1.37143988228692        4.29109985082419
H           61.60950926098783       -2.20453508377105        5.11622967469048
H           61.55543913603788       -2.27328561985188        7.56584860928433
H           59.60778460943735        0.45228594974530       10.96094567724754
H           59.17242623982459        1.32958310364099        7.60239158820717
H           59.23975601463054        1.39149853339576        5.15335611812200
H           63.18447538087639        0.05767847332936        4.48429951494582
H           64.87326355817081        0.18338335110513        2.53458855020747
H           60.33289942308192       -1.78686410083506       -5.25595023204693
H           60.26461051759184       -1.62995484923696       -7.70372097329905
H           59.93294285029615        1.95715028516853      -10.83005638343915
H           59.96110419248184        2.66980126424914       -7.40502224269970
H           60.03160890098558        2.49689470743411       -4.95901924092040
C           43.64700674059331        0.01300232552600       -0.02091628233423
C           44.81772890032572        0.02214845140890       -0.02714456696515
C           54.02905247731718        0.02499703084448       -0.02458163389905
C           55.20819744780101        0.01312809135410       -0.01933692048644
Zn          49.41632663047577        0.00458860758915       -0.02870363054787
C           46.07851770436141       -0.01960837608098        0.04695556380315
C           46.65659367195128       -1.21971850766029        0.03270984859288
C           45.97882436760931       -2.50667592455261       -0.07501376369661
C           46.92279829945662       -3.44235104045793       -0.01747801657236
C           48.21086179699815       -2.77211366961473        0.13767424334538
N           48.03004778891158       -1.37391854523480        0.15970250290389
C           49.40857077130860       -3.40940949362565        0.25834733067404
C           50.68640609857559       -2.70905096247515        0.37697337423800
C           51.94737916473314       -3.34862571674188        0.75185254134238
C           52.90764583000114       -2.42416695595216        0.69706472894038
N           50.86445113161398       -1.43796021928781        0.11185624715376
C           52.22827427883821       -1.20804447782782        0.29642055555962
C           52.77133480769423       -0.02174452812607        0.04083310337255
C           52.09804512034896        1.18807349595668       -0.34199758623759
C           52.65890927541714        2.25395271467392       -0.95833151526210
C           51.64143668657703        3.25676834933897       -1.03979120092445
C           50.52581379009692        2.74946819848092       -0.46183016233242
C           49.28955402820738        3.50758631278707       -0.24362990726319
C           49.34134745422330        4.99252838528755       -0.25244389318246
C           50.11339809193873        5.67403469658820        0.69699186214416
C           50.18674471015508        7.06588616807942        0.67857118662036
C           49.49415432616624        7.80835308163123       -0.29839577569033
C           49.57246244928191        9.29647121499895       -0.30945966610899
O           48.93864414633296        9.99941962910780       -1.32322003035925
O           50.18678525137399        9.89710475586993        0.57558860639918
C           48.73136918065789        7.11918907924671       -1.25327814163706
C           48.65546321781666        5.72790728046519       -1.23071976053201
C           48.11060645539906        2.88392624575782       -0.01785942425515
C           46.84311624888331        3.52627711000137        0.28631710590846
C           45.94345215419202        2.54692151237540        0.36617537827856
C           46.65589238625135        1.29272700263645        0.12054647536008
N           47.91771838714919        1.48504063703485       -0.10269500350994
N           50.75976545780897        1.43097618692007       -0.01174155067748
C           49.44143677606626       -4.89205543341209        0.26396338957204
C           48.92752344448829       -5.61653704355318        1.34934180987666
C           48.98837909928123       -7.00973696741366        1.35872231766924
C           49.56764629435849       -7.70834439119365        0.28024882456959
C           49.63269904202100       -9.19776146607625        0.29684088563124
O           50.20314182042296       -9.85964986424809       -0.77777950436199
O           49.18594036756853       -9.83584923356713        1.25316344773107
C           50.08161740996877       -6.97448534610607       -0.80148095986891
C           50.02114071116682       -5.58240734375491       -0.80889738955880
H           44.92387191166624       -2.71704239464860       -0.19159300533578
H           46.73397910335776       -4.50398705750030       -0.08471624006472
H           52.10012360174865       -4.37913278428483        1.02623034710514
H           53.95480527742947       -2.59492030628805        0.91866088679785
H           53.68141300546340        2.34139995253284       -1.29498174614618
H           51.74288184635145        4.25067438519776       -1.44673354697414
H           50.65610603204719        5.11852351201685        1.45543908022599
H           50.79085317474871        7.56556746557766        1.42731978797069
H           48.98067897106224       11.00204057215754       -1.34418142692087
H           48.18984565850616        7.66270250683178       -2.02086174082320
H           48.06740302986876        5.21532959217362       -1.98509128028671
H           46.63956061194389        4.57798159102734        0.43272744806564
H           44.89704602257658        2.69288484278472        0.58527391157668
H           48.48340180069120       -5.09426823293784        2.19216895832683
H           48.58392941332396       -7.54513880644741        2.21226012759038
H           50.25387339934104      -10.86253628096000       -0.78168656389538
H           50.53520708654334       -7.48333267936003       -1.64532617364871
H           50.42564860606812       -5.03445519166926       -1.65463324780449
189
 energy: -351.222043831971 gnorm: 0.282147282418 xtb: 6.5.1 (b24c23e)
Zn          38.59637948039867        0.01175225787995       -0.00383530011400
C           35.18394509385858       -0.08687619693569        0.05827299235298
C           35.85555551043215       -0.19123965509357        1.24307657926206