      -----------------------------------------------------------      
     |                   =====================                   |     
     |                           x T B                           |     
     |                   =====================                   |     
     |                         S. Grimme                         |     
     |          Mulliken Center for Theoretical Chemistry        |     
     |                    University of Bonn                     |     
      -----------------------------------------------------------      

   * xtb version 6.5.1 (b24c23e) compiled by 'conda@728c89f4b128' on 2022-07-12

   xtb is free software: you can redistribute it and/or modify it under
   the terms of the GNU Lesser General Public License as published by
   the Free Software Foundation, either version 3 of the License, or
   (at your option) any later version.
   
   xtb is distributed in the hope that it will be useful,
   but WITHOUT ANY WARRANTY; without even the implied warranty of
   MERCHANTABILITY or FITNESS FOR A PARTICULAR PURPOSE.  See the
   GNU Lesser General Public License for more details.
   
   Cite this work as:
   * C. Bannwarth, E. Caldeweyher, S. Ehlert, A. Hansen, P. Pracht,
     J. Seibert, S. Spicher, S. Grimme, WIREs Comput. Mol. Sci., 2020, 11,
     e01493. DOI: 10.1002/wcms.1493
   
   for GFN2-xTB:
   * C. Bannwarth, S. Ehlert and S. Grimme., J. Chem. Theory Comput., 2019,
     15, 1652-1671. DOI: 10.1021/acs.jctc.8b01176
   for GFN1-xTB:
   * S. Grimme, C. Bannwarth, P. Shushkov, J. Chem. Theory Comput., 2017,
     13, 1989-2009. DOI: 10.1021/acs.jctc.7b00118
   for GFN0-xTB:
   * P. Pracht, E. Caldeweyher, S. Ehlert, S. Grimme, ChemRxiv, 2019, preprint.
     DOI: 10.26434/chemrxiv.8326202.v1
   for GFN-FF:
   * S. Spicher and S. Grimme, Angew. Chem. Int. Ed., 2020, 59, 15665-15673.
     DOI: 10.1002/anie.202004239
   
   for ALPB and GBSA implicit solvation:
   * S. Ehlert, M. Stahn, S. Spicher, S. Grimme, J. Chem. Theory Comput.,
     2021, 17, 4250-4261. DOI: 10.1021/acs.jctc.1c00471
   
   for DFT-D4:
   * E. Caldeweyher, C. Bannwarth and S. Grimme, J. Chem. Phys., 2017,
     147, 034112. DOI: 10.1063/1.4993215
   * E. Caldeweyher, S. Ehlert, A. Hansen, H. Neugebauer, S. Spicher,
     C. Bannwarth and S. Grimme, J. Chem. Phys., 2019, 150, 154122.
     DOI: 10.1063/1.5090222
   * E. Caldeweyher, J.-M. Mewes, S. Ehlert and S. Grimme, Phys. Chem. Chem. Phys.
     2020, 22, 8499-8512. DOI: 10.1039/D0CP00502A
   
   for sTDA-xTB:
   * S. Grimme and C. Bannwarth, J. Chem. Phys., 2016, 145, 054103.
     DOI: 10.1063/1.4959605
   
   in the mass-spec context:
   * V. Asgeirsson, C. Bauer and S. Grimme, Chem. Sci., 2017, 8, 4879.
     DOI: 10.1039/c7sc00601b
   * J. Koopman and S. Grimme, ACS Omega 2019, 4, 12, 15120-15133.
     DOI: 10.1021/acsomega.9b02011
   
   for metadynamics refer to:
   * S. Grimme, J. Chem. Theory Comput., 2019, 155, 2847-2862
     DOI: 10.1021/acs.jctc.9b00143
   
   for SPH calculations refer to:
   * S. Spicher and S. Grimme, J. Chem. Theory Comput., 2021, 17, 1701-1714
     DOI: 10.1021/acs.jctc.0c01306
   
   with help from (in alphabetical order)
   P. Atkinson, C. Bannwarth, F. Bohle, G. Brandenburg, E. Caldeweyher
   M. Checinski, S. Dohm, S. Ehlert, S. Ehrlich, I. Gerasimov, C. Hölzer
   A. Katbashev, J. Koopman, C. Lavigne, S. Lehtola, F. März, M. Müller,
   F. Musil, H. Neugebauer, J. Pisarek, C. Plett, P. Pracht, F. Pultar,
   J. Seibert, P. Shushkov, S. Spicher, M. Stahn, M. Steiner, T. Strunk,
   J. Stückrath, T. Rose, and J. Unsleber
   
 * started run on 2022/07/26 at 14:26:04.846     

           -------------------------------------------------
          |                Calculation Setup                |
           -------------------------------------------------

          program call               : xtb H_C4_6.xyz --gfn 1 --opt -T 48
          hostname                   : cx3-6-14.cx3.hpc.ic.ac.uk
          coordinate file            : H_C4_6.xyz
          omp threads                :                     1

   ID    Z sym.   atoms
    1    6 C      1-5, 7-10, 12-17, 19-23, 38-42, 44-47, 49-54, 56-60, 75-99,
                  101-104, 106-111, 113-117, 131-135, 137-140, 142-147,
                  149-153, 167-171, 173-176, 178-183, 185-189, 203-207,
                  209-212, 214-219, 221-225
    2    7 N      6, 11, 18, 24, 43, 48, 55, 61, 100, 105, 112, 118, 136,
                  141, 148, 154, 172, 177, 184, 190, 208, 213, 220, 226
    3    1 H      25-37, 62-74, 119-130, 155-166, 191-202, 227-238

molecular fragmentation (1/2 indicates fragments):
111111111111111111111111111111111111122222222222222222222222222222222222
222222222222222222222222222222222222222222222222222222222222222222222222
222222222222222222222222222222222222222222222222222222222222222222222222
2222222222222222222222
# atoms in fragment 1/2:    37   201
 fragment masses (1/2) :      309.34     1782.91
CMA distance (Bohr)    :  81.851
constraining FC (au)   :  0.0500
########################################################################
[WARNING] Please study the warnings concerning your input carefully
-1- prog_main_parseArguments: Unknown option '-T' provided
########################################################################

           -------------------------------------------------
          |                 G F N 1 - x T B                 |
           -------------------------------------------------

        Reference                      10.1021/acs.jctc.7b00118
      * Hamiltonian:
        H0-scaling (s, p, d)           1.850000    2.250000    2.000000
        zeta-weighting                 0.000000
      * Dispersion:
        s8                             2.400000
        a1                             0.630000
        a2                             5.000000
        s9                             0.000000
      * Repulsion:
        kExp                           1.500000
        rExp                           1.000000
      * Coulomb:
        alpha                          2.000000
        third order                    atomic
        anisotropic                    false
      * Halogen bond correction:
        rad-scale                      1.300000
        damping                        0.440000


          ...................................................
          :                      SETUP                      :
          :.................................................:
          :  # basis functions                 804          :
          :  # atomic orbitals                 804          :
          :  # shells                          476          :
          :  # electrons                       754          :
          :  # halogen bonds                     0          :
          :  max. iterations                   250          :
          :  Hamiltonian                  GFN1-xTB          :
          :  restarted?                      false          :
          :  GBSA solvation                  false          :
          :  PC potential                    false          :
          :  electronic temp.          300.0000000     K    :
          :  accuracy                    1.0000000          :
          :  -> integral cutoff          0.2500000E+02      :
          :  -> integral neglect         0.1000000E-07      :
          :  -> SCF convergence          0.1000000E-05 Eh   :
          :  -> wf. convergence          0.2000000E-04 e    :
          :  Broyden damping             0.4000000          :
          ...................................................

 iter      E             dE          RMSdq      gap      omega  full diag
   1   -415.8333164 -0.415833E+03  0.104E+01    0.20       0.0  T
   2   -377.7434970  0.380898E+02  0.780E+00    0.05       1.0  T
   3   1905.6413696  0.228338E+04  0.192E+01    0.07       1.0  T
   4   2623.8455198  0.718204E+03  0.215E+01    0.14       1.0  T
   5   -348.1314398 -0.297198E+04  0.642E+00    0.16       1.0  T
   6     87.6900518  0.435821E+03  0.102E+01    0.01       1.0  T
   7   -356.7148369 -0.444405E+03  0.517E+00    0.07       1.0  T
   8   -372.1137597 -0.153989E+02  0.457E+00    0.00       1.0  T
   9   -407.2562263 -0.351425E+02  0.293E+00    0.05       1.0  T
  10   -405.9184931  0.133773E+01  0.242E+00    0.07       1.0  T
  11   -402.8321166  0.308638E+01  0.267E+00    0.14       1.0  T
  12   -409.2722402 -0.644012E+01  0.229E+00    0.03       1.0  T
  13   -408.8953016  0.376939E+00  0.199E+00    0.02       1.0  T
  14   -411.0804696 -0.218517E+01  0.170E+00    0.03       1.0  T
  15   -407.5841996  0.349627E+01  0.212E+00    0.03       1.0  T
  16   -410.0689240 -0.248472E+01  0.160E+00    0.15       1.0  T
  17   -412.7003833 -0.263146E+01  0.130E+00    0.02       1.0  T
  18   -414.1450558 -0.144467E+01  0.110E+00    0.08       1.0  T
  19   -414.4413846 -0.296329E+00  0.120E+00    0.03       1.0  T
  20   -416.2595156 -0.181813E+01  0.948E-01    0.01       1.0  T
  21   -415.8048830  0.454633E+00  0.114E+00    0.12       1.0  T
  22   -415.8570497 -0.521666E-01  0.113E+00    0.11       1.0  T
  23   -415.9382493 -0.811996E-01  0.110E+00    0.09       1.0  T
  24   -416.2236485 -0.285399E+00  0.102E+00    0.03       1.0  T
  25   -416.4506668 -0.227018E+00  0.100E+00    0.03       1.0  T
  26   -416.7019953 -0.251329E+00  0.815E-01    0.03       1.0  T
  27   -416.5073179  0.194677E+00  0.920E-01    0.12       1.0  T
  28   -416.7294050 -0.222087E+00  0.771E-01    0.05       1.0  T
  29   -416.4506234  0.278782E+00  0.782E-01    0.14       1.0  T
  30   -416.6828786 -0.232255E+00  0.589E-01    0.05       1.0  T
  31   -416.8299901 -0.147111E+00  0.387E-01    0.00       1.0  T
  32   -416.4733189  0.356671E+00  0.738E-01    0.14       1.0  T
  33   -416.5526724 -0.793535E-01  0.692E-01    0.21       1.0  T
  34   -416.5995056 -0.468332E-01  0.661E-01    0.21       1.0  T
  35   -416.6756687 -0.761631E-01  0.602E-01    0.14       1.0  T
  36   -416.8661386 -0.190470E+00  0.451E-01    0.02       1.0  T
  37   -416.8439424  0.221961E-01  0.462E-01    0.03       1.0  T
  38   -416.8999116 -0.559691E-01  0.429E-01    0.02       1.0  T
  39   -416.8882137  0.116979E-01  0.432E-01    0.02       1.0  T
  40   -416.9153949 -0.271812E-01  0.379E-01    0.00       1.0  T
  41   -416.9307450 -0.153501E-01  0.326E-01    0.04       1.0  T
  42   -416.9580479 -0.273029E-01  0.288E-01    0.02       1.0  T
  43   -416.9283923  0.296555E-01  0.289E-01    0.07       1.0  T
  44   -416.9492546 -0.208622E-01  0.248E-01    0.06       1.0  T
  45   -416.9416545  0.760009E-02  0.252E-01    0.05       1.0  T
  46   -416.9991251 -0.574706E-01  0.128E-01    0.02       1.0  T
  47   -416.9564672  0.426578E-01  0.210E-01    0.05       1.0  T
  48   -417.0071688 -0.507016E-01  0.651E-02    0.00       1.0  T
  49   -416.9856008  0.215680E-01  0.146E-01    0.03       1.0  T
  50   -417.0090541 -0.234533E-01  0.429E-02    0.01       1.0  T
  51   -417.0078261  0.122803E-02  0.547E-02    0.01       1.0  T
  52   -417.0071836  0.642546E-03  0.586E-02    0.01       1.0  T
  53   -417.0052418  0.194174E-02  0.707E-02    0.02       1.0  T
  54   -417.0107360 -0.549418E-02  0.250E-02    0.01       1.0  T
  55   -417.0090248  0.171122E-02  0.447E-02    0.01       1.0  T
  56   -417.0113247 -0.229996E-02  0.960E-03    0.00       1.0  T
  57   -417.0112038  0.120934E-03  0.127E-02    0.01       1.0  T
  58   -417.0113367 -0.132865E-03  0.683E-03    0.01       1.0  T
  59   -417.0113513 -0.145990E-04  0.564E-03    0.00       1.2  T
  60   -417.0113566 -0.536106E-05  0.462E-03    0.00       1.4  T
  61   -417.0113534  0.318135E-05  0.449E-03    0.00       1.4  T
  62   -417.0113536 -0.188440E-06  0.477E-03    0.00       1.4  T
  63   -417.0113482  0.545090E-05  0.406E-03    0.01       1.6  T
  64   -417.0113581 -0.988492E-05  0.386E-03    0.00       1.7  T
  65   -417.0113667 -0.865128E-05  0.242E-03    0.00       2.7  T
  66   -417.0113674 -0.686536E-06  0.205E-03    0.00       3.2  T
  67   -417.0113690 -0.154948E-05  0.138E-03    0.01       4.7  T
  68   -417.0113708 -0.179858E-05  0.685E-04    0.01       9.5  T
  69   -417.0113709 -0.180894E-06  0.548E-04    0.01      11.8  T
  70   -417.0113707  0.249893E-06  0.702E-04    0.01       9.2  T
  71   -417.0113706  0.932705E-07  0.725E-04    0.01       8.9  T
  72   -417.0113704  0.140197E-06  0.774E-04    0.01       8.4  T
  73   -417.0113708 -0.354166E-06  0.560E-04    0.01      11.6  T
  74   -417.0113712 -0.392672E-06  0.140E-04    0.01      46.4  T
  75   -417.0113712 -0.402315E-08  0.107E-04    0.01      60.3  T

   *** convergence criteria satisfied after 75 iterations ***

         #    Occupation            Energy/Eh            Energy/eV
      -------------------------------------------------------------
         1        2.0000           -0.8088670             -22.0104
       ...           ...                  ...                  ...
       371        2.0000           -0.3943458             -10.7307
       372        2.0000           -0.3937003             -10.7131
       373        2.0000           -0.3867260             -10.5234
       374        2.0000           -0.3865275             -10.5179
       375        1.7851           -0.3752320             -10.2106
       376        1.7684           -0.3751520             -10.2084
       377        1.1763           -0.3735595             -10.1651 (HOMO)
       378        1.0776           -0.3733686             -10.1599 (LUMO)
       379        0.1842           -0.3710472             -10.0967
       380        0.0084           -0.3680292             -10.0146
       381        0.0000           -0.3617205              -9.8429
       382                         -0.3566797              -9.7057
       ...                                ...                  ...
       804                          1.3069789              35.5647
      -------------------------------------------------------------
                  HL-Gap            0.0001908 Eh            0.0052 eV
             Fermi-level           -0.3732209 Eh          -10.1559 eV

 SCC (total)                   0 d,  0 h,  0 min, 15.094 sec
 SCC setup                      ...        0 min,  0.016 sec (  0.109%)
 Dispersion                     ...        0 min,  0.009 sec (  0.059%)
 classical contributions        ...        0 min,  0.002 sec (  0.016%)
 integral evaluation            ...        0 min,  0.250 sec (  1.653%)
 iterations                     ...        0 min, 14.309 sec ( 94.794%)
 molecular gradient             ...        0 min,  0.460 sec (  3.046%)
 printout                       ...        0 min,  0.049 sec (  0.322%)

         :::::::::::::::::::::::::::::::::::::::::::::::::::::
         ::                     SUMMARY                     ::
         :::::::::::::::::::::::::::::::::::::::::::::::::::::
         :: total energy            -410.451914601134 Eh    ::
         :: gradient norm              0.878913556366 Eh/a0 ::
         :: HOMO-LUMO gap              0.005193186740 eV    ::
         ::.................................................::
         :: SCC energy              -417.011371200484 Eh    ::
         :: -> electrostatic           0.341375394622 Eh    ::
         :: repulsion energy           6.744090842711 Eh    ::
         :: dispersion energy         -0.184634243361 Eh    ::
         :: halogen bond corr.         0.000000000000 Eh    ::
         :: add. restraining           0.000000000000 Eh    ::
         :: total charge               0.000000000002 e     ::
         :::::::::::::::::::::::::::::::::::::::::::::::::::::

      ----------------------------------------------------------- 
     |                   =====================                   |
     |                        A N C O P T                        |
     |                   =====================                   |
     |               Approximate Normal Coordinate               |
     |                Rational Function Optimizer                |
      ----------------------------------------------------------- 

          ...................................................
          :                      SETUP                      :
          :.................................................:
          :   optimization level            normal          :
          :   max. optcycles                   714          :
          :   ANC micro-cycles                  20          :
          :   degrees of freedom               708          :
          :.................................................:
          :   RF solver                   davidson          :
          :   write xtbopt.log                true          :
          :   linear?                        false          :
          :   energy convergence         0.5000000E-05 Eh   :
          :   grad. convergence          0.1000000E-02 Eh/α :
          :   maximium RF displ.         1.0000000          :
          :   Hlow (freq-cutoff)         0.1000000E-01      :
          :   Hmax (freq-cutoff)         5.0000000          :
          :   S6 in model hess.         20.0000000          :
          ...................................................

generating ANC from model Hessian ...
Using Lindh-Hessian (1995)
 Shifting diagonal of input Hessian by    1.0321426853047782E-002
 Lowest  eigenvalues of input Hessian
    0.010000    0.010134    0.010279    0.010281    0.010283    0.010288
    0.010299    0.010312    0.010314    0.010314    0.010318    0.010318
    0.010321    0.010321    0.000000    0.000000    0.000000    0.000000
 Highest eigenvalues
    2.184285    2.457616    2.646512    2.655775    2.655775    2.655776


........................................................................
.............................. CYCLE    1 ..............................
........................................................................
   1   -417.0113712 -0.417011E+03  0.105E-04    0.01       0.0  T
   2   -417.0113173  0.539194E-04  0.673E-03    0.00       1.0  T
   3   -417.0113710 -0.536740E-04  0.509E-04    0.01      12.7  T
   4   -417.0113712 -0.224726E-06  0.196E-04    0.01      33.1  T
   5   -417.0113712 -0.104665E-07  0.159E-04    0.01      40.7  T
     SCC iter.                  ...        0 min,  0.972 sec
     gradient                   ...        0 min,  0.475 sec
 * total energy  :  -410.4519146 Eh     change        0.1109674E-07 Eh
   gradient norm :     0.8789149 Eh/α   predicted     0.0000000E+00 (-100.00%)
   displ. norm   :     0.5646619 α      lambda       -0.4433084E+00
   maximum displ.:     0.1269031 α      in ANC's #508, #473, #655, ...

........................................................................
.............................. CYCLE    2 ..............................
........................................................................
   1   -416.9451571 -0.416945E+03  0.571E-01    0.09       0.0  T
   2   -416.0165061  0.928651E+00  0.138E+00    0.22       1.0  T
   3   -415.4690132  0.547493E+00  0.133E+00    0.15       1.0  T
   4   -416.5912961 -0.112228E+01  0.769E-01    0.21       1.0  T
   5   -416.9445769 -0.353281E+00  0.551E-01    0.02       1.0  T
   6   -416.6569563  0.287621E+00  0.684E-01    0.05       1.0  T
   7   -416.7784525 -0.121496E+00  0.635E-01    0.10       1.0  T
   8   -416.8733444 -0.948919E-01  0.556E-01    0.03       1.0  T
   9   -417.1312306 -0.257886E+00  0.191E-01    0.03       1.0  T
  10   -416.9536665  0.177564E+00  0.419E-01    0.10       1.0  T
  11   -417.1416215 -0.187955E+00  0.145E-01    0.02       1.0  T
  12   -417.1433826 -0.176109E-02  0.142E-01    0.03       1.0  T
  13   -417.1621958 -0.188132E-01  0.635E-02    0.01       1.0  T
  14   -417.1633977 -0.120189E-02  0.584E-02    0.00       1.0  T
  15   -417.1596835  0.371417E-02  0.792E-02    0.02       1.0  T
  16   -417.1620834 -0.239986E-02  0.614E-02    0.01       1.0  T
  17   -417.1586905  0.339286E-02  0.834E-02    0.01       1.0  T
  18   -417.1663114 -0.762090E-02  0.216E-02    0.01       1.0  T
  19   -417.1662691  0.423445E-04  0.259E-02    0.00       1.0  T
  20   -417.1669440 -0.674952E-03  0.770E-03    0.01       1.0  T
  21   -417.1669988 -0.547782E-04  0.307E-03    0.00       2.1  T
  22   -417.1669958  0.301517E-05  0.262E-03    0.00       2.5  T
  23   -417.1670031 -0.729704E-05  0.134E-03    0.00       4.8  T
  24   -417.1670053 -0.219542E-05  0.245E-04    0.00      26.4  T
  25   -417.1670049  0.358023E-06  0.573E-04    0.00      11.3  T
  26   -417.1670052 -0.313789E-06  0.264E-04    0.00      24.5  T
  27   -417.1670053 -0.378653E-07  0.202E-04    0.00      32.1  T
  28   -417.1670053 -0.231084E-07  0.144E-04    0.00      45.1  T
  29   -417.1670053 -0.807006E-08  0.118E-04    0.00      54.8  T
     SCC iter.                  ...        0 min,  6.759 sec
     gradient                   ...        0 min,  0.547 sec
 * total energy  :  -410.8287489 Eh     change       -0.3768343E+00 Eh
   gradient norm :     0.6027499 Eh/α   predicted    -0.2923412E+00 ( -22.42%)
   displ. norm   :     0.6952098 α      lambda       -0.3881457E+00
   maximum displ.:     0.1440801 α      in ANC's #655, #633, #508, ...

........................................................................
.............................. CYCLE    3 ..............................
........................................................................
   1   -417.2406307 -0.417241E+03  0.603E-01    0.24       0.0  T
   2   -416.3881667  0.852464E+00  0.141E+00    0.03       1.0  T
   3   -415.7411921  0.646975E+00  0.128E+00    0.08       1.0  T
   4   -416.4401464 -0.698954E+00  0.994E-01    0.22       1.0  T
   5   -417.0495191 -0.609373E+00  0.659E-01    0.02       1.0  T
   6   -416.3833604  0.666159E+00  0.948E-01    0.30       1.0  T
   7   -417.0748567 -0.691496E+00  0.770E-01    0.17       1.0  T
   8   -417.2353933 -0.160537E+00  0.533E-01    0.07       1.0  T
   9   -417.1793066  0.560866E-01  0.474E-01    0.02       1.0  T
  10   -417.2463645 -0.670579E-01  0.398E-01    0.06       1.0  T
  11   -417.2882994 -0.419348E-01  0.353E-01    0.04       1.0  T
  12   -417.3732440 -0.849446E-01  0.245E-01    0.03       1.0  T
  13   -417.4459571 -0.727131E-01  0.125E-01    0.00       1.0  T
  14   -417.4149601  0.309970E-01  0.196E-01    0.01       1.0  T
  15   -417.4143005  0.659564E-03  0.199E-01    0.02       1.0  T
  16   -417.4563245 -0.420240E-01  0.782E-02    0.02       1.0  T
  17   -417.4484310  0.789349E-02  0.109E-01    0.02       1.0  T
  18   -417.4551882 -0.675716E-02  0.743E-02    0.03       1.0  T
  19   -417.4606237 -0.543554E-02  0.337E-02    0.03       1.0  T
  20   -417.4620501 -0.142641E-02  0.115E-02    0.04       1.0  T
  21   -417.4620706 -0.204883E-04  0.129E-02    0.04       1.0  T
  22   -417.4622353 -0.164696E-03  0.676E-03    0.04       1.0  T
  23   -417.4622758 -0.405086E-04  0.345E-03    0.04       1.9  T
  24   -417.4622805 -0.467290E-05  0.170E-03    0.04       3.8  T
  25   -417.4622798  0.731697E-06  0.192E-03    0.04       3.4  T
  26   -417.4622838 -0.401787E-05  0.381E-04    0.04      17.0  T
  27   -417.4622838 -0.135257E-07  0.374E-04    0.04      17.3  T
  28   -417.4622840 -0.143946E-06  0.107E-04    0.04      60.6  T
  29   -417.4622840 -0.101930E-07  0.770E-05    0.04      84.2  T
     SCC iter.                  ...        0 min,  6.452 sec
     gradient                   ...        0 min,  0.533 sec
 * total energy  :  -411.0789148 Eh     change       -0.2501658E+00 Eh
   gradient norm :     0.2574527 Eh/α   predicted    -0.2879093E+00 (  15.09%)
   displ. norm   :     0.6399641 α      lambda       -0.1095076E+00
   maximum displ.:     0.2277240 α      in ANC's #114, #227, #140, ...

........................................................................
.............................. CYCLE    4 ..............................
........................................................................
   1   -417.5059425 -0.417506E+03  0.426E-01    0.20       0.0  T
   2   -416.2593250  0.124662E+01  0.142E+00    0.10       1.0  T
   3   -416.0226446  0.236680E+00  0.128E+00    0.16       1.0  T
   4   -417.1644249 -0.114178E+01  0.745E-01    0.04       1.0  T
   5   -417.3190293 -0.154604E+00  0.724E-01    0.00       1.0  T
   6   -417.1523782  0.166651E+00  0.740E-01    0.07       1.0  T
   7   -417.5798629 -0.427485E+00  0.300E-01    0.06       1.0  T
   8   -417.5859917 -0.612884E-02  0.264E-01    0.10       1.0  T
   9   -417.6135520 -0.275602E-01  0.160E-01    0.05       1.0  T
  10   -417.6262652 -0.127133E-01  0.121E-01    0.05       1.0  T
  11   -417.6094863  0.167789E-01  0.188E-01    0.07       1.0  T
  12   -417.6193487 -0.986238E-02  0.158E-01    0.06       1.0  T
  13   -417.6270829 -0.773419E-02  0.139E-01    0.06       1.0  T
  14   -417.6367601 -0.967717E-02  0.563E-02    0.04       1.0  T
  15   -417.6373081 -0.548031E-03  0.648E-02    0.06       1.0  T
  16   -417.6394417 -0.213358E-02  0.271E-02    0.05       1.0  T
  17   -417.6395605 -0.118835E-03  0.222E-02    0.05       1.0  T
  18   -417.6397526 -0.192122E-03  0.189E-02    0.06       1.0  T
  19   -417.6399186 -0.165938E-03  0.125E-02    0.06       1.0  T
  20   -417.6400190 -0.100468E-03  0.354E-03    0.06       1.8  T
  21   -417.6400334 -0.143562E-04  0.133E-03    0.06       4.9  T
  22   -417.6400348 -0.134816E-05  0.477E-04    0.06      13.6  T
  23   -417.6400349 -0.130902E-06  0.275E-04    0.06      23.6  T
  24   -417.6400349 -0.393427E-07  0.168E-04    0.06      38.5  T
  25   -417.6400349 -0.984721E-08  0.113E-04    0.06      57.4  T
     SCC iter.                  ...        0 min,  5.374 sec
     gradient                   ...        0 min,  0.521 sec
 * total energy  :  -411.1591743 Eh     change       -0.8025954E-01 Eh
   gradient norm :     0.1345079 Eh/α   predicted    -0.7717875E-01 (  -3.84%)
   displ. norm   :     0.6960643 α      lambda       -0.6134975E-01
   maximum displ.:     0.3326122 α      in ANC's #114, #227, #140, ...

........................................................................
.............................. CYCLE    5 ..............................
........................................................................
   1   -417.7484594 -0.417748E+03  0.304E-01    0.15       0.0  T
   2   -416.9143273  0.834132E+00  0.125E+00    0.01       1.0  T
   3   -416.7291177  0.185210E+00  0.106E+00    0.17       1.0  T
   4   -417.2317939 -0.502676E+00  0.799E-01    0.05       1.0  T
   5   -417.5907866 -0.358993E+00  0.578E-01    0.02       1.0  T
   6   -417.6771437 -0.863571E-01  0.439E-01    0.01       1.0  T
   7   -417.7663574 -0.892137E-01  0.263E-01    0.11       1.0  T
   8   -417.7616932  0.466412E-02  0.267E-01    0.10       1.0  T
   9   -417.7896029 -0.279096E-01  0.173E-01    0.09       1.0  T
  10   -417.8124505 -0.228476E-01  0.387E-02    0.06       1.0  T
  11   -417.8125924 -0.141925E-03  0.380E-02    0.07       1.0  T
  12   -417.8130469 -0.454480E-03  0.286E-02    0.06       1.0  T
  13   -417.8136246 -0.577718E-03  0.765E-03    0.07       1.0  T
  14   -417.8136587 -0.340917E-04  0.342E-03    0.07       1.9  T
  15   -417.8136701 -0.113848E-04  0.181E-03    0.07       3.6  T
  16   -417.8136699  0.147634E-06  0.139E-03    0.07       4.7  T
  17   -417.8136711 -0.118467E-05  0.148E-03    0.07       4.4  T
  18   -417.8136725 -0.139509E-05  0.648E-04    0.07      10.0  T
  19   -417.8136725  0.262873E-07  0.696E-04    0.07       9.3  T
  20   -417.8136728 -0.300838E-06  0.193E-04    0.07      33.5  T
  21   -417.8136728 -0.413872E-07  0.693E-05    0.07      93.5  T
     SCC iter.                  ...        0 min,  4.459 sec
     gradient                   ...        0 min,  0.513 sec
 * total energy  :  -411.2029063 Eh     change       -0.4373199E-01 Eh
   gradient norm :     0.0968858 Eh/α   predicted    -0.4553752E-01 (   4.13%)
   displ. norm   :     0.7077140 α      lambda       -0.3741012E-01
   maximum displ.:     0.4404783 α      in ANC's #114, #94, #140, ...

........................................................................
.............................. CYCLE    6 ..............................
........................................................................
   1   -417.8995409 -0.417900E+03  0.269E-01    0.09       0.0  T
   2   -416.7604551  0.113909E+01  0.137E+00    0.22       1.0  T
   3   -417.2576151 -0.497160E+00  0.880E-01    0.13       1.0  T
   4   -417.6925115 -0.434896E+00  0.654E-01    0.05       1.0  T
   5   -417.7231607 -0.306492E-01  0.575E-01    0.00       1.0  T
   6   -417.5802296  0.142931E+00  0.659E-01    0.02       1.0  T
   7   -417.9270824 -0.346853E+00  0.169E-01    0.09       1.0  T
   8   -417.9113236  0.157588E-01  0.184E-01    0.06       1.0  T
   9   -417.9356029 -0.242793E-01  0.119E-01    0.10       1.0  T
  10   -417.9350371  0.565760E-03  0.108E-01    0.07       1.0  T
  11   -417.9438566 -0.881951E-02  0.574E-02    0.07       1.0  T
  12   -417.9457551 -0.189848E-02  0.469E-02    0.07       1.0  T
  13   -417.9475132 -0.175808E-02  0.201E-02    0.07       1.0  T
  14   -417.9476352 -0.122051E-03  0.157E-02    0.07       1.0  T
  15   -417.9478603 -0.225084E-03  0.855E-03    0.07       1.0  T
  16   -417.9479056 -0.453499E-04  0.421E-03    0.07       1.5  T
  17   -417.9479071 -0.149807E-05  0.333E-03    0.07       1.9  T
  18   -417.9479120 -0.487207E-05  0.240E-03    0.07       2.7  T
  19   -417.9479180 -0.602815E-05  0.118E-03    0.07       5.5  T
  20   -417.9479195 -0.148804E-05  0.361E-04    0.07      17.9  T
  21   -417.9479196 -0.108505E-06  0.222E-04    0.07      29.2  T
  22   -417.9479197 -0.381582E-07  0.667E-05    0.07      97.2  T
  23   -417.9479197 -0.450814E-08  0.326E-05    0.07     198.8  T
     SCC iter.                  ...        0 min,  4.894 sec
     gradient                   ...        0 min,  0.499 sec
 * total energy  :  -411.2285541 Eh     change       -0.2564783E-01 Eh
   gradient norm :     0.0698230 Eh/α   predicted    -0.2807368E-01 (   9.46%)
   displ. norm   :     0.6541705 α      lambda       -0.1972666E-01
   maximum displ.:     0.4706826 α      in ANC's #114, #94, #140, ...

........................................................................
.............................. CYCLE    7 ..............................
........................................................................
   1   -418.0555035 -0.418056E+03  0.663E-02    0.06       0.0  T
   2   -417.7047736  0.350730E+00  0.720E-01    0.18       1.0  T
   3   -417.9611539 -0.256380E+00  0.367E-01    0.04       1.0  T
   4   -418.0414622 -0.803083E-01  0.134E-01    0.04       1.0  T
   5   -418.0236072  0.178550E-01  0.166E-01    0.04       1.0  T
   6   -418.0439501 -0.203429E-01  0.130E-01    0.11       1.0  T
   7   -418.0383060  0.564412E-02  0.127E-01    0.05       1.0  T
   8   -418.0462767 -0.797073E-02  0.127E-01    0.08       1.0  T
   9   -418.0566835 -0.104069E-01  0.363E-02    0.07       1.0  T
  10   -418.0579021 -0.121857E-02  0.260E-02    0.06       1.0  T
  11   -418.0580416 -0.139445E-03  0.215E-02    0.07       1.0  T
  12   -418.0583414 -0.299844E-03  0.746E-03    0.07       1.0  T
  13   -418.0583718 -0.304071E-04  0.300E-03    0.07       2.2  T
  14   -418.0583773 -0.551197E-05  0.121E-03    0.07       5.3  T
  15   -418.0583782 -0.892027E-06  0.869E-04    0.07       7.5  T
  16   -418.0583788 -0.569064E-06  0.314E-04    0.07      20.7  T
  17   -418.0583788 -0.522762E-07  0.172E-04    0.07      37.7  T
  18   -418.0583789 -0.173869E-07  0.750E-05    0.07      86.4  T
     SCC iter.                  ...        0 min,  3.760 sec
     gradient                   ...        0 min,  0.498 sec
 * total energy  :  -411.2429431 Eh     change       -0.1438899E-01 Eh
   gradient norm :     0.0322659 Eh/α   predicted    -0.1408424E-01 (  -2.12%)
   displ. norm   :     0.6482485 α      lambda       -0.1072685E-01
   maximum displ.:     0.4624515 α      in ANC's #114, #94, #140, ...

........................................................................
.............................. CYCLE    8 ..............................
........................................................................
   1   -418.1251027 -0.418125E+03  0.763E-02    0.05       0.0  T
   2   -417.8239665  0.301136E+00  0.677E-01    0.40       1.0  T
   3   -418.0935467 -0.269580E+00  0.190E-01    0.15       1.0  T
   4   -418.1168256 -0.232789E-01  0.126E-01    0.11       1.0  T
   5   -418.1200911 -0.326553E-02  0.104E-01    0.08       1.0  T
   6   -418.1250188 -0.492766E-02  0.798E-02    0.05       1.0  T
   7   -418.1098211  0.151977E-01  0.141E-01    0.04       1.0  T
   8   -418.1267243 -0.169032E-01  0.399E-02    0.06       1.0  T
   9   -418.1292364 -0.251206E-02  0.171E-02    0.07       1.0  T
  10   -418.1295800 -0.343589E-03  0.798E-03    0.07       1.0  T
  11   -418.1296286 -0.486028E-04  0.145E-03    0.07       4.5  T
  12   -418.1296247  0.387415E-05  0.303E-03    0.07       2.1  T
  13   -418.1296306 -0.591331E-05  0.504E-04    0.07      12.9  T
  14   -418.1296309 -0.259599E-06  0.227E-04    0.07      28.6  T
  15   -418.1296309 -0.148647E-07  0.164E-04    0.07      39.6  T
  16   -418.1296309 -0.192842E-07  0.624E-05    0.07     103.9  T
     SCC iter.                  ...        0 min,  3.478 sec
     gradient                   ...        0 min,  0.517 sec
 * total energy  :  -411.2491988 Eh     change       -0.6255673E-02 Eh
   gradient norm :     0.0312095 Eh/α   predicted    -0.7617310E-02 (  21.77%)
   displ. norm   :     0.6819564 α      lambda       -0.9517536E-02
   maximum displ.:     0.4395730 α      in ANC's #114, #74, #94, ...

........................................................................
.............................. CYCLE    9 ..............................
........................................................................
   1   -418.1700837 -0.418170E+03  0.853E-02    0.04       0.0  T
   2   -417.8954841  0.274600E+00  0.644E-01    0.25       1.0  T
   3   -417.9539885 -0.585044E-01  0.471E-01    0.07       1.0  T
   4   -418.1372930 -0.183304E+00  0.210E-01    0.17       1.0  T
   5   -418.1507015 -0.134085E-01  0.180E-01    0.12       1.0  T
   6   -418.1548445 -0.414301E-02  0.138E-01    0.07       1.0  T
   7   -418.1658649 -0.110204E-01  0.876E-02    0.05       1.0  T
   8   -418.1700782 -0.421327E-02  0.805E-02    0.04       1.0  T
   9   -418.1766011 -0.652293E-02  0.102E-02    0.06       1.0  T
  10   -418.1765656  0.355255E-04  0.109E-02    0.07       1.0  T
  11   -418.1766324 -0.668646E-04  0.654E-03    0.06       1.0  T
  12   -418.1766490 -0.166187E-04  0.357E-03    0.06       1.8  T
  13   -418.1766624 -0.133356E-04  0.139E-03    0.06       4.7  T
  14   -418.1766633 -0.965734E-06  0.655E-04    0.06       9.9  T
  15   -418.1766633  0.464223E-07  0.543E-04    0.06      11.9  T
  16   -418.1766637 -0.369514E-06  0.840E-05    0.06      77.2  T
  17   -418.1766637  0.551574E-08  0.123E-04    0.06      52.9  T
     SCC iter.                  ...        0 min,  3.563 sec
     gradient                   ...        0 min,  0.520 sec
 * total energy  :  -411.2518705 Eh     change       -0.2671719E-02 Eh
   gradient norm :     0.0348734 Eh/α   predicted    -0.6971905E-02 ( 160.95%)
   displ. norm   :     0.3325165 α      lambda       -0.4796311E-02
   maximum displ.:     0.1352598 α      in ANC's #33, #23, #74, ...

........................................................................
.............................. CYCLE   10 ..............................
........................................................................
   1   -418.1906011 -0.418191E+03  0.207E-02    0.07       0.0  T
   2   -418.0536132  0.136988E+00  0.402E-01    0.02       1.0  T
   3   -418.1433615 -0.897483E-01  0.198E-01    0.02       1.0  T
   4   -418.1886996 -0.453381E-01  0.577E-02    0.07       1.0  T
   5   -418.1900593 -0.135969E-02  0.338E-02    0.06       1.0  T
   6   -418.1848589  0.520046E-02  0.580E-02    0.05       1.0  T
   7   -418.1901379 -0.527907E-02  0.287E-02    0.06       1.0  T
   8   -418.1907180 -0.580047E-03  0.139E-02    0.06       1.0  T
   9   -418.1908329 -0.114973E-03  0.855E-03    0.06       1.0  T
  10   -418.1908997 -0.667581E-04  0.339E-03    0.06       1.9  T
  11   -418.1909137 -0.139698E-04  0.894E-04    0.06       7.2  T
  12   -418.1909146 -0.909864E-06  0.366E-04    0.06      17.7  T
  13   -418.1909147 -0.156576E-06  0.178E-04    0.06      36.4  T
  14   -418.1909148 -0.409410E-07  0.493E-05    0.06     131.4  T
     SCC iter.                  ...        0 min,  2.921 sec
     gradient                   ...        0 min,  0.478 sec
 * total energy  :  -411.2541829 Eh     change       -0.2312359E-02 Eh
   gradient norm :     0.0348465 Eh/α   predicted    -0.2663322E-02 (  15.18%)
   displ. norm   :     0.4541576 α      lambda       -0.3931929E-02
   maximum displ.:     0.2006057 α      in ANC's #23, #33, #59, ...

........................................................................
.............................. CYCLE   11 ..............................
........................................................................
   1   -418.1807419 -0.418181E+03  0.255E-02    0.07       0.0  T
   2   -418.1038513  0.768905E-01  0.326E-01    0.04       1.0  T
   3   -418.1471754 -0.433241E-01  0.203E-01    0.03       1.0  T
   4   -418.1775485 -0.303731E-01  0.584E-02    0.05       1.0  T
   5   -418.1808241 -0.327551E-02  0.168E-02    0.07       1.0  T
   6   -418.1755062  0.531783E-02  0.700E-02    0.06       1.0  T
   7   -418.1810566 -0.555040E-02  0.103E-02    0.06       1.0  T
   8   -418.1807653  0.291332E-03  0.159E-02    0.07       1.0  T
   9   -418.1809144 -0.149090E-03  0.144E-02    0.07       1.0  T
  10   -418.1811292 -0.214782E-03  0.553E-03    0.07       1.2  T
  11   -418.1811698 -0.406102E-04  0.335E-04    0.07      19.4  T
  12   -418.1811696  0.128256E-06  0.427E-04    0.07      15.2  T
  13   -418.1811699 -0.214140E-06  0.960E-05    0.07      67.5  T
  14   -418.1811699 -0.425752E-08  0.619E-05    0.07     104.7  T
     SCC iter.                  ...        0 min,  2.912 sec
     gradient                   ...        0 min,  0.515 sec
 * total energy  :  -411.2542141 Eh     change       -0.3129102E-04 Eh
   gradient norm :     0.0311827 Eh/α   predicted    -0.2371466E-02 (7478.74%)
   displ. norm   :     0.3342257 α      lambda       -0.4905744E-02
   maximum displ.:     0.1339080 α      in ANC's #23, #35, #33, ...

........................................................................
.............................. CYCLE   12 ..............................
........................................................................
   1   -418.1850928 -0.418185E+03  0.371E-02    0.06       0.0  T
   2   -417.7773996  0.407693E+00  0.655E-01    0.03       1.0  T
   3   -418.1664780 -0.389078E+00  0.141E-01    0.13       1.0  T
   4   -418.1831611 -0.166830E-01  0.631E-02    0.06       1.0  T
   5   -418.1809163  0.224471E-02  0.808E-02    0.05       1.0  T
   6   -418.1690726  0.118437E-01  0.103E-01    0.04       1.0  T
   7   -418.1836527 -0.145801E-01  0.426E-02    0.06       1.0  T
   8   -418.1861244 -0.247167E-02  0.134E-02    0.07       1.0  T
   9   -418.1860131  0.111260E-03  0.132E-02    0.06       1.0  T
  10   -418.1862075 -0.194384E-03  0.607E-03    0.06       1.1  T
  11   -418.1862480 -0.405450E-04  0.151E-03    0.06       4.3  T
  12   -418.1862499 -0.184415E-05  0.742E-04    0.06       8.7  T
  13   -418.1862502 -0.322292E-06  0.279E-04    0.06      23.3  T
  14   -418.1862503 -0.578687E-07  0.808E-05    0.06      80.2  T
  15   -418.1862503 -0.294483E-08  0.898E-05    0.06      72.2  T
     SCC iter.                  ...        0 min,  3.180 sec
     gradient                   ...        0 min,  0.515 sec
 * total energy  :  -411.2559196 Eh     change       -0.1705504E-02 Eh
   gradient norm :     0.0423158 Eh/α   predicted    -0.2726882E-02 (  59.89%)
   displ. norm   :     0.3165935 α      lambda       -0.3009286E-02
   maximum displ.:     0.1435561 α      in ANC's #23, #33, #28, ...

........................................................................
.............................. CYCLE   13 ..............................
........................................................................
   1   -418.1881191 -0.418188E+03  0.275E-02    0.05       0.0  T
   2   -417.6697545  0.518365E+00  0.633E-01    0.01       1.0  T
   3   -418.1443647 -0.474610E+00  0.245E-01    0.12       1.0  T
   4   -418.1839959 -0.396312E-01  0.740E-02    0.08       1.0  T
   5   -418.1873305 -0.333460E-02  0.483E-02    0.06       1.0  T
   6   -418.1818300  0.550050E-02  0.842E-02    0.05       1.0  T
   7   -418.1853488 -0.351885E-02  0.452E-02    0.06       1.0  T
   8   -418.1889081 -0.355928E-02  0.112E-02    0.06       1.0  T
   9   -418.1889362 -0.280492E-04  0.931E-03    0.06       1.0  T
  10   -418.1889904 -0.542716E-04  0.419E-03    0.06       1.5  T
  11   -418.1890031 -0.126720E-04  0.241E-03    0.06       2.7  T
  12   -418.1890077 -0.462084E-05  0.101E-03    0.06       6.4  T
  13   -418.1890083 -0.593991E-06  0.379E-04    0.06      17.1  T
  14   -418.1890084 -0.109888E-06  0.165E-04    0.06      39.2  T
  15   -418.1890085 -0.232393E-07  0.871E-05    0.06      74.5  T
     SCC iter.                  ...        0 min,  3.131 sec
     gradient                   ...        0 min,  0.516 sec
 * total energy  :  -411.2570135 Eh     change       -0.1093867E-02 Eh
   gradient norm :     0.0155158 Eh/α   predicted    -0.1655463E-02 (  51.34%)
   displ. norm   :     0.3789432 α      lambda       -0.1891364E-02
   maximum displ.:     0.2177285 α      in ANC's #23, #33, #43, ...

........................................................................
.............................. CYCLE   14 ..............................
........................................................................
   1   -418.1964205 -0.418196E+03  0.155E-02    0.07       0.0  T
   2   -418.1283184  0.681021E-01  0.319E-01    0.01       1.0  T
   3   -418.1838018 -0.554835E-01  0.102E-01    0.04       1.0  T
   4   -418.1959484 -0.121466E-01  0.280E-02    0.06       1.0  T
   5   -418.1958144  0.134033E-03  0.354E-02    0.06       1.0  T
   6   -418.1934848  0.232953E-02  0.446E-02    0.06       1.0  T
   7   -418.1959660 -0.248112E-02  0.200E-02    0.06       1.0  T
   8   -418.1965815 -0.615542E-03  0.558E-03    0.06       1.2  T
   9   -418.1965594  0.220918E-04  0.529E-03    0.06       1.2  T
  10   -418.1965984 -0.390180E-04  0.163E-03    0.06       4.0  T
  11   -418.1966008 -0.234590E-05  0.492E-04    0.06      13.2  T
  12   -418.1966010 -0.207893E-06  0.657E-05    0.06      98.7  T
  13   -418.1966010  0.221689E-10  0.650E-05    0.06      99.7  T
     SCC iter.                  ...        0 min,  2.724 sec
     gradient                   ...        0 min,  0.515 sec
 * total energy  :  -411.2578244 Eh     change       -0.8109021E-03 Eh
   gradient norm :     0.0272815 Eh/α   predicted    -0.1081484E-02 (  33.37%)
   displ. norm   :     0.4667307 α      lambda       -0.2359054E-02
   maximum displ.:     0.2692705 α      in ANC's #23, #33, #25, ...

........................................................................
.............................. CYCLE   15 ..............................
........................................................................
   1   -418.2019178 -0.418202E+03  0.280E-02    0.07       0.0  T
   2   -417.6799947  0.521923E+00  0.746E-01    0.07       1.0  T
   3   -418.1233152 -0.443321E+00  0.268E-01    0.00       1.0  T
   4   -418.2005167 -0.772014E-01  0.444E-02    0.05       1.0  T
   5   -418.1988640  0.165265E-02  0.659E-02    0.08       1.0  T
   6   -418.1950733  0.379071E-02  0.107E-01    0.07       1.0  T
   7   -418.2003844 -0.531106E-02  0.358E-02    0.06       1.0  T
   8   -418.2025037 -0.211934E-02  0.886E-03    0.06       1.0  T
   9   -418.2025160 -0.123275E-04  0.726E-03    0.06       1.0  T
  10   -418.2025698 -0.537819E-04  0.236E-03    0.06       2.7  T
  11   -418.2025741 -0.431685E-05  0.121E-03    0.06       5.3  T
  12   -418.2025756 -0.143960E-05  0.384E-04    0.06      16.9  T
  13   -418.2025757 -0.153419E-06  0.151E-04    0.06      42.8  T
  14   -418.2025757 -0.160650E-07  0.881E-05    0.06      73.6  T
     SCC iter.                  ...        0 min,  2.872 sec
     gradient                   ...        0 min,  0.497 sec
 * total energy  :  -411.2588340 Eh     change       -0.1009598E-02 Eh
   gradient norm :     0.0219589 Eh/α   predicted    -0.1436472E-02 (  42.28%)
   displ. norm   :     0.4508241 α      lambda       -0.2193265E-02
   maximum displ.:     0.2628636 α      in ANC's #23, #33, #28, ...

........................................................................
.............................. CYCLE   16 ..............................
........................................................................
   1   -418.2004956 -0.418200E+03  0.254E-02    0.06       0.0  T
   2   -417.9742620  0.226234E+00  0.576E-01    0.06       1.0  T
   3   -418.1958065 -0.221544E+00  0.781E-02    0.07       1.0  T
   4   -418.1978644 -0.205790E-02  0.635E-02    0.06       1.0  T
   5   -418.1972116  0.652774E-03  0.619E-02    0.04       1.0  T
   6   -418.1927891  0.442252E-02  0.717E-02    0.05       1.0  T
   7   -418.1996957 -0.690659E-02  0.269E-02    0.06       1.0  T
   8   -418.2007931 -0.109745E-02  0.121E-02    0.06       1.0  T
   9   -418.2008305 -0.374332E-04  0.106E-02    0.06       1.0  T
  10   -418.2009540 -0.123442E-03  0.441E-03    0.06       1.5  T
  11   -418.2009713 -0.172619E-04  0.198E-03    0.06       3.3  T
  12   -418.2009744 -0.319447E-05  0.320E-04    0.06      20.3  T
  13   -418.2009745 -0.785584E-07  0.108E-04    0.06      59.8  T
  14   -418.2009745 -0.931226E-08  0.344E-05    0.06     188.7  T
     SCC iter.                  ...        0 min,  2.950 sec
     gradient                   ...        0 min,  0.479 sec
 * total energy  :  -411.2597690 Eh     change       -0.9350190E-03 Eh
   gradient norm :     0.0309786 Eh/α   predicted    -0.1319518E-02 (  41.12%)
   displ. norm   :     0.4360446 α      lambda       -0.1958049E-02
   maximum displ.:     0.2682346 α      in ANC's #23, #33, #25, ...

........................................................................
.............................. CYCLE   17 ..............................
........................................................................
   1   -418.2005956 -0.418201E+03  0.262E-02    0.06       0.0  T
   2   -417.7821191  0.418477E+00  0.644E-01    0.01       1.0  T
   3   -418.1908752 -0.408756E+00  0.987E-02    0.10       1.0  T
   4   -418.1999236 -0.904841E-02  0.386E-02    0.06       1.0  T
   5   -418.1964698  0.345377E-02  0.823E-02    0.05       1.0  T
   6   -418.1944036  0.206625E-02  0.769E-02    0.06       1.0  T
   7   -418.2011216 -0.671802E-02  0.116E-02    0.06       1.0  T
   8   -418.2008346  0.286926E-03  0.153E-02    0.06       1.0  T
   9   -418.2011908 -0.356106E-03  0.635E-03    0.06       1.0  T
  10   -418.2012288 -0.380520E-04  0.287E-03    0.06       2.3  T
  11   -418.2012327 -0.390495E-05  0.134E-03    0.06       4.8  T
  12   -418.2012341 -0.136328E-05  0.386E-04    0.06      16.8  T
  13   -418.2012342 -0.862086E-07  0.179E-04    0.06      36.3  T
  14   -418.2012342 -0.286286E-07  0.604E-05    0.06     107.4  T
     SCC iter.                  ...        0 min,  2.918 sec
     gradient                   ...        0 min,  0.509 sec
 * total energy  :  -411.2612672 Eh     change       -0.1498169E-02 Eh
   gradient norm :     0.0170358 Eh/α   predicted    -0.1165172E-02 ( -22.23%)
   displ. norm   :     0.6579991 α      lambda       -0.1817061E-02
   maximum displ.:     0.4206773 α      in ANC's #23, #33, #25, ...

........................................................................
.............................. CYCLE   18 ..............................
........................................................................
   1   -418.2133815 -0.418213E+03  0.200E-02    0.07       0.0  T
   2   -418.0411679  0.172214E+00  0.479E-01    0.02       1.0  T
   3   -418.1947644 -0.153597E+00  0.122E-01    0.03       1.0  T
   4   -418.2120023 -0.172379E-01  0.466E-02    0.05       1.0  T
   5   -418.2131313 -0.112897E-02  0.293E-02    0.06       1.0  T
   6   -418.2116891  0.144219E-02  0.456E-02    0.07       1.0  T
   7   -418.2134938 -0.180472E-02  0.109E-02    0.06       1.0  T
   8   -418.2136322 -0.138357E-03  0.605E-03    0.06       1.1  T
   9   -418.2136737 -0.415592E-04  0.309E-03    0.06       2.1  T
  10   -418.2136831 -0.938002E-05  0.107E-03    0.06       6.1  T
  11   -418.2136844 -0.126066E-05  0.414E-04    0.06      15.7  T
  12   -418.2136845 -0.145901E-06  0.202E-04    0.06      32.1  T
  13   -418.2136846 -0.400547E-07  0.661E-05    0.06      98.1  T
  14   -418.2136846 -0.410114E-08  0.258E-05    0.06     251.0  T
     SCC iter.                  ...        0 min,  2.871 sec
     gradient                   ...        0 min,  0.505 sec
 * total energy  :  -411.2627306 Eh     change       -0.1463404E-02 Eh
   gradient norm :     0.0118681 Eh/α   predicted    -0.1301895E-02 ( -11.04%)
   displ. norm   :     0.7403524 α      lambda       -0.1743426E-02
   maximum displ.:     0.4740444 α      in ANC's #23, #33, #25, ...

........................................................................
.............................. CYCLE   19 ..............................
........................................................................
   1   -418.2207231 -0.418221E+03  0.213E-02    0.06       0.0  T
   2   -418.0477342  0.172989E+00  0.512E-01    0.01       1.0  T
   3   -418.2140636 -0.166329E+00  0.769E-02    0.04       1.0  T
   4   -418.2194551 -0.539148E-02  0.378E-02    0.05       1.0  T
   5   -418.2192961  0.158992E-03  0.489E-02    0.06       1.0  T
   6   -418.2193028 -0.662914E-05  0.422E-02    0.07       1.0  T
   7   -418.2209941 -0.169132E-02  0.654E-03    0.06       1.0  T
   8   -418.2209260  0.680692E-04  0.789E-03    0.06       1.0  T
   9   -418.2210341 -0.108075E-03  0.205E-03    0.06       3.2  T
  10   -418.2210363 -0.221424E-05  0.147E-03    0.06       4.4  T
  11   -418.2210378 -0.154376E-05  0.492E-04    0.06      13.2  T
  12   -418.2210380 -0.200185E-06  0.845E-05    0.06      76.7  T
  13   -418.2210380 -0.214453E-08  0.655E-05    0.06      98.9  T
     SCC iter.                  ...        0 min,  2.618 sec
     gradient                   ...        0 min,  0.470 sec
 * total energy  :  -411.2640185 Eh     change       -0.1287850E-02 Eh
   gradient norm :     0.0168288 Eh/α   predicted    -0.1349518E-02 (   4.79%)
   displ. norm   :     0.6929301 α      lambda       -0.1898603E-02
   maximum displ.:     0.4466316 α      in ANC's #23, #33, #25, ...

........................................................................
.............................. CYCLE   20 ..............................
........................................................................
   1   -418.2238353 -0.418224E+03  0.191E-02    0.06       0.0  T
   2   -418.0243191  0.199516E+00  0.527E-01    0.04       1.0  T
   3   -418.2201128 -0.195794E+00  0.617E-02    0.06       1.0  T
   4   -418.2229632 -0.285035E-02  0.287E-02    0.06       1.0  T
   5   -418.2155598  0.740336E-02  0.991E-02    0.04       1.0  T
   6   -418.2221649 -0.660507E-02  0.452E-02    0.05       1.0  T
   7   -418.2240765 -0.191158E-02  0.383E-03    0.06       1.7  T
   8   -418.2240150  0.614246E-04  0.713E-03    0.06       1.0  T
   9   -418.2240689 -0.538237E-04  0.422E-03    0.06       1.5  T
  10   -418.2240826 -0.137147E-04  0.209E-03    0.06       3.1  T
  11   -418.2240850 -0.240355E-05  0.102E-03    0.06       6.4  T
  12   -418.2240857 -0.689129E-06  0.566E-05    0.06     114.5  T
  13   -418.2240857  0.391123E-08  0.846E-05    0.06      76.6  T
     SCC iter.                  ...        0 min,  2.665 sec
     gradient                   ...        0 min,  0.501 sec
 * total energy  :  -411.2655330 Eh     change       -0.1514592E-02 Eh
   gradient norm :     0.0106767 Eh/α   predicted    -0.1405115E-02 (  -7.23%)
   displ. norm   :     0.7392932 α      lambda       -0.1755901E-02
   maximum displ.:     0.4794304 α      in ANC's #23, #33, #25, ...
 * RMSD in coord.:     0.4777536 α      energy gain  -0.8136184E+00 Eh

generating ANC from model Hessian ...
Using Lindh-Hessian (1995)
 Shifting diagonal of input Hessian by    1.0040531135740766E-002
 Lowest  eigenvalues of input Hessian
    0.010000    0.010005    0.000000    0.000000    0.000000    0.000000
    0.000000    0.000000    0.010041    0.010042    0.010043    0.010046
    0.010046    0.010053    0.010054    0.010056    0.010057    0.010058
 Highest eigenvalues
    2.333159    2.757403    2.764236    2.826417    2.834608    2.835250


........................................................................
.............................. CYCLE   21 ..............................
........................................................................
   1   -418.2282080 -0.418228E+03  0.158E-02    0.06       0.0  T
   2   -418.0932745  0.134934E+00  0.436E-01    0.05       1.0  T
   3   -418.2261083 -0.132834E+00  0.479E-02    0.06       1.0  T
   4   -418.2278020 -0.169376E-02  0.231E-02    0.06       1.0  T
   5   -418.2244474  0.335467E-02  0.620E-02    0.04       1.0  T
   6   -418.2227767  0.167069E-02  0.749E-02    0.04       1.0  T
   7   -418.2282805 -0.550382E-02  0.781E-03    0.06       1.0  T
   8   -418.2282788  0.166857E-05  0.729E-03    0.06       1.0  T
   9   -418.2283697 -0.908488E-04  0.379E-03    0.06       1.7  T
  10   -418.2283793 -0.964579E-05  0.159E-03    0.06       4.1  T
  11   -418.2283806 -0.129357E-05  0.810E-04    0.06       8.0  T
  12   -418.2283810 -0.425923E-06  0.904E-05    0.06      71.7  T
  13   -418.2283810 -0.369079E-08  0.600E-05    0.06     108.0  T
     SCC iter.                  ...        0 min,  2.627 sec
     gradient                   ...        0 min,  0.497 sec
 * total energy  :  -411.2666899 Eh     change       -0.1156893E-02 Eh
   gradient norm :     0.0109418 Eh/α   predicted     0.0000000E+00 (-100.00%)
   displ. norm   :     0.1859021 α      lambda       -0.4990567E-03
   maximum displ.:     0.1388660 α      in ANC's #15, #31, #18, ...

........................................................................
.............................. CYCLE   22 ..............................
........................................................................
   1   -418.2328685 -0.418233E+03  0.697E-03    0.06       0.0  T
   2   -418.2179662  0.149024E-01  0.150E-01    0.06       1.0  T
   3   -418.2316305 -0.136643E-01  0.383E-02    0.05       1.0  T
   4   -418.2324492 -0.818739E-03  0.213E-02    0.06       1.0  T
   5   -418.2327125 -0.263346E-03  0.138E-02    0.06       1.0  T
   6   -418.2321340  0.578507E-03  0.246E-02    0.06       1.0  T
   7   -418.2328757 -0.741668E-03  0.384E-03    0.06       1.7  T
   8   -418.2328911 -0.153513E-04  0.286E-03    0.06       2.3  T
   9   -418.2329020 -0.109908E-04  0.856E-04    0.06       7.6  T
  10   -418.2329025 -0.496850E-06  0.345E-04    0.06      18.8  T
  11   -418.2329026 -0.499434E-07  0.156E-04    0.06      41.4  T
  12   -418.2329026 -0.285091E-07  0.227E-05    0.06     285.8  T
     SCC iter.                  ...        0 min,  2.247 sec
     gradient                   ...        0 min,  0.509 sec
 * total energy  :  -411.2671073 Eh     change       -0.4173394E-03 Eh
   gradient norm :     0.0062911 Eh/α   predicted    -0.2581584E-03 ( -38.14%)
   displ. norm   :     0.4995948 α      lambda       -0.1291774E-02
   maximum displ.:     0.3345680 α      in ANC's #15, #31, #18, ...

........................................................................
.............................. CYCLE   23 ..............................
........................................................................
   1   -418.2442161 -0.418244E+03  0.217E-02    0.06       0.0  T
   2   -418.1455233  0.986928E-01  0.382E-01    0.05       1.0  T
   3   -418.2321308 -0.866075E-01  0.112E-01    0.04       1.0  T
   4   -418.2418994 -0.976857E-02  0.501E-02    0.05       1.0  T
   5   -418.2431379 -0.123850E-02  0.398E-02    0.07       1.0  T
   6   -418.2432489 -0.111037E-03  0.262E-02    0.06       1.0  T
   7   -418.2443812 -0.113231E-02  0.129E-02    0.06       1.0  T
   8   -418.2444973 -0.116055E-03  0.768E-03    0.06       1.0  T
   9   -418.2445287 -0.313811E-04  0.394E-03    0.06       1.6  T
  10   -418.2445200  0.862046E-05  0.486E-03    0.06       1.3  T
  11   -418.2445382 -0.181126E-04  0.105E-03    0.06       6.2  T
  12   -418.2445389 -0.705306E-06  0.352E-04    0.06      18.4  T
  13   -418.2445389 -0.706924E-07  0.128E-04    0.06      50.8  T
  14   -418.2445389 -0.108726E-07  0.433E-05    0.06     149.7  T
     SCC iter.                  ...        0 min,  2.590 sec
     gradient                   ...        0 min,  0.455 sec
 * total energy  :  -411.2679086 Eh     change       -0.8013385E-03 Eh
   gradient norm :     0.0219246 Eh/α   predicted    -0.8071031E-03 (   0.72%)
   displ. norm   :     0.5233863 α      lambda       -0.1277826E-02
   maximum displ.:     0.3534938 α      in ANC's #15, #31, #18, ...

........................................................................
.............................. CYCLE   24 ..............................
........................................................................
   1   -418.2475000 -0.418248E+03  0.180E-02    0.06       0.0  T
   2   -418.1529689  0.945311E-01  0.333E-01    0.03       1.0  T
   3   -418.2373391 -0.843702E-01  0.126E-01    0.07       1.0  T
   4   -418.2473197 -0.998066E-02  0.214E-02    0.06       1.0  T
   5   -418.2462177  0.110204E-02  0.390E-02    0.06       1.0  T
   6   -418.2457340  0.483664E-03  0.338E-02    0.06       1.0  T
   7   -418.2475272 -0.179318E-02  0.162E-02    0.07       1.0  T
   8   -418.2477336 -0.206363E-03  0.570E-03    0.06       1.1  T
   9   -418.2477638 -0.302185E-04  0.232E-03    0.06       2.8  T
  10   -418.2477499  0.138513E-04  0.421E-03    0.06       1.5  T
  11   -418.2477679 -0.179360E-04  0.378E-04    0.06      17.2  T
  12   -418.2477677  0.205452E-06  0.639E-04    0.06      10.1  T
  13   -418.2477680 -0.360043E-06  0.157E-04    0.06      41.3  T
  14   -418.2477680 -0.141570E-07  0.586E-05    0.06     110.6  T
     SCC iter.                  ...        0 min,  2.852 sec
     gradient                   ...        0 min,  0.438 sec
 * total energy  :  -411.2689660 Eh     change       -0.1057427E-02 Eh
   gradient norm :     0.0186057 Eh/α   predicted    -0.8139335E-03 ( -23.03%)
   displ. norm   :     0.6654777 α      lambda       -0.1725585E-02
   maximum displ.:     0.4464384 α      in ANC's #15, #31, #18, ...

........................................................................
.............................. CYCLE   25 ..............................
........................................................................
   1   -418.2423098 -0.418242E+03  0.252E-02    0.06       0.0  T
   2   -418.0282745  0.214035E+00  0.439E-01    0.01       1.0  T
   3   -418.1974587 -0.169184E+00  0.261E-01    0.08       1.0  T
   4   -418.2417985 -0.443398E-01  0.411E-02    0.07       1.0  T
   5   -418.2409427  0.855859E-03  0.474E-02    0.06       1.0  T
   6   -418.2400765  0.866203E-03  0.401E-02    0.06       1.0  T
   7   -418.2427444 -0.266792E-02  0.119E-02    0.06       1.0  T
   8   -418.2428880 -0.143580E-03  0.408E-03    0.06       1.6  T
   9   -418.2428962 -0.823956E-05  0.247E-03    0.06       2.6  T
  10   -418.2428748  0.214061E-04  0.582E-03    0.06       1.1  T
  11   -418.2429007 -0.259187E-04  0.818E-04    0.06       7.9  T
  12   -418.2429009 -0.173521E-06  0.875E-04    0.06       7.4  T
  13   -418.2429015 -0.586967E-06  0.181E-04    0.06      35.8  T
  14   -418.2429015 -0.240659E-07  0.207E-05    0.06     313.5  T
     SCC iter.                  ...        0 min,  2.621 sec
     gradient                   ...        0 min,  0.459 sec
 * total energy  :  -411.2698394 Eh     change       -0.8733674E-03 Eh
   gradient norm :     0.0146494 Eh/α   predicted    -0.1244893E-02 (  42.54%)
   displ. norm   :     0.5387148 α      lambda       -0.1515311E-02
   maximum displ.:     0.3653219 α      in ANC's #15, #31, #18, ...

........................................................................
.............................. CYCLE   26 ..............................
........................................................................
   1   -418.2422891 -0.418242E+03  0.201E-02    0.06       0.0  T
   2   -418.0429990  0.199290E+00  0.434E-01    0.02       1.0  T
   3   -418.2204526 -0.177454E+00  0.185E-01    0.08       1.0  T
   4   -418.2418078 -0.213552E-01  0.370E-02    0.06       1.0  T
   5   -418.2409294  0.878430E-03  0.408E-02    0.06       1.0  T
   6   -418.2398487  0.108065E-02  0.436E-02    0.07       1.0  T
   7   -418.2418926 -0.204384E-02  0.210E-02    0.06       1.0  T
   8   -418.2426370 -0.744462E-03  0.712E-03    0.06       1.0  T
   9   -418.2426628 -0.257709E-04  0.277E-03    0.06       2.3  T
  10   -418.2426698 -0.696715E-05  0.154E-03    0.06       4.2  T
  11   -418.2426708 -0.102642E-05  0.674E-04    0.06       9.6  T
  12   -418.2426711 -0.314388E-06  0.223E-04    0.06      29.1  T
  13   -418.2426712 -0.486932E-07  0.564E-05    0.06     115.0  T
  14   -418.2426712 -0.165244E-09  0.633E-05    0.06     102.3  T
     SCC iter.                  ...        0 min,  2.638 sec
     gradient                   ...        0 min,  0.464 sec
 * total energy  :  -411.2710240 Eh     change       -0.1184595E-02 Eh
   gradient norm :     0.0146658 Eh/α   predicted    -0.9775412E-03 ( -17.48%)
   displ. norm   :     0.6334022 α      lambda       -0.1566384E-02
   maximum displ.:     0.4270059 α      in ANC's #15, #31, #18, ...

........................................................................
.............................. CYCLE   27 ..............................
........................................................................
   1   -418.2417240 -0.418242E+03  0.310E-02    0.07       0.0  T
   2   -417.9436093  0.298115E+00  0.568E-01    0.05       1.0  T
   3   -418.1966997 -0.253090E+00  0.253E-01    0.06       1.0  T
   4   -418.2417822 -0.450825E-01  0.343E-02    0.06       1.0  T
   5   -418.2393556  0.242658E-02  0.542E-02    0.06       1.0  T
   6   -418.2370593  0.229637E-02  0.577E-02    0.06       1.0  T
   7   -418.2411433 -0.408403E-02  0.296E-02    0.06       1.0  T
   8   -418.2424350 -0.129177E-02  0.781E-03    0.07       1.0  T
   9   -418.2425121 -0.770612E-04  0.337E-03    0.06       1.9  T
  10   -418.2425175 -0.543916E-05  0.206E-03    0.06       3.1  T
  11   -418.2425179 -0.324850E-06  0.138E-03    0.06       4.7  T
  12   -418.2425201 -0.218802E-05  0.385E-04    0.06      16.8  T
  13   -418.2425202 -0.147739E-06  0.129E-04    0.06      50.4  T
  14   -418.2425202 -0.833211E-09  0.114E-04    0.06      56.7  T
     SCC iter.                  ...        0 min,  2.730 sec
     gradient                   ...        0 min,  0.479 sec
 * total energy  :  -411.2716532 Eh     change       -0.6292289E-03 Eh
   gradient norm :     0.0147245 Eh/α   predicted    -0.1097409E-02 (  74.41%)
   displ. norm   :     0.4924139 α      lambda       -0.1971659E-02
   maximum displ.:     0.3326973 α      in ANC's #15, #18, #31, ...

........................................................................
.............................. CYCLE   28 ..............................
........................................................................
   1   -418.2482601 -0.418248E+03  0.245E-02    0.07       0.0  T
   2   -417.7970510  0.451209E+00  0.610E-01    0.08       1.0  T
   3   -418.2334777 -0.436427E+00  0.159E-01    0.06       1.0  T
   4   -418.2448068 -0.113290E-01  0.584E-02    0.05       1.0  T
   5   -418.2464151 -0.160838E-02  0.591E-02    0.08       1.0  T
   6   -418.2444319  0.198327E-02  0.611E-02    0.07       1.0  T
   7   -418.2479777 -0.354580E-02  0.249E-02    0.07       1.0  T
   8   -418.2488222 -0.844486E-03  0.129E-02    0.07       1.0  T
   9   -418.2489110 -0.888529E-04  0.805E-03    0.06       1.0  T
  10   -418.2489592 -0.482319E-04  0.408E-03    0.06       1.6  T
  11   -418.2489707 -0.114666E-04  0.164E-03    0.06       4.0  T
  12   -418.2489726 -0.191446E-05  0.597E-04    0.06      10.9  T
  13   -418.2489729 -0.285104E-06  0.163E-04    0.06      39.7  T
  14   -418.2489729 -0.412706E-08  0.134E-04    0.06      48.3  T
     SCC iter.                  ...        0 min,  2.688 sec
     gradient                   ...        0 min,  0.461 sec
 * total energy  :  -411.2730343 Eh     change       -0.1381021E-02 Eh
   gradient norm :     0.0114267 Eh/α   predicted    -0.1224865E-02 ( -11.31%)
   displ. norm   :     0.6147031 α      lambda       -0.1609303E-02
   maximum displ.:     0.4244955 α      in ANC's #15, #18, #13, ...

........................................................................
.............................. CYCLE   29 ..............................
........................................................................
   1   -418.2477325 -0.418248E+03  0.366E-02    0.07       0.0  T
   2   -417.7167633  0.530969E+00  0.674E-01    0.08       1.0  T
   3   -418.2273138 -0.510551E+00  0.175E-01    0.04       1.0  T
   4   -418.2479194 -0.206055E-01  0.425E-02    0.06       1.0  T
   5   -418.2464070  0.151235E-02  0.645E-02    0.07       1.0  T
   6   -418.2472758 -0.868775E-03  0.435E-02    0.05       1.0  T
   7   -418.2453424  0.193341E-02  0.507E-02    0.07       1.0  T
   8   -418.2492803 -0.393791E-02  0.278E-03    0.07       2.3  T
   9   -418.2492517  0.285621E-04  0.576E-03    0.06       1.1  T
  10   -418.2492776 -0.258277E-04  0.327E-03    0.06       2.0  T
  11   -418.2492840 -0.644325E-05  0.138E-03    0.07       4.7  T
  12   -418.2492864 -0.235459E-05  0.385E-04    0.06      16.8  T
  13   -418.2492864 -0.434210E-07  0.269E-04    0.06      24.1  T
  14   -418.2492865 -0.803197E-07  0.819E-05    0.06      79.1  T
  15   -418.2492865 -0.290117E-08  0.446E-05    0.06     145.3  T
     SCC iter.                  ...        0 min,  3.162 sec
     gradient                   ...        0 min,  0.518 sec
 * total energy  :  -411.2742734 Eh     change       -0.1239178E-02 Eh
   gradient norm :     0.0108236 Eh/α   predicted    -0.1108699E-02 ( -10.53%)
   displ. norm   :     0.6567890 α      lambda       -0.2173557E-02
   maximum displ.:     0.4499972 α      in ANC's #15, #18, #13, ...

........................................................................
.............................. CYCLE   30 ..............................
........................................................................
   1   -418.2440518 -0.418244E+03  0.495E-02    0.07       0.0  T
   2   -417.6663816  0.577670E+00  0.707E-01    0.08       1.0  T
   3   -418.2082136 -0.541832E+00  0.199E-01    0.02       1.0  T
   4   -418.2401289 -0.319153E-01  0.865E-02    0.08       1.0  T
   5   -418.2459519 -0.582301E-02  0.359E-02    0.07       1.0  T
   6   -418.2443483  0.160361E-02  0.631E-02    0.07       1.0  T
   7   -418.2416458  0.270251E-02  0.539E-02    0.06       1.0  T
   8   -418.2465759 -0.493016E-02  0.167E-02    0.06       1.0  T
   9   -418.2468756 -0.299622E-03  0.448E-03    0.07       1.4  T
  10   -418.2468552  0.204135E-04  0.546E-03    0.07       1.2  T
  11   -418.2468897 -0.345563E-04  0.117E-03    0.07       5.6  T
  12   -418.2468911 -0.140397E-05  0.310E-04    0.07      20.9  T
  13   -418.2468912 -0.641081E-07  0.160E-04    0.07      40.5  T
  14   -418.2468912 -0.236802E-07  0.601E-05    0.07     107.9  T
     SCC iter.                  ...        0 min,  2.931 sec
     gradient                   ...        0 min,  0.513 sec
 * total energy  :  -411.2757878 Eh     change       -0.1514330E-02 Eh
   gradient norm :     0.0168364 Eh/α   predicted    -0.1555589E-02 (   2.72%)
   displ. norm   :     0.6758688 α      lambda       -0.2290137E-02
   maximum displ.:     0.4650226 α      in ANC's #15, #18, #13, ...

........................................................................
.............................. CYCLE   31 ..............................
........................................................................
   1   -418.2431244 -0.418243E+03  0.610E-02    0.07       0.0  T
   2   -417.5760371  0.667087E+00  0.744E-01    0.06       1.0  T
   3   -418.1921067 -0.616070E+00  0.221E-01    0.01       1.0  T
   4   -418.2298182 -0.377115E-01  0.151E-01    0.09       1.0  T
   5   -418.2450370 -0.152188E-01  0.553E-02    0.08       1.0  T
   6   -418.2459176 -0.880599E-03  0.497E-02    0.07       1.0  T
   7   -418.2457913  0.126373E-03  0.309E-02    0.06       1.0  T
   8   -418.2467877 -0.996482E-03  0.245E-02    0.06       1.0  T
   9   -418.2475403 -0.752531E-03  0.660E-03    0.07       1.0  T
  10   -418.2475656 -0.253329E-04  0.453E-03    0.07       1.4  T
  11   -418.2475820 -0.163432E-04  0.215E-03    0.07       3.0  T
  12   -418.2475850 -0.305740E-05  0.158E-03    0.07       4.1  T
  13   -418.2475873 -0.231005E-05  0.323E-04    0.07      20.0  T
  14   -418.2475874 -0.625228E-07  0.131E-04    0.07      49.4  T
  15   -418.2475874 -0.150322E-07  0.643E-05    0.07     100.8  T
     SCC iter.                  ...        0 min,  3.123 sec
     gradient                   ...        0 min,  0.516 sec
 * total energy  :  -411.2781448 Eh     change       -0.2356996E-02 Eh
   gradient norm :     0.0153007 Eh/α   predicted    -0.1668137E-02 ( -29.23%)
   displ. norm   :     0.7406882 α      lambda       -0.2680236E-02
   maximum displ.:     0.5030892 α      in ANC's #15, #18, #13, ...

........................................................................
.............................. CYCLE   32 ..............................
........................................................................
   1   -418.2382676 -0.418238E+03  0.707E-02    0.07       0.0  T
   2   -417.5338039  0.704464E+00  0.769E-01    0.05       1.0  T
   3   -418.1798801 -0.646076E+00  0.241E-01    0.00       1.0  T
   4   -418.2225677 -0.426876E-01  0.170E-01    0.10       1.0  T
   5   -418.2398023 -0.172345E-01  0.693E-02    0.08       1.0  T
   6   -418.2419701 -0.216784E-02  0.576E-02    0.08       1.0  T
   7   -418.2432817 -0.131164E-02  0.266E-02    0.06       1.0  T
   8   -418.2429077  0.374038E-03  0.329E-02    0.06       1.0  T
   9   -418.2441885 -0.128084E-02  0.104E-02    0.07       1.0  T
  10   -418.2442583 -0.697690E-04  0.570E-03    0.07       1.1  T
  11   -418.2442803 -0.220423E-04  0.272E-03    0.07       2.4  T
  12   -418.2442861 -0.570346E-05  0.160E-03    0.07       4.1  T
  13   -418.2442881 -0.207288E-05  0.412E-04    0.07      15.7  T
  14   -418.2442883 -0.174939E-06  0.661E-05    0.07      98.1  T
  15   -418.2442883  0.833620E-08  0.110E-04    0.07      58.9  T
     SCC iter.                  ...        0 min,  3.134 sec
     gradient                   ...        0 min,  0.518 sec
 * total energy  :  -411.2810797 Eh     change       -0.2934897E-02 Eh
   gradient norm :     0.0170251 Eh/α   predicted    -0.2075335E-02 ( -29.29%)
   displ. norm   :     0.7446119 α      lambda       -0.3738599E-02
   maximum displ.:     0.4889504 α      in ANC's #15, #18, #13, ...

........................................................................
.............................. CYCLE   33 ..............................
........................................................................
   1   -418.2323768 -0.418232E+03  0.720E-02    0.08       0.0  T
   2   -417.5050197  0.727357E+00  0.775E-01    0.05       1.0  T
   3   -418.1868218 -0.681802E+00  0.225E-01    0.02       1.0  T
   4   -418.2243543 -0.375325E-01  0.136E-01    0.13       1.0  T
   5   -418.2360997 -0.117454E-01  0.594E-02    0.09       1.0  T
   6   -418.2364111 -0.311419E-03  0.554E-02    0.08       1.0  T
   7   -418.2344321  0.197902E-02  0.533E-02    0.06       1.0  T
   8   -418.2363702 -0.193813E-02  0.400E-02    0.06       1.0  T
   9   -418.2380232 -0.165294E-02  0.225E-02    0.07       1.0  T
  10   -418.2385294 -0.506282E-03  0.649E-03    0.07       1.0  T
  11   -418.2385057  0.237444E-04  0.717E-03    0.07       1.0  T
  12   -418.2385616 -0.558903E-04  0.287E-03    0.07       2.3  T
  13   -418.2385702 -0.861832E-05  0.410E-04    0.07      15.8  T
  14   -418.2385704 -0.156170E-06  0.146E-04    0.07      44.5  T
  15   -418.2385703  0.702977E-08  0.151E-04    0.07      42.8  T
     SCC iter.                  ...        0 min,  3.137 sec
     gradient                   ...        0 min,  0.517 sec
 * total energy  :  -411.2846139 Eh     change       -0.3534267E-02 Eh
   gradient norm :     0.0218750 Eh/α   predicted    -0.2905733E-02 ( -17.78%)
   displ. norm   :     0.8711425 α      lambda       -0.5785461E-02
   maximum displ.:     0.5284141 α      in ANC's #15, #18, #75, ...

........................................................................
.............................. CYCLE   34 ..............................
........................................................................
   1   -418.2187294 -0.418219E+03  0.720E-02    0.08       0.0  T
   2   -417.5340101  0.684719E+00  0.736E-01    0.11       1.0  T
   3   -418.1835605 -0.649550E+00  0.219E-01    0.04       1.0  T
   4   -418.2113803 -0.278198E-01  0.119E-01    0.15       1.0  T
   5   -418.2191015 -0.772119E-02  0.699E-02    0.07       1.0  T
   6   -418.2131070  0.599454E-02  0.119E-01    0.09       1.0  T
   7   -418.2212501 -0.814318E-02  0.475E-02    0.07       1.0  T
   8   -418.2235913 -0.234116E-02  0.207E-02    0.07       1.0  T
   9   -418.2197623  0.382896E-02  0.577E-02    0.07       1.0  T
  10   -418.2237186 -0.395627E-02  0.150E-02    0.07       1.0  T
  11   -418.2236869  0.317248E-04  0.135E-02    0.07       1.0  T
  12   -418.2238232 -0.136322E-03  0.973E-03    0.08       1.0  T
  13   -418.2239306 -0.107393E-03  0.144E-03    0.08       4.5  T
  14   -418.2239249  0.566047E-05  0.271E-03    0.08       2.4  T
  15   -418.2239322 -0.722309E-05  0.597E-04    0.08      10.9  T
  16   -418.2239325 -0.372866E-06  0.149E-04    0.08      43.5  T
  17   -418.2239325  0.587738E-07  0.247E-04    0.08      26.2  T
  18   -418.2239325 -0.465791E-07  0.149E-04    0.08      43.4  T
     SCC iter.                  ...        0 min,  3.736 sec
     gradient                   ...        0 min,  0.522 sec
 * total energy  :  -411.2909646 Eh     change       -0.6350687E-02 Eh
   gradient norm :     0.0284311 Eh/α   predicted    -0.5088001E-02 ( -19.88%)
   displ. norm   :     0.8624824 α      lambda       -0.7816408E-02
   maximum displ.:     0.5101333 α      in ANC's #15, #18, #75, ...

........................................................................
.............................. CYCLE   35 ..............................
........................................................................
   1   -418.2072160 -0.418207E+03  0.556E-02    0.09       0.0  T
   2   -418.1119807  0.952353E-01  0.278E-01    0.03       1.0  T
   3   -418.1586957 -0.467150E-01  0.228E-01    0.01       1.0  T
   4   -418.1940914 -0.353957E-01  0.147E-01    0.14       1.0  T
   5   -418.2021489 -0.805750E-02  0.101E-01    0.11       1.0  T
   6   -418.2086906 -0.654172E-02  0.363E-02    0.09       1.0  T
   7   -418.2076799  0.101073E-02  0.423E-02    0.07       1.0  T
   8   -418.2087975 -0.111765E-02  0.341E-02    0.07       1.0  T
   9   -418.1841174  0.246802E-01  0.140E-01    0.06       1.0  T
  10   -418.2096666 -0.255493E-01  0.835E-03    0.09       1.0  T
  11   -418.2097144 -0.477854E-04  0.527E-03    0.09       1.2  T
  12   -418.2097320 -0.175546E-04  0.321E-03    0.08       2.0  T
  13   -418.2097184  0.135206E-04  0.448E-03    0.08       1.4  T
  14   -418.2097237 -0.528292E-05  0.398E-03    0.08       1.6  T
  15   -418.2097318 -0.804881E-05  0.301E-03    0.08       2.2  T
  16   -418.2097355 -0.375188E-05  0.248E-03    0.08       2.6  T
  17   -418.2097393 -0.381747E-05  0.174E-03    0.08       3.7  T
  18   -418.2097417 -0.237767E-05  0.106E-03    0.08       6.1  T
  19   -418.2097425 -0.747811E-06  0.744E-04    0.08       8.7  T
  20   -418.2097431 -0.643239E-06  0.255E-04    0.08      25.4  T
  21   -418.2097432 -0.642773E-07  0.119E-04    0.08      54.3  T
  22   -418.2097432 -0.158142E-07  0.477E-05    0.08     135.9  T
     SCC iter.                  ...        0 min,  4.610 sec
     gradient                   ...        0 min,  0.523 sec
 * total energy  :  -411.3007406 Eh     change       -0.9775951E-02 Eh
   gradient norm :     0.0431679 Eh/α   predicted    -0.6815435E-02 ( -30.28%)
   displ. norm   :     0.8202867 α      lambda       -0.1308904E-01
   maximum displ.:     0.4369962 α      in ANC's #15, #18, #75, ...

........................................................................
.............................. CYCLE   36 ..............................
........................................................................
   1   -418.1939177 -0.418194E+03  0.453E-02    0.09       0.0  T
   2   -418.1831036  0.108141E-01  0.124E-01    0.05       1.0  T
   3   -418.1766547  0.644892E-02  0.152E-01    0.20       1.0  T
   4   -418.1794216 -0.276693E-02  0.149E-01    0.11       1.0  T
   5   -418.1947915 -0.153699E-01  0.280E-02    0.09       1.0  T
   6   -418.1938464  0.945074E-03  0.353E-02    0.07       1.0  T
   7   -418.1951131 -0.126662E-02  0.676E-03    0.09       1.0  T
   8   -418.1949712  0.141867E-03  0.129E-02    0.09       1.0  T
   9   -418.1951405 -0.169269E-03  0.799E-04    0.09       8.1  T
  10   -418.1951398  0.664778E-06  0.115E-03    0.09       5.6  T
  11   -418.1951409 -0.111068E-05  0.238E-04    0.09      27.2  T
  12   -418.1951409 -0.372590E-07  0.146E-04    0.09      44.5  T
  13   -418.1951410 -0.177596E-07  0.163E-05    0.09     398.0  T
     SCC iter.                  ...        0 min,  2.654 sec
     gradient                   ...        0 min,  0.476 sec
 * total energy  :  -411.3168032 Eh     change       -0.1606263E-01 Eh
   gradient norm :     0.0595524 Eh/α   predicted    -0.1094814E-01 ( -31.84%)
   displ. norm   :     0.8001063 α      lambda       -0.2046575E-01
   maximum displ.:     0.3923515 α      in ANC's #18, #15, #75, ...

........................................................................
.............................. CYCLE   37 ..............................
........................................................................
   1   -418.1816220 -0.418182E+03  0.454E-02    0.09       0.0  T
   2   -418.1663783  0.152436E-01  0.131E-01    0.04       1.0  T
   3   -418.1614061  0.497222E-02  0.167E-01    0.20       1.0  T
   4   -418.1511681  0.102380E-01  0.206E-01    0.14       1.0  T
   5   -418.1816919 -0.305238E-01  0.358E-02    0.10       1.0  T
   6   -418.1801475  0.154442E-02  0.478E-02    0.06       1.0  T
   7   -418.1825316 -0.238409E-02  0.672E-03    0.09       1.0  T
   8   -418.1824285  0.103134E-03  0.113E-02    0.09       1.0  T
   9   -418.1825545 -0.126051E-03  0.232E-03    0.09       2.8  T
  10   -418.1825596 -0.507742E-05  0.811E-04    0.09       8.0  T
  11   -418.1825601 -0.476769E-06  0.210E-04    0.09      30.9  T
  12   -418.1825600  0.584051E-07  0.317E-04    0.09      20.5  T
  13   -418.1825601 -0.817559E-07  0.109E-04    0.09      59.5  T
  14   -418.1825601 -0.956646E-08  0.284E-05    0.09     228.6  T
     SCC iter.                  ...        0 min,  2.911 sec
     gradient                   ...        0 min,  0.484 sec
 * total energy  :  -411.3404320 Eh     change       -0.2362879E-01 Eh
[...]
     4   6 C        5   6 C                                       1.4246433
     2   6 C        6   7 N                                       1.3659096
     5   6 C        6   7 N                                       1.3649489
     5   6 C        7   6 C                                       1.3900367
     7   6 C        8   6 C                                       1.3874403
     8   6 C        9   6 C                                       1.4522004
     9   6 C       10   6 C                                       1.3491608
     8   6 C       11   7 N                                       1.3610063
    10   6 C       12   6 C                                       1.4519704
    11   7 N       12   6 C                                       1.3465681
    12   6 C       13   6 C                                       1.4107236
    13   6 C       14   6 C                                       1.4078410
    14   6 C       15   6 C                                       1.4210399
    15   6 C       16   6 C                                       1.3678130
    16   6 C       17   6 C                                       1.4229084
    14   6 C       18   7 N                                       1.3620574
    17   6 C       18   7 N                                       1.3688340
    17   6 C       19   6 C                                       1.3893862
    19   6 C       20   6 C                                       1.3893589
    21   6 C       22   6 C                                       1.3481713
     1   6 C       23   6 C                                       1.3898741
    20   6 C       24   7 N                                       1.3537061
    23   6 C       24   7 N                                       1.3543435
     1   6 C       25   1 H                                       1.0848553
     3   6 C       26   1 H                                       1.0784568
     4   6 C       27   1 H                                       1.0784985
     6   7 N       28   1 H                                       1.0144594
     7   6 C       29   1 H                                       1.0853621
     9   6 C       30   1 H                                       1.0787445
    10   6 C       31   1 H                                       1.0784452
    15   6 C       32   1 H                                       1.0782714
    16   6 C       33   1 H                                       1.0783644
    18   7 N       34   1 H                                       1.0147065
    19   6 C       35   1 H                                       1.0852900
    21   6 C       36   1 H                                       1.0789184
    22   6 C       37   1 H                                       1.0788978
    38   6 C       39   6 C                                       1.3891141
    39   6 C       40   6 C                                       1.4245765
    40   6 C       41   6 C                                       1.3665521
    41   6 C       42   6 C                                       1.4246308
    39   6 C       43   7 N                                       1.3659015
    42   6 C       43   7 N                                       1.3649584
    42   6 C       44   6 C                                       1.3900322
    44   6 C       45   6 C                                       1.3874305
    45   6 C       46   6 C                                       1.4521949
    46   6 C       47   6 C                                       1.3491570
    45   6 C       48   7 N                                       1.3610069
    47   6 C       49   6 C                                       1.4519861
    48   7 N       49   6 C                                       1.3465531
    49   6 C       50   6 C                                       1.4106884
    50   6 C       51   6 C                                       1.4078124
    51   6 C       52   6 C                                       1.4210465
    52   6 C       53   6 C                                       1.3678035
    53   6 C       54   6 C                                       1.4228991
    51   6 C       55   7 N                                       1.3620200
    54   6 C       55   7 N                                       1.3688398
    54   6 C       56   6 C                                       1.3893728
    56   6 C       57   6 C                                       1.3893537
    58   6 C       59   6 C                                       1.3481699
    38   6 C       60   6 C                                       1.3898717
    57   6 C       61   7 N                                       1.3537176
    60   6 C       61   7 N                                       1.3543309
    38   6 C       62   1 H                                       1.0848566
    40   6 C       63   1 H                                       1.0784558
    41   6 C       64   1 H                                       1.0784943
    43   7 N       65   1 H                                       1.0144559 (min)
    44   6 C       66   1 H                                       1.0853542
    46   6 C       67   1 H                                       1.0787439
    47   6 C       68   1 H                                       1.0784484
    52   6 C       69   1 H                                       1.0782719
    53   6 C       70   1 H                                       1.0783639
    55   7 N       71   1 H                                       1.0147026
    56   6 C       72   1 H                                       1.0852819
    58   6 C       73   1 H                                       1.0789180
    59   6 C       74   1 H                                       1.0788946
    75   6 C       76   6 C                                       1.2226086
    77   6 C       78   6 C                                       1.2227499
    79   6 C       80   6 C                                       1.2230806
    81   6 C       82   6 C                                       1.2230893
    83   6 C       84   6 C                                       1.2231084
    85   6 C       86   6 C                                       1.2230905
    87   6 C       88   6 C                                       1.2230438
    89   6 C       90   6 C                                       1.2230511
    91   6 C       92   6 C                                       1.2227335
    93   6 C       94   6 C                                       1.2226098
    95   6 C       96   6 C                                       1.4086292
    96   6 C       97   6 C                                       1.4197823
    97   6 C       98   6 C                                       1.3687602
    98   6 C       99   6 C                                       1.4218384
    96   6 C      100   7 N                                       1.3621047
    99   6 C      100   7 N                                       1.3679384
    99   6 C      101   6 C                                       1.3911021
   101   6 C      102   6 C                                       1.3863125
   102   6 C      103   6 C                                       1.4522342
   103   6 C      104   6 C                                       1.3493548
   102   6 C      105   7 N                                       1.3612248
   104   6 C      106   6 C                                       1.4513198
   105   7 N      106   6 C                                       1.3464604
   106   6 C      107   6 C                                       1.4109119
   107   6 C      108   6 C                                       1.4087721
   108   6 C      109   6 C                                       1.4199070
   109   6 C      110   6 C                                       1.3686529
   110   6 C      111   6 C                                       1.4219585
   108   6 C      112   7 N                                       1.3620165
   111   6 C      112   7 N                                       1.3681605
   111   6 C      113   6 C                                       1.3908582
   113   6 C      114   6 C                                       1.3865889
   114   6 C      115   6 C                                       1.4522738 (max)
   115   6 C      116   6 C                                       1.3493359
    95   6 C      117   6 C                                       1.4104837
   116   6 C      117   6 C                                       1.4512738
   114   6 C      118   7 N                                       1.3609003
   117   6 C      118   7 N                                       1.3468217
    97   6 C      119   1 H                                       1.0782351
    98   6 C      120   1 H                                       1.0783529
   100   7 N      121   1 H                                       1.0147614
   101   6 C      122   1 H                                       1.0856383
   103   6 C      123   1 H                                       1.0787646
   104   6 C      124   1 H                                       1.0784902
   109   6 C      125   1 H                                       1.0782097
   110   6 C      126   1 H                                       1.0783473
   112   7 N      127   1 H                                       1.0147565
   113   6 C      128   1 H                                       1.0856415
   115   6 C      129   1 H                                       1.0787507
   116   6 C      130   1 H                                       1.0784661
   131   6 C      132   6 C                                       1.4088295
   132   6 C      133   6 C                                       1.4197911
   133   6 C      134   6 C                                       1.3687443
   134   6 C      135   6 C                                       1.4218929
   132   6 C      136   7 N                                       1.3620701
   135   6 C      136   7 N                                       1.3680424
   135   6 C      137   6 C                                       1.3910755
   137   6 C      138   6 C                                       1.3864193
   138   6 C      139   6 C                                       1.4522436
   139   6 C      140   6 C                                       1.3493821
   138   6 C      141   7 N                                       1.3611736
   140   6 C      142   6 C                                       1.4512518
   141   7 N      142   6 C                                       1.3465571
   142   6 C      143   6 C                                       1.4109281
   143   6 C      144   6 C                                       1.4088649
   144   6 C      145   6 C                                       1.4198138
   145   6 C      146   6 C                                       1.3687148
   146   6 C      147   6 C                                       1.4219025
   144   6 C      148   7 N                                       1.3620378
   147   6 C      148   7 N                                       1.3680933
   147   6 C      149   6 C                                       1.3910078
   149   6 C      150   6 C                                       1.3864582
   150   6 C      151   6 C                                       1.4522199
   151   6 C      152   6 C                                       1.3493902
   131   6 C      153   6 C                                       1.4108782
   152   6 C      153   6 C                                       1.4512284
   150   6 C      154   7 N                                       1.3611169
   153   6 C      154   7 N                                       1.3465937
   133   6 C      155   1 H                                       1.0782127
   134   6 C      156   1 H                                       1.0783470
   136   7 N      157   1 H                                       1.0147669
   137   6 C      158   1 H                                       1.0856615
   139   6 C      159   1 H                                       1.0787606
   140   6 C      160   1 H                                       1.0784887
   145   6 C      161   1 H                                       1.0782068
   146   6 C      162   1 H                                       1.0783439
   148   7 N      163   1 H                                       1.0147702
   149   6 C      164   1 H                                       1.0856556
   151   6 C      165   1 H                                       1.0787589
   152   6 C      166   1 H                                       1.0784900
   167   6 C      168   6 C                                       1.4088856
   168   6 C      169   6 C                                       1.4198138
   169   6 C      170   6 C                                       1.3687145
   170   6 C      171   6 C                                       1.4218955
   168   6 C      172   7 N                                       1.3620384
   171   6 C      172   7 N                                       1.3680966
   171   6 C      173   6 C                                       1.3910049
   173   6 C      174   6 C                                       1.3864479
   174   6 C      175   6 C                                       1.4522188
   175   6 C      176   6 C                                       1.3493893
   174   6 C      177   7 N                                       1.3611095
   176   6 C      178   6 C                                       1.4512260
   177   7 N      178   6 C                                       1.3465847
   178   6 C      179   6 C                                       1.4108777
   179   6 C      180   6 C                                       1.4088176
   180   6 C      181   6 C                                       1.4197929
   181   6 C      182   6 C                                       1.3687442
   182   6 C      183   6 C                                       1.4218962
   180   6 C      184   7 N                                       1.3620703
   183   6 C      184   7 N                                       1.3680393
   183   6 C      185   6 C                                       1.3910757
   185   6 C      186   6 C                                       1.3864217
   186   6 C      187   6 C                                       1.4522496
   187   6 C      188   6 C                                       1.3493873
   167   6 C      189   6 C                                       1.4109104
   188   6 C      189   6 C                                       1.4512490
   186   6 C      190   7 N                                       1.3611662
   189   6 C      190   7 N                                       1.3465653
   169   6 C      191   1 H                                       1.0782065
   170   6 C      192   1 H                                       1.0783449
   172   7 N      193   1 H                                       1.0147734
   173   6 C      194   1 H                                       1.0856554
   175   6 C      195   1 H                                       1.0787568
   176   6 C      196   1 H                                       1.0784874
   181   6 C      197   1 H                                       1.0782166
   182   6 C      198   1 H                                       1.0783482
   184   7 N      199   1 H                                       1.0147673
   185   6 C      200   1 H                                       1.0856622
   187   6 C      201   1 H                                       1.0787637
   188   6 C      202   1 H                                       1.0784902
   203   6 C      204   6 C                                       1.4087195
   204   6 C      205   6 C                                       1.4199057
   205   6 C      206   6 C                                       1.3686591
   206   6 C      207   6 C                                       1.4219418
   204   6 C      208   7 N                                       1.3620026
   207   6 C      208   7 N                                       1.3681612
   207   6 C      209   6 C                                       1.3908488
   209   6 C      210   6 C                                       1.3865675
   210   6 C      211   6 C                                       1.4522557
   211   6 C      212   6 C                                       1.3493197
   210   6 C      213   7 N                                       1.3609235
   212   6 C      214   6 C                                       1.4512959
   213   7 N      214   6 C                                       1.3467917
   214   6 C      215   6 C                                       1.4104949
   215   6 C      216   6 C                                       1.4085574
   216   6 C      217   6 C                                       1.4197970
   217   6 C      218   6 C                                       1.3687618
   218   6 C      219   6 C                                       1.4218282
   216   6 C      220   7 N                                       1.3620870
   219   6 C      220   7 N                                       1.3679385
   219   6 C      221   6 C                                       1.3910879
   221   6 C      222   6 C                                       1.3863004
   222   6 C      223   6 C                                       1.4522149
   223   6 C      224   6 C                                       1.3493420
   203   6 C      225   6 C                                       1.4109470
   224   6 C      225   6 C                                       1.4513455
   222   6 C      226   7 N                                       1.3612492
   225   6 C      226   7 N                                       1.3464386
   205   6 C      227   1 H                                       1.0782085
   206   6 C      228   1 H                                       1.0783511
   208   7 N      229   1 H                                       1.0147527
   209   6 C      230   1 H                                       1.0856341
   211   6 C      231   1 H                                       1.0787502
   212   6 C      232   1 H                                       1.0784608
   217   6 C      233   1 H                                       1.0782399
   218   6 C      234   1 H                                       1.0783537
   220   7 N      235   1 H                                       1.0147557
   221   6 C      236   1 H                                       1.0856288
   223   6 C      237   1 H                                       1.0787617
   224   6 C      238   1 H                                       1.0784847

 * 4 distinct bonds (by element types)

   Z      Z             #   av. dist./Å        max./Å        min./Å
   1 H    6 C          62     1.0800615     1.0856622     1.0782065
   6 C    6 C         126     1.3895022     1.4522738     1.2226086
   1 H    7 N          12     1.0147024     1.0147734     1.0144559
   6 C    7 N          48     1.3595266     1.3688398     1.3464386


optimized geometry written to: xtbopt.xyz


           -------------------------------------------------
          | TOTAL ENERGY             -411.744873553632 Eh   |
          | GRADIENT NORM               0.000342378527 Eh/α |
          | HOMO-LUMO GAP               0.702583063772 eV   |
           -------------------------------------------------

------------------------------------------------------------------------
 * finished run on 2022/07/26 at 14:34:14.811     
------------------------------------------------------------------------
 total:
 * wall-time:     0 d,  0 h,  8 min,  9.965 sec
 *  cpu-time:     0 d,  0 h,  8 min,  7.797 sec
 * ratio c/w:     0.996 speedup
 SCF:
 * wall-time:     0 d,  0 h,  0 min, 15.096 sec
 *  cpu-time:     0 d,  0 h,  0 min, 15.033 sec
 * ratio c/w:     0.996 speedup
 ANC optimizer:
 * wall-time:     0 d,  0 h,  7 min, 54.666 sec
 *  cpu-time:     0 d,  0 h,  7 min, 52.568 sec
 * ratio c/w:     0.996 speedup

