238
 energy: -411.744873553632 gnorm: 0.000342378527 xtb: 6.5.1 (b24c23e)
C           36.22362074608102       -0.06079843586866       -0.01765794316301
C           36.84763167351479       -1.30084568054325       -0.06807928438947
C           36.23339942498987       -2.58508483741398       -0.12149182920146
C           37.22536008021535       -3.52427960326298       -0.15905436986352
C           38.47664949512848       -2.84382232203364       -0.12971502101148
N           38.19759708240048       -1.50881520927022       -0.07520880114701
C           39.74529491969359       -3.41151555972089       -0.15127539667411
C           40.96528943341506       -2.75141840000880       -0.12168960336885
C           42.24335885049061       -3.44045407220362       -0.14726594814936
C           43.19341523123569       -2.48345579027063       -0.10505557256949
N           41.15918845874405       -1.40546463478463       -0.06556978446330
C           42.49191322510999       -1.21320161182710       -0.05439159735947
C           43.14769448625906        0.03476032347067       -0.00259839001368
C           42.49795820784713        1.28280905879626        0.04465724716928
C           43.10661552614965        2.56588186850003        0.09578993820933
C           42.11067515167161        3.50278225003528        0.13089638151758
C           40.86374658580473        2.81792969452604        0.10236684662706
N           41.15032786280481        1.48045194527063        0.05011284109093
C           39.59623211817662        3.38654939076742        0.12410209504718
C           38.37525191836046        2.72413226491405        0.09710951882054
C           37.09072766641422        3.40672579082107        0.12446814248977
C           36.14685655300832        2.44489345112951        0.08507905147190
C           36.85558674927785        1.17603185909256        0.03352383006690
N           38.19387709387563        1.38374030768508        0.04258939427094
H           35.13878834058084       -0.06773207003830       -0.01884743269278
H           35.16811768779340       -2.75295287553727       -0.12949208637807
H           37.11430864774241       -4.59613945758552       -0.20313074557670
H           38.89221461970460       -0.77012339335679       -0.04408732091949
H           39.77596717828028       -4.49552312507393       -0.19596768633561
H           42.36351576831580       -4.51157005810643       -0.19156370611194
H           44.26602984803228       -2.59542585584525       -0.10715857940968
H           44.17114211986303        2.73729691479814        0.10409425299566
H           42.21841385583179        4.57492715097006        0.17293479915532
H           40.45825237317351        0.73899439961597        0.02009155254813
H           39.56696901169288        4.47058359375450        0.16731790665691
H           36.96479023558484        4.47737777597175        0.16815717814040
H           35.07301560321365        2.54915208296458        0.08908556243152
C          111.07752481576163        0.06097499139891       -0.02331199515435
C          110.45379873497222        1.29278379260209       -0.17579301443442
C          111.06851548097782        2.56791880331423       -0.33570493552481
C          110.07694239974496        3.50164234373147       -0.44709360030005
C          108.82541098817096        2.82667366321937       -0.35957829752162
N          109.10392921921959        1.50037657425676       -0.19686754133091
C          107.55693155917882        3.39122737459677       -0.42612261908973
C          106.33692402750373        2.73559060967890       -0.34435950494397
C          105.05877441604611        3.41975615204978       -0.42874445827992
C          104.10884436633164        2.46878551477796       -0.31250322259211
N          106.14321661296721        1.39852739266696       -0.17980287927281
C          104.81052751044865        1.20718006833237       -0.15676063497978
C          104.15491595782615       -0.03258401493796       -0.00444534841287
C          104.80435638650418       -1.27199556962037        0.15054358632754
C          104.19511391317707       -2.54580374521432        0.31057237944682
C          105.19061522815072       -3.47602833756641        0.43117666742898
C          106.43782602460412       -2.79625092007677        0.34745500532101
N          106.15186384241653       -1.46838707294438        0.17796973655607
C          107.70518748048711       -3.36076218792613        0.42147132058827
C          108.92612809991418       -2.70318101440339        0.33665163131419
C          110.21071122563923       -3.38084810842775        0.42179812570663
C          111.15445427090867       -2.42636386125900        0.29581970344436
C          110.44557464187456       -1.16673911782715        0.13511811573593
N          109.10732509804066       -1.37269824498563        0.16479623567922
H          112.16235301890498        0.06730500435330       -0.02793219935439
H          112.13385763807139        2.73380670829695       -0.36007702622098
H          110.18841997770799        4.56626488952906       -0.57862832139813
H          108.40889666789823        0.76731571164166       -0.10374366705145
H          107.52643330670558        4.46807441070602       -0.55827356798664
H          104.93847264884042        4.48373651102669       -0.55974661370019
H          103.03620885352552        2.57967210147621       -0.32692563981616
H          103.13050854339515       -2.71585620863103        0.32974450463448
H          105.08237273596811       -4.54041852108760        0.56617915073404
H          106.84437471351121       -0.73240364735522        0.08643691382930
H          107.73434309623578       -4.43679262717959        0.55983669657795
H          110.33674107634731       -4.44353767688500        0.55917056795525
H          112.22830155440467       -2.53003455192215        0.30667531785986
C           45.77475688857223        0.05110114566009        0.00599387339505
C           44.55216508710767        0.04616512392540        0.00194663114592
C           47.12383844909728        0.05357136964540        0.00864437638215
C           48.34658004082922        0.04938628513160        0.01020069624721
C           59.37487792667723        0.03548307354052        0.02094572830076
C           58.15179874590825        0.03677198315740        0.02222991480054
C           60.72357015798787        0.03652172493795        0.01862251163378
C           61.94665290051776        0.03343640511361        0.01611304257860
C           72.97802653429071       -0.00482031772105       -0.00120751824052
C           71.75492362823114       -0.00120788417890       -0.00151669263832
C           74.32673011662480       -0.00651140755032       -0.00206120210343
C           75.54981411504821       -0.01011949877399       -0.00364178829500
C           86.58116057260665       -0.02675247507287       -0.00438020977934
C           85.35811821633830       -0.02772334151795       -0.00587602793150
C           87.92982863816343       -0.02337232036309       -0.00505321605250
C           89.15287926967031       -0.02342719523680       -0.00410475389504
C          100.17884980651662       -0.05323933726675        0.00220805930707
C           98.95612009379826       -0.05251750054563        0.00512961015759
C          101.52787576586906       -0.05014627258785       -0.00091850266894
C          102.75046887393485       -0.04434793886251       -0.00356658635248
C           49.75016287622375        0.05089280654039        0.01146918582739
C           50.39118151520833        1.30518280148211        0.02082117030714
C           49.77866127196612        2.58602901718731        0.02658704651937
C           50.77317396062823        3.52646630538353        0.03171111390740
C           52.02075966785701        2.84444747960135        0.02965293235394
N           51.73840191559414        1.50598315208841        0.02313658298589
C           53.28661281578692        3.42130227227818        0.03400315040099
C           54.51726089180759        2.78304969635038        0.03302773764955
C           55.78209179230512        3.49659587209381        0.03922012457307
C           56.75050713253950        2.55695778380743        0.03605295783696
N           54.73726097522103        1.43973673589599        0.02647924089869
C           56.07339416377705        1.27329902830747        0.02786946731078
C           56.74852358336689        0.03441225961831        0.02222513194442
C           56.10730173504709       -1.21994638305397        0.01465399927000
C           56.71960920323809       -2.50103262092985        0.00890723378812
C           55.72499584385669       -3.44118138663907        0.00024694981576
C           54.47736450997242       -2.75899246709375        0.00038767399081
N           54.76012618845247       -1.42040370245136        0.00980493002386
C           53.21173309758532       -3.33569456261193       -0.00844117632060
C           51.98075544787580       -2.69747690163427       -0.00761699365332
C           50.71589120248143       -3.41100145681042       -0.01761231265499
C           49.74747326848858       -2.47140830139553       -0.01141577280353
C           50.42460706446217       -1.18785539011035        0.00188601924101
N           51.76108207734247       -1.35446949773675        0.00351815739852
H           48.71374118058112        2.75495485279745        0.02635072775119
H           50.66237987211829        4.59910246289422        0.03630549077257
H           52.42888060544684        0.76236447975155        0.01982918868870
H           53.30219544523985        4.50681674745727        0.03908078464099
H           55.88179107342862        4.57072630619506        0.04527452709484
H           57.82088699691958        2.68894014916917        0.03898468369072
H           57.78446892331824       -2.67016095119818        0.01119809969054
H           55.83550475044490       -4.51383421181436       -0.00578737418570
H           54.06969109329081       -0.67674681629444        0.01191627793317
H           53.19603930379464       -4.42119021258534       -0.01681822316712
H           50.61612075585251       -4.48507863533545       -0.02795648568895
H           48.67710727098816       -2.60327604542524       -0.01548102034357
C           63.34988960911601        0.03285070888841        0.01185239596932
C           63.99426515868401        1.28556102726561       -0.00538840014649
C           63.38554709612838        2.56816571647419       -0.01931832928254
C           64.38287434535583        3.50546447583852       -0.03575206073661
C           65.62850897114164        2.81978291032151       -0.03197420859350
N           65.34204357417259        1.48220166586028       -0.01316532386412
C           66.89587514121115        3.39311218977889       -0.04490386613169
C           68.12542391956697        2.75253777289771       -0.03922745926956
C           69.39152265139695        3.46374829283608       -0.05281744741620
C           70.35835512117485        2.52253130649732       -0.03950649394573
N           68.34313767410951        1.40903589335641       -0.01931241072794
C           69.67907283733291        1.24023822708350       -0.01873225780607
C           70.35165779452623        0.00005688555268       -0.00148906766515
C           69.70707456562729       -1.25260608824549        0.01425611729455
C           70.31578693291947       -2.53524891546343        0.02719815265613
C           69.31847299923828       -3.47260945837371        0.03719859571428
C           68.07281690335473       -2.78696383088759        0.03110071141942
N           68.35931409110977       -1.44927762166787        0.01718001772367
C           66.80554113950681       -3.36041836324375        0.03912561662140
C           65.57595721803618       -2.71981132497893        0.03566004671285
C           64.30985237578963       -3.43098854888041        0.04781678381841
C           63.34308913529002       -2.48961988424063        0.04093579869275
C           64.02245846653814       -1.20734278876013        0.02401951798166
N           65.35841228052639       -1.37626674843377        0.02147932493607
H           62.32116689765378        2.74030559804061       -0.01707499597474
H           64.27530536404221        4.57834902348086       -0.04916122964021
H           66.03023682640506        0.73648227333472       -0.00651638089226
H           66.91399348344559        4.47850768720792       -0.06068572846767
H           69.49317411853956        4.53757177889156       -0.06997198434575
H           71.42896134448017        2.65262852842792       -0.04333494836944
H           71.38016838416780       -2.70735528975394        0.02829300670010
H           69.42601141817741       -4.54552554869981        0.04777357535002
H           67.67107131476835       -0.70360770996255        0.00965146354306
H           66.78741108028454       -4.44586494461127        0.05030161818031
H           64.20810557961352       -4.50486607495739        0.06027718694492
H           62.27247910598323       -2.61963877652019        0.04637998049452
C           76.95307871168409       -0.00936916509393       -0.00468563761887
C           77.59549264043224        1.24409108193560       -0.03785408892332
C           76.98452728214644        2.52528017687354       -0.07171745148031
C           77.98019234662604        3.46409691563983       -0.09727530974147
C           79.22704476538394        2.78084515124627       -0.07960019279126
N           78.94290670778868        1.44305767813941       -0.04385011608215
C           80.49327494875091        3.35643731349680       -0.09538259839554
C           81.72400707252075        2.71825882078348       -0.07913275617092
C           82.98884935445996        3.43151598197921       -0.09855869148697
C           83.95728905745594        2.49216097741399       -0.07431351258060
N           81.94393372701548        1.37550159272318       -0.04372130025763
C           83.28018436186849        1.20903833104568       -0.03993260377246
C           83.95490313141127       -0.02958087940255       -0.00598383211597
C           83.31276892386016       -1.28304508031307        0.02948235696413
C           83.92377038187600       -2.56412159618810        0.06597522969587
C           82.92809276432453       -3.50297057128280        0.09144864316626
C           81.68123062531758       -2.81979775783246        0.07149176070822
N           81.96533093260588       -1.48209803989318        0.03437628123057
C           80.41487428784997       -3.39532323240805        0.08575125373943
C           79.18417746284469       -2.75719745802720        0.06715741018481
C           77.91934212542203       -3.47057959390845        0.08465427010171
C           76.95082692479522       -2.53132597682467        0.05962078388771
C           77.62782080152087       -1.24807392903586        0.02695763321140
N           78.96406397646601       -1.41440764773337        0.03196196491944
H           75.91985109178361        2.69550578774276       -0.07583708457422
H           77.87079005440725        4.53649448148732       -0.12594680948339
H           79.63239080423452        0.69874915692560       -0.02431932221199
H           80.50944241591050        4.44159224733808       -0.12410136882124
H           83.08868626792973        4.50527135200316       -0.12680641245560
H           85.02767040895864        2.62408187899941       -0.07824536483385
H           84.98846520166403       -2.73425456130041        0.07149891834710
H           83.03756390298865       -4.57532335992296        0.12161935794355
H           81.27587923020229       -0.73781618128733        0.01308585713083
H           80.39868592493380       -4.48046763358992        0.11510564648611
H           77.81961999701284       -4.54436952991278        0.11224931494050
H           75.88044775003614       -2.66332181876833        0.06213241329377
C           90.55613674974147       -0.02252600267006        0.00049187861721
C           91.19938475561123        1.22866633904418       -0.07189659992329
C           90.58911400323230        2.50842271671115       -0.14887106672633
C           91.58522188714278        3.44551794709794       -0.20224817541196
C           92.83173975123162        2.76266187112119       -0.15960004768116
N           92.54686821588041        1.42680226758006       -0.08090976456844
C           94.09840879761359        3.33614094411721       -0.19323369922334
C           95.32798450204001        2.69632323260803       -0.15654780564843
C           96.59443015870643        3.40561675111022       -0.20198335022222
C           97.56069659118664        2.46535366635804       -0.14815115223490
N           95.54458226637857        1.35516125104426       -0.07603483419791
C           96.88065107087576        1.18570628957729       -0.06877745955910
C           97.55257677828551       -0.05206134027636        0.00831057161169
C           96.90956911401261       -1.30255984832122        0.09094432773842
C           97.52010153715857       -2.58161645245559        0.17513200629641
C           96.52413286983929       -3.51853919526177        0.23621210196220
C           95.27763640575238       -2.83607970380376        0.19048815810471
N           95.56205369068508       -1.50085859976140        0.10361527934720
C           94.01074080663690       -3.40964028672437        0.22408736648470
C           92.78151890652848       -2.77031310993273        0.17823177191689
C           91.51513282511105       -3.48004189315445        0.21668888759425
C           90.54885785817930       -2.54035591400548        0.15323494812987
C           91.22883471942860       -1.26041392838862        0.07718620966299
N           92.56456081995921       -1.42914946996846        0.09332968049503
H           89.52452106704554        2.67878394130379       -0.16121013370895
H           91.47645740576820        4.51648136332366       -0.26587548653069
H           93.23628006532819        0.68358495948923       -0.03549814952973
H           94.11630014368902        4.41972492967392       -0.25747329238837
H           96.69666080098220        4.47756240638723       -0.26666050592679
H           98.63134693963578        2.59448697355549       -0.15863557107083
H           98.58476894355563       -2.75176097714443        0.18675876826795
H           96.63323785182419       -4.58904862789032        0.30658313699122
H           94.87257717253085       -0.75792964506652        0.05454828562684
H           93.99291925048887       -4.49289078469775        0.29365981913597
H           91.41301740380673       -4.55191068841188        0.28299305822454
H           89.47820432813818       -2.67005494723382        0.15611469275458
