      -----------------------------------------------------------      
     |                   =====================                   |     
     |                           x T B                           |     
     |                   =====================                   |     
     |                         S. Grimme                         |     
     |          Mulliken Center for Theoretical Chemistry        |     
     |                    University of Bonn                     |     
      -----------------------------------------------------------      

   * xtb version 6.5.1 (b24c23e) compiled by 'conda@728c89f4b128' on 2022-07-12

   xtb is free software: you can redistribute it and/or modify it under
   the terms of the GNU Lesser General Public License as published by
   the Free Software Foundation, either version 3 of the License, or
   (at your option) any later version.
   
   xtb is distributed in the hope that it will be useful,
   but WITHOUT ANY WARRANTY; without even the implied warranty of
   MERCHANTABILITY or FITNESS FOR A PARTICULAR PURPOSE.  See the
   GNU Lesser General Public License for more details.
   
   Cite this work as:
   * C. Bannwarth, E. Caldeweyher, S. Ehlert, A. Hansen, P. Pracht,
     J. Seibert, S. Spicher, S. Grimme, WIREs Comput. Mol. Sci., 2020, 11,
     e01493. DOI: 10.1002/wcms.1493
   
   for GFN2-xTB:
   * C. Bannwarth, S. Ehlert and S. Grimme., J. Chem. Theory Comput., 2019,
     15, 1652-1671. DOI: 10.1021/acs.jctc.8b01176
   for GFN1-xTB:
   * S. Grimme, C. Bannwarth, P. Shushkov, J. Chem. Theory Comput., 2017,
     13, 1989-2009. DOI: 10.1021/acs.jctc.7b00118
   for GFN0-xTB:
   * P. Pracht, E. Caldeweyher, S. Ehlert, S. Grimme, ChemRxiv, 2019, preprint.
     DOI: 10.26434/chemrxiv.8326202.v1
   for GFN-FF:
   * S. Spicher and S. Grimme, Angew. Chem. Int. Ed., 2020, 59, 15665-15673.
     DOI: 10.1002/anie.202004239
   
   for ALPB and GBSA implicit solvation:
   * S. Ehlert, M. Stahn, S. Spicher, S. Grimme, J. Chem. Theory Comput.,
     2021, 17, 4250-4261. DOI: 10.1021/acs.jctc.1c00471
   
   for DFT-D4:
   * E. Caldeweyher, C. Bannwarth and S. Grimme, J. Chem. Phys., 2017,
     147, 034112. DOI: 10.1063/1.4993215
   * E. Caldeweyher, S. Ehlert, A. Hansen, H. Neugebauer, S. Spicher,
     C. Bannwarth and S. Grimme, J. Chem. Phys., 2019, 150, 154122.
     DOI: 10.1063/1.5090222
   * E. Caldeweyher, J.-M. Mewes, S. Ehlert and S. Grimme, Phys. Chem. Chem. Phys.
     2020, 22, 8499-8512. DOI: 10.1039/D0CP00502A
   
   for sTDA-xTB:
   * S. Grimme and C. Bannwarth, J. Chem. Phys., 2016, 145, 054103.
     DOI: 10.1063/1.4959605
   
   in the mass-spec context:
   * V. Asgeirsson, C. Bauer and S. Grimme, Chem. Sci., 2017, 8, 4879.
     DOI: 10.1039/c7sc00601b
   * J. Koopman and S. Grimme, ACS Omega 2019, 4, 12, 15120-15133.
     DOI: 10.1021/acsomega.9b02011
   
   for metadynamics refer to:
   * S. Grimme, J. Chem. Theory Comput., 2019, 155, 2847-2862
     DOI: 10.1021/acs.jctc.9b00143
   
   for SPH calculations refer to:
   * S. Spicher and S. Grimme, J. Chem. Theory Comput., 2021, 17, 1701-1714
     DOI: 10.1021/acs.jctc.0c01306
   
   with help from (in alphabetical order)
   P. Atkinson, C. Bannwarth, F. Bohle, G. Brandenburg, E. Caldeweyher
   M. Checinski, S. Dohm, S. Ehlert, S. Ehrlich, I. Gerasimov, C. Hölzer
   A. Katbashev, J. Koopman, C. Lavigne, S. Lehtola, F. März, M. Müller,
   F. Musil, H. Neugebauer, J. Pisarek, C. Plett, P. Pracht, F. Pultar,
   J. Seibert, P. Shushkov, S. Spicher, M. Stahn, M. Steiner, T. Strunk,
   J. Stückrath, T. Rose, and J. Unsleber
   
 * started run on 2022/07/30 at 22:11:45.092     

           -------------------------------------------------
          |                Calculation Setup                |
           -------------------------------------------------

          program call               : xtb p-CP_C8_5.xyz --gfn 1 --opt -T 48
          hostname                   : cx3-15-17.cx3.hpc.ic.ac.uk
          coordinate file            : p-CP_C8_5.xyz
          omp threads                :                     1

   ID    Z sym.   atoms
    1    6 C      1-5, 7-10, 12-23, 26-31, 34-38, 41, 42, 64-68, 70-73,
                  75-86, 89-94, 97-101, 104, 105, 127-163, 165-168, 170-181,
                  184-189, 192-196, 199, 200, 221-225, 227-230, 232-243,
                  246-251, 254-258, 261, 262, 283-287, 289-292, 294-305,
                  308-313, 316-320, 323, 324
    2    7 N      6, 11, 32, 33, 69, 74, 95, 96, 164, 169, 190, 191, 226,
                  231, 252, 253, 288, 293, 314, 315
    3    8 O      24, 25, 39, 40, 87, 88, 102, 103, 182, 183, 197, 198, 244,
                  245, 259, 260, 306, 307, 321, 322
    4    1 H      43-63, 106-126, 201-220, 263-282, 325-344

molecular fragmentation (1/2 indicates fragments):
111111111111111111111111111111111111111111111111111111111111111222222222
222222222222222222222222222222222222222222222222222222222222222222222222
222222222222222222222222222222222222222222222222222222222222222222222222
222222222222222222222222222222222222222222222222222222222222222222222222
22222222222222222222222222222222222222222222222222222222
# atoms in fragment 1/2:    63   281
 fragment masses (1/2) :      549.56     2579.54
CMA distance (Bohr)    :  90.320
constraining FC (au)   :  0.0500
########################################################################
[WARNING] Please study the warnings concerning your input carefully
-1- prog_main_parseArguments: Unknown option '-T' provided
########################################################################

           -------------------------------------------------
          |                 G F N 1 - x T B                 |
           -------------------------------------------------

        Reference                      10.1021/acs.jctc.7b00118
      * Hamiltonian:
        H0-scaling (s, p, d)           1.850000    2.250000    2.000000
        zeta-weighting                 0.000000
      * Dispersion:
        s8                             2.400000
        a1                             0.630000
        a2                             5.000000
        s9                             0.000000
      * Repulsion:
        kExp                           1.500000
        rExp                           1.000000
      * Coulomb:
        alpha                          2.000000
        third order                    atomic
        anisotropic                    false
      * Halogen bond correction:
        rad-scale                      1.300000
        damping                        0.440000


          ...................................................
          :                      SETUP                      :
          :.................................................:
          :  # basis functions                1172          :
          :  # atomic orbitals                1172          :
          :  # shells                          688          :
          :  # electrons                      1130          :
          :  # halogen bonds                     0          :
          :  max. iterations                   250          :
          :  Hamiltonian                  GFN1-xTB          :
          :  restarted?                      false          :
          :  GBSA solvation                  false          :
          :  PC potential                    false          :
          :  electronic temp.          300.0000000     K    :
          :  accuracy                    1.0000000          :
          :  -> integral cutoff          0.2500000E+02      :
          :  -> integral neglect         0.1000000E-07      :
          :  -> SCF convergence          0.1000000E-05 Eh   :
          :  -> wf. convergence          0.2000000E-04 e    :
          :  Broyden damping             0.4000000          :
          ...................................................

 iter      E             dE          RMSdq      gap      omega  full diag
   1   -645.5885116 -0.645589E+03  0.104E+01    0.12       0.0  T
   2   -611.3815598  0.342070E+02  0.731E+00    0.11       1.0  T
   3   2765.2191681  0.337660E+04  0.182E+01    0.06       1.0  T
   4   4989.2895997  0.222407E+04  0.219E+01    0.19       1.0  T
   5   -512.9685366 -0.550226E+04  0.780E+00    0.00       1.0  T
   6   -352.9082411  0.160060E+03  0.735E+00    0.04       1.0  T
   7   1003.5194629  0.135643E+04  0.122E+01    0.02       1.0  T
   8   -360.1792153 -0.136370E+04  0.670E+00    0.03       1.0  T
   9   -502.1343610 -0.141955E+03  0.500E+00    0.01       1.0  T
  10   -513.5600571 -0.114257E+02  0.456E+00    0.03       1.0  T
  11   -501.3482486  0.122118E+02  0.449E+00    0.06       1.0  T
  12   -488.2918314  0.130564E+02  0.447E+00    0.03       1.0  T
  13   -470.7474157  0.175444E+02  0.451E+00    0.01       1.0  T
  14   -464.1217587  0.662566E+01  0.452E+00    0.03       1.0  T
  15   -463.9000547  0.221704E+00  0.452E+00    0.01       1.0  T
  16   -462.2310897  0.166897E+01  0.453E+00    0.02       1.0  T
  17   -465.3258419 -0.309475E+01  0.449E+00    0.02       1.0  T
  18   -468.0492665 -0.272342E+01  0.447E+00    0.03       1.0  T
  19   -439.2176090  0.288317E+02  0.477E+00    0.02       1.0  T
  20   -446.6555015 -0.743789E+01  0.449E+00    0.01       1.0  T
  21   -488.5662147 -0.419107E+02  0.418E+00    0.02       1.0  T
  22   -516.8571505 -0.282909E+02  0.384E+00    0.04       1.0  T
  23   -568.1630032 -0.513059E+02  0.301E+00    0.04       1.0  T
  24   -610.3337147 -0.421707E+02  0.255E+00    0.00       1.0  T
  25   -627.0896183 -0.167559E+02  0.234E+00    0.04       1.0  T
  26   -634.4851980 -0.739558E+01  0.219E+00    0.06       1.0  T
  27   -635.6465405 -0.116134E+01  0.204E+00    0.04       1.0  T
  28   -638.1922508 -0.254571E+01  0.191E+00    0.03       1.0  T
  29   -637.3370306  0.855220E+00  0.199E+00    0.02       1.0  T
  30   -636.5983342  0.738696E+00  0.205E+00    0.02       1.0  T
  31   -637.2600728 -0.661739E+00  0.201E+00    0.02       1.0  T
  32   -636.2329189  0.102715E+01  0.204E+00    0.05       1.0  T
  33   -634.1557488  0.207717E+01  0.211E+00    0.05       1.0  T
  34   -634.3632042 -0.207455E+00  0.189E+00    0.01       1.0  T
  35   -638.6106874 -0.424748E+01  0.174E+00    0.02       1.0  T
  36   -640.9240618 -0.231337E+01  0.168E+00    0.02       1.0  T
  37   -640.5495224  0.374539E+00  0.173E+00    0.02       1.0  T
  38   -639.1147478  0.143477E+01  0.167E+00    0.01       1.0  T
  39   -644.3941823 -0.527943E+01  0.140E+00    0.01       1.0  T
  40   -644.2103112  0.183871E+00  0.135E+00    0.07       1.0  T
  41   -644.1281746  0.821366E-01  0.131E+00    0.04       1.0  T
  42   -643.9634137  0.164761E+00  0.128E+00    0.01       1.0  T
  43   -643.6028640  0.360550E+00  0.122E+00    0.05       1.0  T
  44   -643.9235794 -0.320715E+00  0.113E+00    0.07       1.0  T
  45   -643.9285771 -0.499769E-02  0.113E+00    0.07       1.0  T
  46   -644.7464632 -0.817886E+00  0.105E+00    0.00       1.0  T
  47   -645.7369422 -0.990479E+00  0.907E-01    0.04       1.0  T
  48   -645.0100552  0.726887E+00  0.110E+00    0.05       1.0  T
  49   -646.1579369 -0.114788E+01  0.856E-01    0.02       1.0  T
  50   -646.7909208 -0.632984E+00  0.809E-01    0.01       1.0  T
  51   -647.3295161 -0.538595E+00  0.675E-01    0.01       1.0  T
  52   -647.3505149 -0.209988E-01  0.630E-01    0.02       1.0  T
  53   -647.3284443  0.220706E-01  0.676E-01    0.06       1.0  T
  54   -647.3985686 -0.701243E-01  0.639E-01    0.05       1.0  T
  55   -647.2861098  0.112459E+00  0.632E-01    0.03       1.0  T
  56   -647.5533569 -0.267247E+00  0.491E-01    0.05       1.0  T
  57   -647.4977805  0.555764E-01  0.499E-01    0.02       1.0  T
  58   -647.5595171 -0.617366E-01  0.445E-01    0.03       1.0  T
  59   -647.6686444 -0.109127E+00  0.370E-01    0.01       1.0  T
  60   -647.7023063 -0.336620E-01  0.328E-01    0.03       1.0  T
  61   -647.7562258 -0.539195E-01  0.276E-01    0.01       1.0  T
  62   -647.7597674 -0.354156E-02  0.261E-01    0.01       1.0  T
  63   -647.7138491  0.459183E-01  0.279E-01    0.01       1.0  T
  64   -647.7867689 -0.729198E-01  0.211E-01    0.01       1.0  T
  65   -647.7876398 -0.870876E-03  0.206E-01    0.01       1.0  T
  66   -647.7714812  0.161586E-01  0.223E-01    0.00       1.0  T
  67   -647.7809354 -0.945425E-02  0.207E-01    0.01       1.0  T
  68   -647.7873900 -0.645460E-02  0.192E-01    0.01       1.0  T
  69   -647.7926695 -0.527946E-02  0.182E-01    0.01       1.0  T
  70   -647.7951900 -0.252050E-02  0.176E-01    0.01       1.0  T
  71   -647.7935372  0.165280E-02  0.176E-01    0.01       1.0  T
  72   -647.7986385 -0.510134E-02  0.164E-01    0.01       1.0  T
  73   -647.8099788 -0.113403E-01  0.137E-01    0.01       1.0  T
  74   -647.8083843  0.159453E-02  0.136E-01    0.01       1.0  T
  75   -647.8125925 -0.420820E-02  0.123E-01    0.01       1.0  T
  76   -647.8149289 -0.233639E-02  0.114E-01    0.01       1.0  T
  77   -647.8166625 -0.173360E-02  0.108E-01    0.01       1.0  T
  78   -647.8187846 -0.212216E-02  0.994E-02    0.01       1.0  T
  79   -647.8215776 -0.279296E-02  0.920E-02    0.01       1.0  T
  80   -647.8231035 -0.152586E-02  0.876E-02    0.01       1.0  T
  81   -647.8257877 -0.268425E-02  0.771E-02    0.01       1.0  T
  82   -647.8274315 -0.164378E-02  0.695E-02    0.01       1.0  T
  83   -647.8283652 -0.933745E-03  0.644E-02    0.01       1.0  T
  84   -647.8294465 -0.108124E-02  0.581E-02    0.01       1.0  T
  85   -647.8305237 -0.107722E-02  0.507E-02    0.01       1.0  T
  86   -647.8314815 -0.957820E-03  0.417E-02    0.01       1.0  T
  87   -647.8324626 -0.981072E-03  0.313E-02    0.01       1.0  T
  88   -647.8330017 -0.539097E-03  0.239E-02    0.01       1.0  T
  89   -647.8332051 -0.203401E-03  0.194E-02    0.01       1.0  T
  90   -647.8333834 -0.178365E-03  0.161E-02    0.01       1.0  T
  91   -647.8334667 -0.832526E-04  0.137E-02    0.01       1.0  T
  92   -647.8335031 -0.364176E-04  0.127E-02    0.01       1.0  T
  93   -647.8335679 -0.648300E-04  0.108E-02    0.01       1.0  T
  94   -647.8336029 -0.349757E-04  0.936E-03    0.01       1.0  T
  95   -647.8336117 -0.875961E-05  0.896E-03    0.01       1.0  T
  96   -647.8336294 -0.177270E-04  0.815E-03    0.01       1.0  T
  97   -647.8336521 -0.227219E-04  0.718E-03    0.01       1.0  T
  98   -647.8336709 -0.188175E-04  0.609E-03    0.01       1.0  T
  99   -647.8336832 -0.122239E-04  0.516E-03    0.01       1.0  T
 100   -647.8336926 -0.942058E-05  0.431E-03    0.01       1.3  T
 101   -647.8337019 -0.934830E-05  0.308E-03    0.01       1.8  T
 102   -647.8337051 -0.315517E-05  0.255E-03    0.01       2.1  T
 103   -647.8337062 -0.113598E-05  0.247E-03    0.01       2.2  T
 104   -647.8337071 -0.876986E-06  0.220E-03    0.01       2.5  T
 105   -647.8337093 -0.223729E-05  0.176E-03    0.01       3.1  T
 106   -647.8337106 -0.125227E-05  0.138E-03    0.01       3.9  T
 107   -647.8337111 -0.461103E-06  0.125E-03    0.01       4.3  T
 108   -647.8337112 -0.137699E-06  0.119E-03    0.01       4.5  T
 109   -647.8337115 -0.260823E-06  0.110E-03    0.01       4.9  T
 110   -647.8337118 -0.353770E-06  0.942E-04    0.01       5.7  T
 111   -647.8337120 -0.154093E-06  0.868E-04    0.01       6.2  T
 112   -647.8337121 -0.178106E-06  0.758E-04    0.01       7.1  T
 113   -647.8337123 -0.117652E-06  0.664E-04    0.01       8.1  T
 114   -647.8337125 -0.233410E-06  0.552E-04    0.01       9.8  T
 115   -647.8337127 -0.176599E-06  0.421E-04    0.01      12.8  T
 116   -647.8337127 -0.699306E-07  0.338E-04    0.01      16.0  T
 117   -647.8337128 -0.510727E-07  0.275E-04    0.01      19.6  T
 118   -647.8337128 -0.246342E-07  0.222E-04    0.01      24.3  T
 119   -647.8337128 -0.301786E-07  0.191E-04    0.01      28.2  T
 120   -647.8337129 -0.111530E-07  0.167E-04    0.01      32.2  T

   *** convergence criteria satisfied after 120 iterations ***

         #    Occupation            Energy/Eh            Energy/eV
      -------------------------------------------------------------
         1        2.0000           -0.8362569             -22.7557
       ...           ...                  ...                  ...
       559        2.0000           -0.3946631             -10.7393
       560        2.0000           -0.3910492             -10.6410
       561        1.9926           -0.3857492             -10.4968
       562        1.9810           -0.3848537             -10.4724
       563        1.9711           -0.3844503             -10.4614
       564        1.9371           -0.3836944             -10.4409
       565        0.9039           -0.3802548             -10.3473 (HOMO)
       566        0.8061           -0.3800648             -10.3421 (LUMO)
       567        0.4015           -0.3791254             -10.3165
       568        0.0066           -0.3750180             -10.2048
       569        0.0000           -0.3700144             -10.0686
       570        0.0000           -0.3668378              -9.9822
       ...           ...                  ...                  ...
      1172                          2.2021462              59.9234
      -------------------------------------------------------------
                  HL-Gap            0.0001900 Eh            0.0052 eV
             Fermi-level           -0.3804379 Eh          -10.3522 eV

 SCC (total)                   0 d,  0 h,  1 min, 47.599 sec
 SCC setup                      ...        0 min,  0.046 sec (  0.043%)
 Dispersion                     ...        0 min,  0.030 sec (  0.028%)
 classical contributions        ...        0 min,  0.006 sec (  0.006%)
 integral evaluation            ...        0 min,  0.741 sec (  0.689%)
 iterations                     ...        1 min, 45.186 sec ( 97.758%)
 molecular gradient             ...        0 min,  1.409 sec (  1.309%)
 printout                       ...        0 min,  0.180 sec (  0.167%)

         :::::::::::::::::::::::::::::::::::::::::::::::::::::
         ::                     SUMMARY                     ::
         :::::::::::::::::::::::::::::::::::::::::::::::::::::
         :: total energy            -637.411380951725 Eh    ::
         :: gradient norm              1.775807090053 Eh/a0 ::
         :: HOMO-LUMO gap              0.005171098589 eV    ::
         ::.................................................::
         :: SCC energy              -647.833712855898 Eh    ::
         :: -> electrostatic           1.203072505338 Eh    ::
         :: repulsion energy          10.700563557902 Eh    ::
         :: dispersion energy         -0.278231653729 Eh    ::
         :: halogen bond corr.         0.000000000000 Eh    ::
         :: add. restraining           0.000000000000 Eh    ::
         :: total charge              -0.000000000000 e     ::
         :::::::::::::::::::::::::::::::::::::::::::::::::::::

      ----------------------------------------------------------- 
     |                   =====================                   |
     |                        A N C O P T                        |
     |                   =====================                   |
     |               Approximate Normal Coordinate               |
     |                Rational Function Optimizer                |
      ----------------------------------------------------------- 

          ...................................................
          :                      SETUP                      :
          :.................................................:
          :   optimization level            normal          :
          :   max. optcycles                  1032          :
          :   ANC micro-cycles                  20          :
          :   degrees of freedom              1026          :
          :.................................................:
          :   RF solver                   davidson          :
          :   write xtbopt.log                true          :
          :   linear?                        false          :
          :   energy convergence         0.5000000E-05 Eh   :
          :   grad. convergence          0.1000000E-02 Eh/α :
          :   maximium RF displ.         1.0000000          :
          :   Hlow (freq-cutoff)         0.1000000E-01      :
          :   Hmax (freq-cutoff)         5.0000000          :
          :   S6 in model hess.         20.0000000          :
          ...................................................

generating ANC from model Hessian ...
Using Lindh-Hessian (1995)
 Shifting diagonal of input Hessian by    1.0094915511067769E-002
 Lowest  eigenvalues of input Hessian
    0.010000    0.010016    0.010078    0.010091    0.010092    0.010093
    0.010094    0.010094    0.010095    0.000000    0.000000    0.000000
    0.000000    0.000000    0.000000    0.010096    0.010096    0.010098
 Highest eigenvalues
    3.021443    3.021443    3.241897    3.284332    3.284857    3.284859


........................................................................
.............................. CYCLE    1 ..............................
........................................................................
   1   -647.8337129 -0.647834E+03  0.147E-04    0.01       0.0  T
   2   -647.8337007  0.121997E-04  0.237E-03    0.01       2.3  T
   3   -647.8337109 -0.102076E-04  0.926E-04    0.01       5.8  T
   4   -647.8337116 -0.746205E-06  0.787E-04    0.01       6.9  T
   5   -647.8337114  0.259572E-06  0.906E-04    0.01       5.9  T
   6   -647.8337109  0.433860E-06  0.929E-04    0.01       5.8  T
   7   -647.8337129 -0.192178E-05  0.178E-04    0.01      30.3  T
   8   -647.8337129 -0.290323E-07  0.124E-04    0.01      43.4  T
   9   -647.8337129 -0.168477E-07  0.750E-05    0.01      71.9  T
     SCC iter.                  ...        0 min,  7.936 sec
     gradient                   ...        0 min,  1.411 sec
 * total energy  :  -637.4113810 Eh     change       -0.4169499E-07 Eh
   gradient norm :     1.7758091 Eh/α   predicted     0.0000000E+00 (-100.00%)
   displ. norm   :     0.5482609 α      lambda       -0.9109196E+00
   maximum displ.:     0.2062709 α      in ANC's #1021, #1020, #1019, ...

........................................................................
.............................. CYCLE    2 ..............................
........................................................................
   1   -647.6961201 -0.647696E+03  0.280E-01    0.07       0.0  T
   2   -646.9173574  0.778763E+00  0.911E-01    0.04       1.0  T
   3   -647.1126111 -0.195254E+00  0.564E-01    0.01       1.0  T
   4   -647.5814738 -0.468863E+00  0.342E-01    0.05       1.0  T
   5   -647.3842713  0.197203E+00  0.454E-01    0.18       1.0  T
   6   -647.5068671 -0.122596E+00  0.351E-01    0.05       1.0  T
   7   -647.7210758 -0.214209E+00  0.163E-01    0.00       1.0  T
   8   -647.7192650  0.181077E-02  0.165E-01    0.07       1.0  T
   9   -647.6581259  0.611391E-01  0.220E-01    0.03       1.0  T
  10   -647.7342079 -0.760820E-01  0.999E-02    0.01       1.0  T
  11   -647.6663138  0.678941E-01  0.202E-01    0.04       1.0  T
  12   -647.7444720 -0.781582E-01  0.515E-02    0.01       1.0  T
  13   -647.7474130 -0.294107E-02  0.300E-02    0.03       1.0  T
  14   -647.7466943  0.718767E-03  0.328E-02    0.01       1.0  T
  15   -647.7485639 -0.186958E-02  0.149E-02    0.02       1.0  T
  16   -647.7476846  0.879231E-03  0.249E-02    0.02       1.0  T
  17   -647.7488074 -0.112278E-02  0.566E-03    0.02       1.0  T
  18   -647.7488256 -0.181852E-04  0.444E-03    0.02       1.2  T
  19   -647.7488471 -0.214956E-04  0.276E-03    0.02       2.0  T
  20   -647.7488511 -0.402722E-05  0.221E-03    0.02       2.4  T
  21   -647.7488588 -0.770373E-05  0.763E-04    0.02       7.1  T
  22   -647.7488568  0.205252E-05  0.132E-03    0.02       4.1  T
  23   -647.7488597 -0.291593E-05  0.404E-04    0.02      13.4  T
  24   -647.7488600 -0.276944E-06  0.140E-04    0.02      38.4  T
  25   -647.7488600 -0.273812E-07  0.597E-05    0.02      90.3  T
     SCC iter.                  ...        0 min, 21.986 sec
     gradient                   ...        0 min,  1.412 sec
 * total energy  :  -638.0218511 Eh     change       -0.6104701E+00 Eh
   gradient norm :     0.7177654 Eh/α   predicted    -0.5923680E+00 (  -2.97%)
   displ. norm   :     0.5854451 α      lambda       -0.3566990E+00
   maximum displ.:     0.1254474 α      in ANC's #672, #1020, #1021, ...

........................................................................
.............................. CYCLE    3 ..............................
........................................................................
   1   -647.8260939 -0.647826E+03  0.257E-01    0.15       0.0  T
   2   -646.8654207  0.960673E+00  0.891E-01    0.22       1.0  T
   3   -647.3127394 -0.447319E+00  0.676E-01    0.30       1.0  T
   4   -647.7767833 -0.464044E+00  0.259E-01    0.02       1.0  T
   5   -647.3298470  0.446936E+00  0.541E-01    0.02       1.0  T
   6   -647.8244390 -0.494592E+00  0.216E-01    0.05       1.0  T
   7   -647.8467002 -0.222612E-01  0.164E-01    0.04       1.0  T
   8   -647.8638859 -0.171856E-01  0.118E-01    0.06       1.0  T
   9   -647.8720259 -0.814004E-02  0.787E-02    0.09       1.0  T
  10   -647.8343918  0.376341E-01  0.149E-01    0.01       1.0  T
  11   -647.8762034 -0.418115E-01  0.413E-02    0.06       1.0  T
  12   -647.8777698 -0.156642E-02  0.299E-02    0.05       1.0  T
  13   -647.8787403 -0.970494E-03  0.211E-02    0.06       1.0  T
  14   -647.8792894 -0.549133E-03  0.144E-02    0.06       1.0  T
  15   -647.8795548 -0.265336E-03  0.429E-03    0.06       1.3  T
  16   -647.8795360  0.187804E-04  0.554E-03    0.06       1.0  T
  17   -647.8795755 -0.394781E-04  0.244E-03    0.06       2.2  T
  18   -647.8795846 -0.908781E-05  0.803E-04    0.06       6.7  T
  19   -647.8795851 -0.566601E-06  0.380E-04    0.06      14.2  T
  20   -647.8795853 -0.139830E-06  0.237E-04    0.06      22.8  T
  21   -647.8795854 -0.981385E-07  0.880E-05    0.06      61.3  T
  22   -647.8795854 -0.469493E-08  0.863E-05    0.06      62.5  T
     SCC iter.                  ...        0 min, 19.351 sec
     gradient                   ...        0 min,  1.411 sec
 * total energy  :  -638.2791270 Eh     change       -0.2572759E+00 Eh
   gradient norm :     0.3112388 Eh/α   predicted    -0.2394784E+00 (  -6.92%)
   displ. norm   :     0.6113009 α      lambda       -0.1457038E+00
   maximum displ.:     0.1212529 α      in ANC's #499, #476, #584, ...

........................................................................
.............................. CYCLE    4 ..............................
........................................................................
   1   -647.9397979 -0.647940E+03  0.195E-01    0.20       0.0  T
   2   -646.9905830  0.949215E+00  0.856E-01    0.21       1.0  T
   3   -647.4953953 -0.504812E+00  0.670E-01    0.42       1.0  T
   4   -647.9510128 -0.455618E+00  0.151E-01    0.04       1.0  T
   5   -647.8351968  0.115816E+00  0.286E-01    0.01       1.0  T
   6   -647.9657699 -0.130573E+00  0.923E-02    0.05       1.0  T
   7   -647.9773056 -0.115357E-01  0.583E-02    0.08       1.0  T
   8   -647.9587547  0.185509E-01  0.101E-01    0.04       1.0  T
   9   -647.9709268 -0.121721E-01  0.674E-02    0.05       1.0  T
  10   -647.9780659 -0.713908E-02  0.448E-02    0.09       1.0  T
  11   -647.9795494 -0.148345E-02  0.190E-02    0.08       1.0  T
  12   -647.9800946 -0.545213E-03  0.862E-03    0.09       1.0  T
  13   -647.9802082 -0.113560E-03  0.518E-03    0.08       1.0  T
  14   -647.9802272 -0.190118E-04  0.274E-03    0.08       2.0  T
  15   -647.9802258  0.133126E-05  0.215E-03    0.08       2.5  T
  16   -647.9802327 -0.683278E-05  0.939E-04    0.08       5.7  T
  17   -647.9802340 -0.133927E-05  0.169E-04    0.08      31.9  T
  18   -647.9802340 -0.755676E-09  0.150E-04    0.08      35.8  T
  19   -647.9802340 -0.320235E-07  0.588E-05    0.08      91.7  T
     SCC iter.                  ...        0 min, 16.724 sec
     gradient                   ...        0 min,  1.417 sec
 * total energy  :  -638.3797721 Eh     change       -0.1006451E+00 Eh
   gradient norm :     0.1493135 Eh/α   predicted    -0.1000759E+00 (  -0.57%)
   displ. norm   :     0.6627318 α      lambda       -0.6327549E-01
   maximum displ.:     0.1558019 α      in ANC's #121, #118, #499, ...

........................................................................
.............................. CYCLE    5 ..............................
........................................................................
   1   -648.0199703 -0.648020E+03  0.122E-01    0.17       0.0  T
   2   -647.1532503  0.866720E+00  0.773E-01    0.14       1.0  T
   3   -647.8067114 -0.653461E+00  0.471E-01    0.29       1.0  T
   4   -648.0259790 -0.219268E+00  0.883E-02    0.08       1.0  T
   5   -648.0160824  0.989668E-02  0.109E-01    0.06       1.0  T
   6   -648.0297950 -0.137127E-01  0.701E-02    0.07       1.0  T
   7   -648.0357276 -0.593260E-02  0.255E-02    0.08       1.0  T
   8   -648.0262974  0.943027E-02  0.660E-02    0.06       1.0  T
   9   -648.0351815 -0.888410E-02  0.274E-02    0.08       1.0  T
  10   -648.0357501 -0.568667E-03  0.215E-02    0.09       1.0  T
  11   -648.0362905 -0.540397E-03  0.787E-03    0.09       1.0  T
  12   -648.0363302 -0.397159E-04  0.430E-03    0.09       1.3  T
  13   -648.0363507 -0.204636E-04  0.230E-03    0.09       2.3  T
  14   -648.0363576 -0.689980E-05  0.453E-04    0.09      11.9  T
  15   -648.0363578 -0.201905E-06  0.341E-04    0.09      15.8  T
  16   -648.0363578 -0.107111E-07  0.265E-04    0.09      20.4  T
  17   -648.0363579 -0.901733E-07  0.125E-04    0.09      43.1  T
  18   -648.0363579 -0.137110E-07  0.618E-05    0.09      87.3  T
     SCC iter.                  ...        0 min, 15.867 sec
     gradient                   ...        0 min,  1.419 sec
 * total energy  :  -638.4256639 Eh     change       -0.4589179E-01 Eh
   gradient norm :     0.0880896 Eh/α   predicted    -0.4553347E-01 (  -0.78%)
   displ. norm   :     0.7380587 α      lambda       -0.3553336E-01
   maximum displ.:     0.2552798 α      in ANC's #118, #121, #92, ...

........................................................................
.............................. CYCLE    6 ..............................
........................................................................
   1   -648.1266080 -0.648127E+03  0.812E-02    0.15       0.0  T
   2   -647.4462586  0.680349E+00  0.671E-01    0.06       1.0  T
   3   -648.0377670 -0.591508E+00  0.303E-01    0.25       1.0  T
   4   -648.1296434 -0.918764E-01  0.496E-02    0.13       1.0  T
   5   -648.1262941  0.334929E-02  0.650E-02    0.10       1.0  T
   6   -648.1284514 -0.215733E-02  0.602E-02    0.09       1.0  T
   7   -648.1334114 -0.495995E-02  0.129E-02    0.10       1.0  T
   8   -648.1327218  0.689621E-03  0.199E-02    0.10       1.0  T
   9   -648.1332115 -0.489745E-03  0.134E-02    0.09       1.0  T
  10   -648.1335109 -0.299397E-03  0.922E-03    0.10       1.0  T
  11   -648.1335938 -0.828621E-04  0.557E-03    0.10       1.0  T
  12   -648.1336126 -0.188775E-04  0.228E-03    0.10       2.4  T
  13   -648.1336203 -0.768010E-05  0.889E-04    0.10       6.1  T
  14   -648.1336210 -0.621729E-06  0.218E-04    0.10      24.8  T
  15   -648.1336210 -0.496476E-07  0.546E-05    0.10      98.8  T
  16   -648.1336210 -0.148623E-08  0.432E-05    0.10     124.9  T
     SCC iter.                  ...        0 min, 14.104 sec
     gradient                   ...        0 min,  1.420 sec
 * total energy  :  -638.4536247 Eh     change       -0.2796076E-01 Eh
   gradient norm :     0.0567098 Eh/α   predicted    -0.2744474E-01 (  -1.85%)
   displ. norm   :     0.7920616 α      lambda       -0.2514899E-01
   maximum displ.:     0.3367424 α      in ANC's #118, #121, #92, ...

........................................................................
.............................. CYCLE    7 ..............................
........................................................................
   1   -648.2219123 -0.648222E+03  0.363E-02    0.13       0.0  T
   2   -647.9487197  0.273193E+00  0.414E-01    0.02       1.0  T
   3   -648.2161243 -0.267405E+00  0.763E-02    0.14       1.0  T
   4   -648.2223753 -0.625098E-02  0.265E-02    0.11       1.0  T
   5   -648.2128115  0.956376E-02  0.742E-02    0.08       1.0  T
   6   -648.2228174 -0.100059E-01  0.226E-02    0.11       1.0  T
   7   -648.2230905 -0.273092E-03  0.129E-02    0.11       1.0  T
   8   -648.2233048 -0.214236E-03  0.423E-03    0.11       1.3  T
   9   -648.2232806  0.241206E-04  0.493E-03    0.11       1.1  T
  10   -648.2232923 -0.116390E-04  0.383E-03    0.11       1.4  T
  11   -648.2233152 -0.229214E-04  0.223E-03    0.11       2.4  T
  12   -648.2233241 -0.888157E-05  0.551E-04    0.11       9.8  T
  13   -648.2233245 -0.403169E-06  0.221E-04    0.11      24.4  T
  14   -648.2233245 -0.547195E-07  0.125E-04    0.11      43.1  T
  15   -648.2233246 -0.234461E-07  0.416E-05    0.11     129.7  T
     SCC iter.                  ...        0 min, 13.189 sec
     gradient                   ...        0 min,  1.423 sec
 * total energy  :  -638.4743772 Eh     change       -0.2075254E-01 Eh
   gradient norm :     0.0360134 Eh/α   predicted    -0.2046344E-01 (  -1.39%)
   displ. norm   :     0.8416371 α      lambda       -0.1949220E-01
   maximum displ.:     0.3892522 α      in ANC's #118, #92, #121, ...

........................................................................
.............................. CYCLE    8 ..............................
........................................................................
   1   -648.2928432 -0.648293E+03  0.250E-02    0.13       0.0  T
   2   -648.1500531  0.142790E+00  0.291E-01    0.01       1.0  T
   3   -648.2902389 -0.140186E+00  0.523E-02    0.11       1.0  T
   4   -648.2927795 -0.254066E-02  0.224E-02    0.13       1.0  T
   5   -648.2915340  0.124557E-02  0.329E-02    0.10       1.0  T
   6   -648.2934018 -0.186789E-02  0.104E-02    0.12       1.0  T
   7   -648.2935092 -0.107366E-03  0.700E-03    0.11       1.0  T
   8   -648.2935633 -0.540450E-04  0.389E-03    0.11       1.4  T
   9   -648.2935195  0.437210E-04  0.500E-03    0.11       1.1  T
  10   -648.2935611 -0.415131E-04  0.299E-03    0.11       1.8  T
  11   -648.2935736 -0.125346E-04  0.147E-03    0.11       3.7  T
  12   -648.2935775 -0.390876E-05  0.283E-04    0.11      19.1  T
  13   -648.2935776 -0.105850E-06  0.170E-04    0.11      31.7  T
  14   -648.2935776 -0.412861E-07  0.792E-05    0.11      68.1  T
     SCC iter.                  ...        0 min, 12.308 sec
     gradient                   ...        0 min,  1.423 sec
 * total energy  :  -638.4912709 Eh     change       -0.1689368E-01 Eh
   gradient norm :     0.0312180 Eh/α   predicted    -0.1664979E-01 (  -1.44%)
   displ. norm   :     0.8891429 α      lambda       -0.1685936E-01
   maximum displ.:     0.4070264 α      in ANC's #118, #121, #92, ...

........................................................................
.............................. CYCLE    9 ..............................
........................................................................
   1   -648.3477063 -0.648348E+03  0.289E-02    0.13       0.0  T
   2   -648.0723927  0.275314E+00  0.384E-01    0.05       1.0  T
   3   -648.3215991 -0.249206E+00  0.131E-01    0.06       1.0  T
   4   -648.3446984 -0.230993E-01  0.614E-02    0.17       1.0  T
   5   -648.3478385 -0.314011E-02  0.265E-02    0.13       1.0  T
   6   -648.3470208  0.817690E-03  0.306E-02    0.11       1.0  T
   7   -648.3480093 -0.988465E-03  0.209E-02    0.11       1.0  T
   8   -648.3487615 -0.752209E-03  0.854E-03    0.12       1.0  T
   9   -648.3488489 -0.873967E-04  0.423E-03    0.12       1.3  T
  10   -648.3488124  0.365170E-04  0.567E-03    0.12       1.0  T
  11   -648.3488632 -0.508186E-04  0.275E-03    0.12       2.0  T
  12   -648.3488717 -0.847935E-05  0.162E-03    0.12       3.3  T
  13   -648.3488756 -0.389355E-05  0.710E-04    0.12       7.6  T
  14   -648.3488766 -0.100979E-05  0.945E-05    0.12      57.0  T
  15   -648.3488766 -0.201760E-08  0.768E-05    0.12      70.2  T
  16   -648.3488766 -0.778198E-08  0.399E-05    0.12     135.0  T
     SCC iter.                  ...        0 min, 14.038 sec
     gradient                   ...        0 min,  1.424 sec
 * total energy  :  -638.5058122 Eh     change       -0.1454132E-01 Eh
   gradient norm :     0.0311610 Eh/α   predicted    -0.1509399E-01 (   3.80%)
   displ. norm   :     0.9189384 α      lambda       -0.1668581E-01
   maximum displ.:     0.4254316 α      in ANC's #118, #92, #81, ...

........................................................................
.............................. CYCLE   10 ..............................
........................................................................
   1   -648.3883997 -0.648388E+03  0.394E-02    0.14       0.0  T
   2   -647.9828511  0.405549E+00  0.470E-01    0.08       1.0  T
   3   -648.3578437 -0.374993E+00  0.151E-01    0.06       1.0  T
   4   -648.3846998 -0.268561E-01  0.724E-02    0.20       1.0  T
   5   -648.3889734 -0.427361E-02  0.333E-02    0.14       1.0  T
   6   -648.3879363  0.103704E-02  0.359E-02    0.11       1.0  T
   7   -648.3888933 -0.956943E-03  0.288E-02    0.11       1.0  T
   8   -648.3902310 -0.133773E-02  0.127E-02    0.13       1.0  T
   9   -648.3904478 -0.216815E-03  0.571E-03    0.13       1.0  T
  10   -648.3903659  0.819616E-04  0.807E-03    0.12       1.0  T
  11   -648.3904629 -0.970692E-04  0.441E-03    0.12       1.2  T
  12   -648.3904876 -0.246573E-04  0.227E-03    0.12       2.4  T
  13   -648.3904963 -0.867147E-05  0.725E-04    0.12       7.4  T
  14   -648.3904972 -0.965859E-06  0.225E-04    0.12      24.0  T
  15   -648.3904973 -0.240337E-07  0.191E-04    0.12      28.3  T
  16   -648.3904973 -0.584731E-07  0.690E-05    0.12      78.1  T
     SCC iter.                  ...        0 min, 14.057 sec
     gradient                   ...        0 min,  1.429 sec
 * total energy  :  -638.5193136 Eh     change       -0.1350142E-01 Eh
   gradient norm :     0.0316379 Eh/α   predicted    -0.1538806E-01 (  13.97%)
   displ. norm   :     0.8832371 α      lambda       -0.1481180E-01
   maximum displ.:     0.3583114 α      in ANC's #118, #92, #81, ...

........................................................................
.............................. CYCLE   11 ..............................
........................................................................
   1   -648.4087915 -0.648409E+03  0.434E-02    0.17       0.0  T
   2   -648.0695731  0.339218E+00  0.426E-01    0.03       1.0  T
   3   -648.4040607 -0.334488E+00  0.930E-02    0.15       1.0  T
   4   -648.4096349 -0.557417E-02  0.351E-02    0.16       1.0  T
   5   -648.4098504 -0.215591E-03  0.333E-02    0.15       1.0  T
   6   -648.4104498 -0.599334E-03  0.240E-02    0.15       1.0  T
   7   -648.4107235 -0.273737E-03  0.196E-02    0.15       1.0  T
   8   -648.4109201 -0.196533E-03  0.160E-02    0.14       1.0  T
   9   -648.4113007 -0.380665E-03  0.761E-03    0.14       1.0  T
  10   -648.4111162  0.184497E-03  0.118E-02    0.12       1.0  T
  11   -648.4113461 -0.229870E-03  0.420E-03    0.13       1.3  T
  12   -648.4113400  0.612637E-05  0.434E-03    0.13       1.2  T
  13   -648.4113753 -0.353431E-04  0.626E-04    0.13       8.6  T
  14   -648.4113756 -0.267322E-06  0.471E-04    0.13      11.5  T
  15   -648.4113759 -0.333629E-06  0.215E-04    0.13      25.1  T
  16   -648.4113760 -0.687564E-07  0.839E-05    0.13      64.2  T
  17   -648.4113760 -0.869431E-08  0.413E-05    0.13     130.6  T
     SCC iter.                  ...        0 min, 14.967 sec
     gradient                   ...        0 min,  1.437 sec
 * total energy  :  -638.5333802 Eh     change       -0.1406653E-01 Eh
   gradient norm :     0.0308539 Eh/α   predicted    -0.1318330E-01 (  -6.28%)
   displ. norm   :     0.9416533 α      lambda       -0.1665688E-01
   maximum displ.:     0.3021950 α      in ANC's #118, #19, #81, ...

........................................................................
.............................. CYCLE   12 ..............................
........................................................................
   1   -648.4106303 -0.648411E+03  0.559E-02    0.22       0.0  T
   2   -648.0539801  0.356650E+00  0.458E-01    0.07       1.0  T
   3   -648.4014525 -0.347472E+00  0.126E-01    0.17       1.0  T
   4   -648.4119814 -0.105289E-01  0.439E-02    0.24       1.0  T
   5   -648.4123691 -0.387622E-03  0.431E-02    0.23       1.0  T
   6   -648.4135954 -0.122636E-02  0.237E-02    0.19       1.0  T
   7   -648.4141801 -0.584660E-03  0.142E-02    0.17       1.0  T
   8   -648.4143019 -0.121774E-03  0.921E-03    0.14       1.0  T
   9   -648.4136606  0.641268E-03  0.200E-02    0.13       1.0  T
  10   -648.4143230 -0.662370E-03  0.665E-03    0.14       1.0  T
  11   -648.4143856 -0.626391E-04  0.193E-03    0.15       2.8  T
  12   -648.4143912 -0.564838E-05  0.458E-04    0.15      11.8  T
  13   -648.4143916 -0.346556E-06  0.154E-04    0.15      34.9  T
  14   -648.4143916 -0.224876E-07  0.546E-05    0.15      98.7  T
     SCC iter.                  ...        0 min, 12.314 sec
     gradient                   ...        0 min,  1.432 sec
 * total energy  :  -638.5503350 Eh     change       -0.1695485E-01 Eh
   gradient norm :     0.0463954 Eh/α   predicted    -0.1571336E-01 (  -7.32%)
   displ. norm   :     0.9169314 α      lambda       -0.1908647E-01
   maximum displ.:     0.2718856 α      in ANC's #19, #118, #81, ...

........................................................................
.............................. CYCLE   13 ..............................
........................................................................
   1   -648.4090923 -0.648409E+03  0.509E-02    0.27       0.0  T
   2   -648.2907631  0.118329E+00  0.267E-01    0.01       1.0  T
   3   -648.4057110 -0.114948E+00  0.900E-02    0.36       1.0  T
   4   -648.4108582 -0.514722E-02  0.321E-02    0.29       1.0  T
   5   -648.4111555 -0.297333E-03  0.297E-02    0.25       1.0  T
   6   -648.4119250 -0.769420E-03  0.954E-03    0.20       1.0  T
   7   -648.4117282  0.196766E-03  0.141E-02    0.16       1.0  T
   8   -648.4114598  0.268431E-03  0.176E-02    0.15       1.0  T
   9   -648.4119751 -0.515370E-03  0.407E-03    0.17       1.3  T
  10   -648.4119992 -0.240972E-04  0.706E-04    0.18       7.6  T
  11   -648.4119997 -0.452698E-06  0.396E-04    0.18      13.6  T
  12   -648.4119998 -0.991498E-07  0.121E-04    0.18      44.5  T
  13   -648.4119998 -0.100066E-07  0.783E-05    0.18      68.9  T
     SCC iter.                  ...        0 min, 11.469 sec
     gradient                   ...        0 min,  1.434 sec
 * total energy  :  -638.5707271 Eh     change       -0.2039212E-01 Eh
   gradient norm :     0.0581027 Eh/α   predicted    -0.1756684E-01 ( -13.85%)
   displ. norm   :     0.8744996 α      lambda       -0.2476038E-01
   maximum displ.:     0.2614396 α      in ANC's #19, #81, #85, ...

........................................................................
.............................. CYCLE   14 ..............................
........................................................................
   1   -648.3964310 -0.648396E+03  0.462E-02    0.36       0.0  T
   2   -648.3919576  0.447332E-02  0.941E-02    0.15       1.0  T
   3   -648.3982289 -0.627122E-02  0.222E-02    0.29       1.0  T
   4   -648.3982100  0.188814E-04  0.193E-02    0.22       1.0  T
   5   -648.3983268 -0.116789E-03  0.122E-02    0.23       1.0  T
   6   -648.3983125  0.142695E-04  0.999E-03    0.22       1.0  T
   7   -648.3984167 -0.104243E-03  0.192E-03    0.24       2.8  T
   8   -648.3984179 -0.114131E-05  0.923E-04    0.24       5.8  T
   9   -648.3984185 -0.664538E-06  0.517E-04    0.24      10.4  T
  10   -648.3984188 -0.252342E-06  0.129E-04    0.24      42.0  T
  11   -648.3984188 -0.370494E-08  0.664E-05    0.24      81.2  T
     SCC iter.                  ...        0 min,  9.711 sec
     gradient                   ...        0 min,  1.433 sec
 * total energy  :  -638.5960563 Eh     change       -0.2532915E-01 Eh
   gradient norm :     0.0808312 Eh/α   predicted    -0.2184793E-01 ( -13.74%)
   displ. norm   :     0.8494615 α      lambda       -0.3313338E-01
   maximum displ.:     0.2496649 α      in ANC's #85, #19, #81, ...

........................................................................
.............................. CYCLE   15 ..............................
........................................................................
   1   -648.3857013 -0.648386E+03  0.421E-02    0.47       0.0  T
   2   -648.3848400  0.861266E-03  0.685E-02    0.38       1.0  T
   3   -648.3869452 -0.210514E-02  0.207E-02    0.41       1.0  T
   4   -648.3868729  0.723026E-04  0.165E-02    0.43       1.0  T
   5   -648.3869843 -0.111474E-03  0.627E-03    0.41       1.0  T
   6   -648.3870024 -0.181005E-04  0.223E-03    0.43       2.4  T
   7   -648.3870061 -0.369703E-05  0.700E-04    0.42       7.7  T
   8   -648.3870064 -0.313841E-06  0.284E-04    0.42      19.0  T
   9   -648.3870065 -0.327155E-07  0.126E-04    0.42      42.8  T
  10   -648.3870065 -0.123329E-07  0.704E-05    0.42      76.6  T
     SCC iter.                  ...        0 min,  8.826 sec
     gradient                   ...        0 min,  1.435 sec
 * total energy  :  -638.6265772 Eh     change       -0.3052088E-01 Eh
   gradient norm :     0.0889408 Eh/α   predicted    -0.2852097E-01 (  -6.55%)
   displ. norm   :     0.8861867 α      lambda       -0.4453697E-01
   maximum displ.:     0.2406128 α      in ANC's #85, #19, #41, ...

........................................................................
.............................. CYCLE   16 ..............................
........................................................................
   1   -648.3704307 -0.648370E+03  0.604E-02    0.79       0.0  T
   2   -648.3701248  0.305903E-03  0.799E-02    0.79       1.0  T
   3   -648.3723929 -0.226809E-02  0.309E-02    0.79       1.0  T
   4   -648.3722522  0.140694E-03  0.187E-02    0.79       1.0  T
   5   -648.3723845 -0.132269E-03  0.900E-03    0.79       1.0  T
   6   -648.3724390 -0.545213E-04  0.208E-03    0.79       2.6  T
   7   -648.3724416 -0.261145E-05  0.713E-04    0.79       7.6  T
   8   -648.3724419 -0.332172E-06  0.290E-04    0.79      18.6  T
   9   -648.3724420 -0.471667E-07  0.179E-04    0.79      30.2  T
  10   -648.3724420 -0.196965E-07  0.664E-05    0.79      81.3  T
     SCC iter.                  ...        0 min,  8.832 sec
     gradient                   ...        0 min,  1.440 sec
 * total energy  :  -638.6670942 Eh     change       -0.4051700E-01 Eh
   gradient norm :     0.0748297 Eh/α   predicted    -0.3975652E-01 (  -1.88%)
   displ. norm   :     0.8164549 α      lambda       -0.4054688E-01
   maximum displ.:     0.2302095 α      in ANC's #3, #41, #81, ...

........................................................................
.............................. CYCLE   17 ..............................
........................................................................
   1   -648.3838956 -0.648384E+03  0.477E-02    0.81       0.0  T
   2   -648.3842824 -0.386752E-03  0.530E-02    0.81       1.0  T
   3   -648.3850154 -0.733069E-03  0.220E-02    0.82       1.0  T
   4   -648.3848783  0.137121E-03  0.139E-02    0.82       1.0  T
   5   -648.3850042 -0.125912E-03  0.567E-03    0.82       1.0  T
   6   -648.3850336 -0.294279E-04  0.140E-03    0.82       3.9  T
   7   -648.3850344 -0.796156E-06  0.454E-04    0.82      11.9  T
   8   -648.3850346 -0.124835E-06  0.239E-04    0.82      22.6  T
   9   -648.3850346 -0.480210E-07  0.110E-04    0.82      49.1  T
  10   -648.3850346 -0.734099E-08  0.347E-05    0.82     155.5  T
     SCC iter.                  ...        0 min,  8.851 sec
     gradient                   ...        0 min,  1.437 sec
 * total energy  :  -638.6963325 Eh     change       -0.2923839E-01 Eh
   gradient norm :     0.1115589 Eh/α   predicted    -0.3378770E-01 (  15.56%)
   displ. norm   :     0.7042222 α      lambda       -0.3860949E-01
   maximum displ.:     0.2680068 α      in ANC's #3, #41, #81, ...

........................................................................
.............................. CYCLE   18 ..............................
........................................................................
   1   -648.4045345 -0.648405E+03  0.300E-02    0.83       0.0  T
   2   -648.4047865 -0.251990E-03  0.299E-02    0.83       1.0  T
   3   -648.4049593 -0.172761E-03  0.136E-02    0.83       1.0  T
   4   -648.4049105  0.487582E-04  0.872E-03    0.83       1.0  T
   5   -648.4049552 -0.446556E-04  0.305E-03    0.83       1.8  T
   6   -648.4049640 -0.882774E-05  0.875E-04    0.83       6.2  T
   7   -648.4049646 -0.615535E-06  0.446E-04    0.83      12.1  T
   8   -648.4049648 -0.181333E-06  0.133E-04    0.83      40.6  T
   9   -648.4049648 -0.870318E-08  0.660E-05    0.83      81.7  T
     SCC iter.                  ...        0 min,  7.942 sec
     gradient                   ...        0 min,  1.437 sec
 * total energy  :  -638.7316173 Eh     change       -0.3528473E-01 Eh
   gradient norm :     0.0873606 Eh/α   predicted    -0.2887852E-01 ( -18.16%)
   displ. norm   :     0.9111835 α      lambda       -0.4838238E-01
   maximum displ.:     0.3394862 α      in ANC's #3, #41, #81, ...

........................................................................
.............................. CYCLE   19 ..............................
........................................................................
   1   -648.3895212 -0.648390E+03  0.408E-02    0.80       0.0  T
   2   -648.3896781 -0.156874E-03  0.457E-02    0.80       1.0  T
   3   -648.3901017 -0.423629E-03  0.236E-02    0.80       1.0  T
   4   -648.3898675  0.234157E-03  0.182E-02    0.80       1.0  T
   5   -648.3901039 -0.236409E-03  0.337E-03    0.80       1.6  T
   6   -648.3901126 -0.862788E-05  0.103E-03    0.80       5.3  T
   7   -648.3901131 -0.556804E-06  0.490E-04    0.80      11.0  T
   8   -648.3901134 -0.254136E-06  0.165E-04    0.80      32.7  T
   9   -648.3901134 -0.197779E-07  0.709E-05    0.80      76.0  T
     SCC iter.                  ...        0 min,  7.962 sec
     gradient                   ...        0 min,  1.440 sec
 * total energy  :  -638.7688022 Eh     change       -0.3718488E-01 Eh
   gradient norm :     0.0724758 Eh/α   predicted    -0.4427609E-01 (  19.07%)
   displ. norm   :     0.9096647 α      lambda       -0.3137830E-01
   maximum displ.:     0.4004021 α      in ANC's #3, #41, #81, ...

........................................................................
.............................. CYCLE   20 ..............................
........................................................................
   1   -648.4354958 -0.648435E+03  0.299E-02    0.82       0.0  T
   2   -648.4355628 -0.669649E-04  0.315E-02    0.82       1.0  T
   3   -648.4357698 -0.207001E-03  0.155E-02    0.82       1.0  T
   4   -648.4356115  0.158281E-03  0.133E-02    0.82       1.0  T
   5   -648.4357716 -0.160024E-03  0.235E-03    0.82       2.3  T
   6   -648.4357753 -0.379297E-05  0.467E-04    0.82      11.6  T
   7   -648.4357755 -0.155218E-06  0.270E-04    0.82      20.0  T
   8   -648.4357756 -0.852403E-07  0.771E-05    0.82      69.9  T
   9   -648.4357756 -0.472005E-08  0.349E-05    0.82     154.6  T
     SCC iter.                  ...        0 min,  7.967 sec
     gradient                   ...        0 min,  1.443 sec
 * total energy  :  -638.7887324 Eh     change       -0.1993021E-01 Eh
   gradient norm :     0.1010975 Eh/α   predicted    -0.2867180E-01 (  43.86%)
   displ. norm   :     0.6825307 α      lambda       -0.3166071E-01
   maximum displ.:     0.2435996 α      in ANC's #3, #41, #19, ...
 * RMSD in coord.:     0.6412775 α      energy gain  -0.1377351E+01 Eh

generating ANC from model Hessian ...
Using Lindh-Hessian (1995)
 Shifting diagonal of input Hessian by    1.0000584784194202E-002
 Lowest  eigenvalues of input Hessian
    0.010000    0.010001    0.000000    0.000000    0.000000    0.000000
    0.000000    0.000000    0.010001    0.010001    0.010001    0.010001
    0.010002    0.010003    0.010005    0.010006    0.010008    0.010009
 Highest eigenvalues
    2.609740    2.649899    2.742141    2.750303    2.957570    2.965772


........................................................................
.............................. CYCLE   21 ..............................
........................................................................
   1   -648.4897092 -0.648490E+03  0.250E-02    0.82       0.0  T
   2   -648.4898718 -0.162620E-03  0.227E-02    0.82       1.0  T
   3   -648.4899828 -0.111022E-03  0.112E-02    0.82       1.0  T
   4   -648.4899164  0.663995E-04  0.885E-03    0.82       1.0  T
   5   -648.4899849 -0.684846E-04  0.230E-03    0.82       2.3  T
   6   -648.4899873 -0.241395E-05  0.492E-04    0.82      11.0  T
   7   -648.4899875 -0.216835E-06  0.244E-04    0.82      22.1  T
   8   -648.4899876 -0.537852E-07  0.102E-04    0.82      52.8  T
   9   -648.4899876 -0.632087E-08  0.386E-05    0.82     139.6  T
     SCC iter.                  ...        0 min,  7.977 sec
     gradient                   ...        0 min,  1.437 sec
 * total energy  :  -638.8077465 Eh     change       -0.1901413E-01 Eh
   gradient norm :     0.1045905 Eh/α   predicted     0.0000000E+00 (-100.00%)
   displ. norm   :     0.6570538 α      lambda       -0.1939288E-01
   maximum displ.:     0.3315645 α      in ANC's #110, #111, #66, ...

........................................................................
.............................. CYCLE   22 ..............................
........................................................................
   1   -648.5185719 -0.648519E+03  0.850E-03    0.81       0.0  T
   2   -648.5185784 -0.643683E-05  0.664E-03    0.81       1.0  T
   3   -648.5185883 -0.996302E-05  0.337E-03    0.81       1.6  T
   4   -648.5185857  0.259327E-05  0.287E-03    0.81       1.9  T
   5   -648.5185921 -0.638447E-05  0.792E-04    0.81       6.8  T
   6   -648.5185925 -0.426320E-06  0.286E-04    0.81      18.8  T
   7   -648.5185926 -0.100692E-06  0.874E-05    0.81      61.7  T
   8   -648.5185926 -0.576131E-08  0.275E-05    0.81     196.2  T
     SCC iter.                  ...        0 min,  7.081 sec
     gradient                   ...        0 min,  1.444 sec
 * total energy  :  -638.8247135 Eh     change       -0.1696699E-01 Eh
   gradient norm :     0.0445257 Eh/α   predicted    -0.1388277E-01 ( -18.18%)
   displ. norm   :     0.8812914 α      lambda       -0.2004302E-01
   maximum displ.:     0.4404263 α      in ANC's #110, #111, #66, ...

........................................................................
.............................. CYCLE   23 ..............................
........................................................................
   1   -648.5518778 -0.648552E+03  0.106E-02    0.81       0.0  T
   2   -648.5518828 -0.499545E-05  0.847E-03    0.81       1.0  T
   3   -648.5518992 -0.164180E-04  0.403E-03    0.81       1.3  T
   4   -648.5518940  0.523182E-05  0.342E-03    0.81       1.6  T
   5   -648.5519031 -0.911640E-05  0.837E-04    0.81       6.4  T
   6   -648.5519038 -0.674043E-06  0.279E-04    0.81      19.3  T
   7   -648.5519039 -0.928402E-07  0.103E-04    0.81      52.3  T
   8   -648.5519039 -0.901389E-08  0.330E-05    0.81     163.4  T
     SCC iter.                  ...        0 min,  7.073 sec
     gradient                   ...        0 min,  1.442 sec
 * total energy  :  -638.8418164 Eh     change       -0.1710293E-01 Eh
   gradient norm :     0.0332587 Eh/α   predicted    -0.1780496E-01 (   4.10%)
   displ. norm   :     0.9279074 α      lambda       -0.1923596E-01
   maximum displ.:     0.4502020 α      in ANC's #110, #111, #66, ...

........................................................................
.............................. CYCLE   24 ..............................
........................................................................
   1   -648.5828623 -0.648583E+03  0.104E-02    0.80       0.0  T
   2   -648.5828692 -0.681955E-05  0.831E-03    0.80       1.0  T
   3   -648.5828855 -0.163299E-04  0.378E-03    0.80       1.4  T
   4   -648.5828810  0.447945E-05  0.313E-03    0.80       1.7  T
   5   -648.5828878 -0.676030E-05  0.874E-04    0.80       6.2  T
   6   -648.5828887 -0.927644E-06  0.250E-04    0.80      21.6  T
   7   -648.5828888 -0.584362E-07  0.114E-04    0.80      47.2  T
   8   -648.5828888 -0.123271E-07  0.388E-05    0.80     139.1  T
     SCC iter.                  ...        0 min,  7.077 sec
     gradient                   ...        0 min,  1.449 sec
 * total energy  :  -638.8551801 Eh     change       -0.1336366E-01 Eh
   gradient norm :     0.0538474 Eh/α   predicted    -0.1789919E-01 (  33.94%)
   displ. norm   :     0.8020371 α      lambda       -0.1565137E-01
   maximum displ.:     0.3825539 α      in ANC's #110, #66, #111, ...

........................................................................
.............................. CYCLE   25 ..............................
........................................................................
   1   -648.6235980 -0.648624E+03  0.832E-03    0.80       0.0  T
   2   -648.6235990 -0.102092E-05  0.581E-03    0.80       1.0  T
   3   -648.6235992 -0.197710E-06  0.363E-03    0.80       1.5  T
   4   -648.6236028 -0.354282E-05  0.230E-03    0.80       2.3  T
   5   -648.6236077 -0.490254E-05  0.507E-04    0.80      10.6  T
   6   -648.6236079 -0.209049E-06  0.187E-04    0.80      28.8  T
   7   -648.6236079 -0.317086E-07  0.871E-05    0.80      61.9  T
     SCC iter.                  ...        0 min,  6.204 sec
     gradient                   ...        0 min,  1.443 sec
 * total energy  :  -638.8683369 Eh     change       -0.1315678E-01 Eh
   gradient norm :     0.0447599 Eh/α   predicted    -0.1285968E-01 (  -2.26%)
   displ. norm   :     0.8733949 α      lambda       -0.1451023E-01
   maximum displ.:     0.3744665 α      in ANC's #110, #66, #111, ...

........................................................................
.............................. CYCLE   26 ..............................
........................................................................
   1   -648.6634288 -0.648663E+03  0.744E-03    0.80       0.0  T
   2   -648.6634319 -0.315321E-05  0.608E-03    0.80       1.0  T
   3   -648.6634469 -0.149766E-04  0.255E-03    0.80       2.1  T
   4   -648.6634437  0.318847E-05  0.264E-03    0.80       2.0  T
   5   -648.6634494 -0.571013E-05  0.739E-04    0.80       7.3  T
   6   -648.6634497 -0.321546E-06  0.260E-04    0.80      20.7  T
   7   -648.6634498 -0.587114E-07  0.895E-05    0.80      60.3  T
   8   -648.6634498 -0.549858E-08  0.433E-05    0.80     124.6  T
     SCC iter.                  ...        0 min,  7.090 sec
     gradient                   ...        0 min,  1.449 sec
 * total energy  :  -638.8785945 Eh     change       -0.1025768E-01 Eh
   gradient norm :     0.0285387 Eh/α   predicted    -0.1278946E-01 (  24.68%)
   displ. norm   :     0.8349553 α      lambda       -0.1415375E-01
   maximum displ.:     0.3484712 α      in ANC's #110, #66, #111, ...

........................................................................
.............................. CYCLE   27 ..............................
........................................................................
   1   -648.7065528 -0.648707E+03  0.800E-03    0.80       0.0  T
   2   -648.7065534 -0.608025E-06  0.597E-03    0.80       1.0  T
   3   -648.7065617 -0.832615E-05  0.316E-03    0.80       1.7  T
   4   -648.7065627 -0.945261E-06  0.266E-03    0.80       2.0  T
   5   -648.7065685 -0.583953E-05  0.717E-04    0.80       7.5  T
   6   -648.7065689 -0.353733E-06  0.226E-04    0.80      23.9  T
   7   -648.7065689 -0.475853E-07  0.794E-05    0.80      67.9  T
   8   -648.7065689 -0.451928E-08  0.326E-05    0.80     165.6  T
     SCC iter.                  ...        0 min,  7.065 sec
     gradient                   ...        0 min,  1.447 sec
 * total energy  :  -638.8885228 Eh     change       -0.9928237E-02 Eh
   gradient norm :     0.0260176 Eh/α   predicted    -0.1201052E-01 (  20.97%)
   displ. norm   :     0.8369323 α      lambda       -0.1159600E-01
   maximum displ.:     0.3256769 α      in ANC's #66, #110, #111, ...

........................................................................
.............................. CYCLE   28 ..............................
........................................................................
   1   -648.7372707 -0.648737E+03  0.672E-03    0.80       0.0  T
   2   -648.7372685  0.214321E-05  0.589E-03    0.81       1.0  T
   3   -648.7372814 -0.128142E-04  0.272E-03    0.80       2.0  T
   4   -648.7372791  0.225262E-05  0.226E-03    0.80       2.4  T
   5   -648.7372835 -0.443650E-05  0.446E-04    0.80      12.1  T
   6   -648.7372837 -0.128713E-06  0.212E-04    0.80      25.4  T
   7   -648.7372837 -0.555804E-07  0.714E-05    0.80      75.5  T
   8   -648.7372837 -0.388741E-08  0.222E-05    0.80     243.3  T
     SCC iter.                  ...        0 min,  7.075 sec
     gradient                   ...        0 min,  1.451 sec
 * total energy  :  -638.8970561 Eh     change       -0.8533283E-02 Eh
   gradient norm :     0.0199244 Eh/α   predicted    -0.9859241E-02 (  15.54%)
   displ. norm   :     0.8599128 α      lambda       -0.1017260E-01
   maximum displ.:     0.3736259 α      in ANC's #66, #110, #111, ...

........................................................................
.............................. CYCLE   29 ..............................
........................................................................
   1   -648.7665766 -0.648767E+03  0.618E-03    0.80       0.0  T
   2   -648.7665762  0.381502E-06  0.538E-03    0.80       1.0  T
   3   -648.7665872 -0.109396E-04  0.230E-03    0.80       2.3  T
   4   -648.7665841  0.301183E-05  0.218E-03    0.80       2.5  T
   5   -648.7665885 -0.439978E-05  0.426E-04    0.80      12.7  T
   6   -648.7665886 -0.101945E-06  0.180E-04    0.80      29.9  T
   7   -648.7665887 -0.355886E-07  0.719E-05    0.80      75.0  T
     SCC iter.                  ...        0 min,  6.196 sec
     gradient                   ...        0 min,  1.449 sec
 * total energy  :  -638.9039354 Eh     change       -0.6879302E-02 Eh
   gradient norm :     0.0224434 Eh/α   predicted    -0.8847363E-02 (  28.61%)
   displ. norm   :     0.8109430 α      lambda       -0.9458598E-02
   maximum displ.:     0.3460196 α      in ANC's #66, #110, #36, ...

........................................................................
.............................. CYCLE   30 ..............................
........................................................................
   1   -648.7982977 -0.648798E+03  0.583E-03    0.81       0.0  T
   2   -648.7982976  0.447995E-07  0.437E-03    0.81       1.2  T
   3   -648.7983022 -0.452057E-05  0.239E-03    0.81       2.3  T
   4   -648.7983026 -0.469123E-06  0.189E-03    0.81       2.9  T
   5   -648.7983059 -0.324027E-05  0.386E-04    0.81      14.0  T
   6   -648.7983060 -0.774758E-07  0.174E-04    0.81      31.0  T
   7   -648.7983060 -0.321658E-07  0.524E-05    0.81     102.9  T
     SCC iter.                  ...        0 min,  6.192 sec
     gradient                   ...        0 min,  1.451 sec
 * total energy  :  -638.9104881 Eh     change       -0.6552756E-02 Eh
   gradient norm :     0.0177416 Eh/α   predicted    -0.7839423E-02 (  19.64%)
   displ. norm   :     0.8153071 α      lambda       -0.8185381E-02
   maximum displ.:     0.3690388 α      in ANC's #66, #36, #27, ...

........................................................................
.............................. CYCLE   31 ..............................
........................................................................
   1   -648.8301530 -0.648830E+03  0.507E-03    0.81       0.0  T
   2   -648.8301541 -0.112196E-05  0.411E-03    0.81       1.3  T
   3   -648.8301603 -0.617816E-05  0.181E-03    0.81       3.0  T
   4   -648.8301591  0.114282E-05  0.180E-03    0.81       3.0  T
   5   -648.8301617 -0.263206E-05  0.480E-04    0.81      11.2  T
   6   -648.8301619 -0.141542E-06  0.147E-04    0.81      36.6  T
   7   -648.8301619 -0.210918E-07  0.494E-05    0.81     109.1  T
     SCC iter.                  ...        0 min,  6.185 sec
     gradient                   ...        0 min,  1.454 sec
 * total energy  :  -638.9155845 Eh     change       -0.5096405E-02 Eh
   gradient norm :     0.0215141 Eh/α   predicted    -0.6813216E-02 (  33.69%)
   displ. norm   :     0.7682950 α      lambda       -0.7193048E-02
   maximum displ.:     0.3428678 α      in ANC's #66, #36, #27, ...

........................................................................
.............................. CYCLE   32 ..............................
........................................................................
   1   -648.8543729 -0.648854E+03  0.463E-03    0.81       0.0  T
   2   -648.8543735 -0.551954E-06  0.386E-03    0.81       1.4  T
   3   -648.8543789 -0.538139E-05  0.169E-03    0.81       3.2  T
   4   -648.8543780  0.854199E-06  0.153E-03    0.81       3.5  T
   5   -648.8543798 -0.181938E-05  0.373E-04    0.81      14.4  T
   6   -648.8543799 -0.947744E-07  0.153E-04    0.81      35.2  T
   7   -648.8543799 -0.267761E-07  0.447E-05    0.81     120.5  T
     SCC iter.                  ...        0 min,  6.220 sec
     gradient                   ...        0 min,  1.457 sec
 * total energy  :  -638.9213348 Eh     change       -0.5750275E-02 Eh
   gradient norm :     0.0134383 Eh/α   predicted    -0.5719478E-02 (  -0.54%)
   displ. norm   :     0.8529880 α      lambda       -0.5715305E-02
   maximum displ.:     0.4039167 α      in ANC's #66, #36, #27, ...

........................................................................
.............................. CYCLE   33 ..............................
........................................................................
   1   -648.8744506 -0.648874E+03  0.409E-03    0.81       0.0  T
   2   -648.8744518 -0.125690E-05  0.294E-03    0.81       1.8  T
   3   -648.8744542 -0.231046E-05  0.149E-03    0.81       3.6  T
   4   -648.8744541  0.102123E-06  0.120E-03    0.81       4.5  T
   5   -648.8744551 -0.107480E-05  0.356E-04    0.81      15.2  T
   6   -648.8744552 -0.979965E-07  0.119E-04    0.81      45.3  T
   7   -648.8744552 -0.141412E-07  0.485E-05    0.81     111.1  T
     SCC iter.                  ...        0 min,  6.210 sec
     gradient                   ...        0 min,  1.461 sec
 * total energy  :  -638.9263419 Eh     change       -0.5007075E-02 Eh
   gradient norm :     0.0114287 Eh/α   predicted    -0.4936848E-02 (  -1.40%)
   displ. norm   :     0.8972459 α      lambda       -0.5533390E-02
   maximum displ.:     0.4023305 α      in ANC's #66, #36, #27, ...

........................................................................
.............................. CYCLE   34 ..............................
........................................................................
   1   -648.8936730 -0.648894E+03  0.342E-03    0.81       0.0  T
   2   -648.8936743 -0.123940E-05  0.218E-03    0.81       2.5  T
   3   -648.8936750 -0.740044E-06  0.131E-03    0.81       4.1  T
   4   -648.8936754 -0.373103E-06  0.888E-04    0.81       6.1  T
   5   -648.8936759 -0.540712E-06  0.315E-04    0.81      17.1  T
   6   -648.8936760 -0.852219E-07  0.116E-04    0.81      46.4  T
   7   -648.8936760 -0.913883E-08  0.476E-05    0.81     113.3  T
     SCC iter.                  ...        0 min,  6.215 sec
     gradient                   ...        0 min,  1.454 sec
 * total energy  :  -638.9311880 Eh     change       -0.4846109E-02 Eh
   gradient norm :     0.0120349 Eh/α   predicted    -0.4994024E-02 (   3.05%)
   displ. norm   :     0.8973705 α      lambda       -0.5122844E-02
   maximum displ.:     0.3875087 α      in ANC's #66, #36, #27, ...

........................................................................
.............................. CYCLE   35 ..............................
........................................................................
   1   -648.9093713 -0.648909E+03  0.324E-03    0.82       0.0  T
   2   -648.9093730 -0.165338E-05  0.208E-03    0.82       2.6  T
   3   -648.9093738 -0.800887E-06  0.114E-03    0.82       4.7  T
   4   -648.9093738 -0.824301E-07  0.886E-04    0.82       6.1  T
   5   -648.9093743 -0.471168E-06  0.353E-04    0.82      15.3  T
   6   -648.9093744 -0.121636E-06  0.126E-04    0.82      42.9  T
   7   -648.9093744 -0.872956E-08  0.486E-05    0.82     111.0  T
     SCC iter.                  ...        0 min,  6.210 sec
     gradient                   ...        0 min,  1.460 sec
 * total energy  :  -638.9355715 Eh     change       -0.4383514E-02 Eh
   gradient norm :     0.0100892 Eh/α   predicted    -0.4624056E-02 (   5.49%)
   displ. norm   :     0.8893285 α      lambda       -0.4874747E-02
   maximum displ.:     0.3697951 α      in ANC's #66, #27, #36, ...

........................................................................
.............................. CYCLE   36 ..............................
........................................................................
   1   -648.9209151 -0.648921E+03  0.329E-03    0.82       0.0  T
   2   -648.9209168 -0.165235E-05  0.201E-03    0.82       2.7  T
   3   -648.9209178 -0.985539E-06  0.110E-03    0.82       4.9  T
   4   -648.9209180 -0.266038E-06  0.751E-04    0.82       7.2  T
   5   -648.9209182 -0.215216E-06  0.370E-04    0.82      14.6  T
   6   -648.9209184 -0.145335E-06  0.127E-04    0.82      42.4  T
   7   -648.9209184 -0.906198E-08  0.480E-05    0.82     112.4  T
     SCC iter.                  ...        0 min,  6.220 sec
     gradient                   ...        0 min,  1.459 sec
 * total energy  :  -638.9395079 Eh     change       -0.3936415E-02 Eh
   gradient norm :     0.0123769 Eh/α   predicted    -0.4365118E-02 (  10.89%)
   displ. norm   :     0.8683554 α      lambda       -0.4188436E-02
   maximum displ.:     0.3655607 α      in ANC's #27, #36, #66, ...

........................................................................
.............................. CYCLE   37 ..............................
........................................................................
   1   -648.9281270 -0.648928E+03  0.331E-03    0.81       0.0  T
   2   -648.9281283 -0.134238E-05  0.227E-03    0.81       2.4  T
   3   -648.9281300 -0.163596E-05  0.106E-03    0.81       5.1  T
   4   -648.9281301 -0.880610E-07  0.698E-04    0.81       7.7  T
   5   -648.9281302 -0.177415E-06  0.299E-04    0.81      18.1  T
   6   -648.9281303 -0.100152E-06  0.117E-04    0.81      45.9  T
   7   -648.9281303 -0.678278E-08  0.448E-05    0.81     120.4  T
     SCC iter.                  ...        0 min,  6.211 sec
     gradient                   ...        0 min,  1.461 sec
 * total energy  :  -638.9431412 Eh     change       -0.3633297E-02 Eh
   gradient norm :     0.0083298 Eh/α   predicted    -0.3673354E-02 (   1.10%)
   displ. norm   :     0.8878622 α      lambda       -0.3781702E-02
   maximum displ.:     0.3934374 α      in ANC's #27, #36, #66, ...

........................................................................
.............................. CYCLE   38 ..............................
........................................................................
   1   -648.9367790 -0.648937E+03  0.292E-03    0.81       0.0  T
   2   -648.9367803 -0.136050E-05  0.163E-03    0.81       3.3  T
   3   -648.9367810 -0.654396E-06  0.954E-04    0.81       5.7  T
   4   -648.9367812 -0.228979E-06  0.517E-04    0.81      10.4  T
   5   -648.9367812 -0.359438E-07  0.260E-04    0.81      20.7  T
   6   -648.9367813 -0.734453E-07  0.106E-04    0.81      50.8  T
   7   -648.9367813 -0.767011E-08  0.399E-05    0.81     135.3  T
     SCC iter.                  ...        0 min,  6.217 sec
     gradient                   ...        0 min,  1.462 sec
 * total energy  :  -638.9464128 Eh     change       -0.3271566E-02 Eh
   gradient norm :     0.0104938 Eh/α   predicted    -0.3381407E-02 (   3.36%)
   displ. norm   :     0.8809318 α      lambda       -0.3419556E-02
   maximum displ.:     0.4131219 α      in ANC's #27, #36, #66, ...

........................................................................
.............................. CYCLE   39 ..............................
........................................................................
   1   -648.9489560 -0.648949E+03  0.277E-03    0.81       0.0  T
   2   -648.9489574 -0.143624E-05  0.176E-03    0.81       3.1  T
   3   -648.9489583 -0.869903E-06  0.847E-04    0.81       6.4  T
   4   -648.9489584 -0.102166E-06  0.610E-04    0.81       8.8  T
   5   -648.9489585 -0.103998E-06  0.282E-04    0.81      19.1  T
   6   -648.9489586 -0.840730E-07  0.101E-04    0.81      53.6  T
   7   -648.9489586 -0.598675E-08  0.389E-05    0.81     138.7  T
     SCC iter.                  ...        0 min,  6.218 sec
     gradient                   ...        0 min,  1.464 sec
 * total energy  :  -638.9495279 Eh     change       -0.3115114E-02 Eh
   gradient norm :     0.0068824 Eh/α   predicted    -0.3036632E-02 (  -2.52%)
   displ. norm   :     0.8847414 α      lambda       -0.3171946E-02
   maximum displ.:     0.4422978 α      in ANC's #27, #36, #66, ...

........................................................................
.............................. CYCLE   40 ..............................
........................................................................
   1   -648.9622799 -0.648962E+03  0.258E-03    0.82       0.0  T
   2   -648.9622812 -0.126651E-05  0.142E-03    0.82       3.8  T
   3   -648.9622817 -0.541906E-06  0.814E-04    0.82       6.6  T
   4   -648.9622819 -0.191497E-06  0.491E-04    0.82      11.0  T
   5   -648.9622820 -0.761949E-07  0.225E-04    0.82      24.0  T
   6   -648.9622820 -0.465783E-07  0.713E-05    0.82      75.7  T
   7   -648.9622821 -0.241084E-08  0.289E-05    0.82     186.5  T
     SCC iter.                  ...        0 min,  6.211 sec
     gradient                   ...        0 min,  1.465 sec
 * total energy  :  -638.9523922 Eh     change       -0.2864330E-02 Eh
   gradient norm :     0.0085544 Eh/α   predicted    -0.2827415E-02 (  -1.29%)
   displ. norm   :     0.8852358 α      lambda       -0.3136842E-02
   maximum displ.:     0.4578115 α      in ANC's #27, #36, #26, ...

........................................................................
.............................. CYCLE   41 ..............................
........................................................................
   1   -648.9728583 -0.648973E+03  0.253E-03    0.81       0.0  T
   2   -648.9728593 -0.103371E-05  0.148E-03    0.82       3.6  T
   3   -648.9728600 -0.669375E-06  0.842E-04    0.82       6.4  T
   4   -648.9728602 -0.256364E-06  0.514E-04    0.82      10.5  T
   5   -648.9728603 -0.936152E-07  0.228E-04    0.82      23.7  T
   6   -648.9728604 -0.412606E-07  0.636E-05    0.82      84.8  T
   7   -648.9728604 -0.174487E-08  0.324E-05    0.82     166.4  T
     SCC iter.                  ...        0 min,  6.221 sec
     gradient                   ...        0 min,  1.466 sec
 * total energy  :  -638.9551334 Eh     change       -0.2741146E-02 Eh
   gradient norm :     0.0078557 Eh/α   predicted    -0.2797499E-02 (   2.06%)
   displ. norm   :     0.8771861 α      lambda       -0.2973066E-02
   maximum displ.:     0.4678351 α      in ANC's #27, #36, #26, ...

........................................................................
.............................. CYCLE   42 ..............................
........................................................................
   1   -648.9813551 -0.648981E+03  0.227E-03    0.82       0.0  T
   2   -648.9813560 -0.884013E-06  0.136E-03    0.82       4.0  T
   3   -648.9813564 -0.458305E-06  0.802E-04    0.82       6.7  T
   4   -648.9813566 -0.162588E-06  0.506E-04    0.82      10.6  T
   5   -648.9813567 -0.114996E-06  0.202E-04    0.82      26.7  T
   6   -648.9813568 -0.343896E-07  0.619E-05    0.82      87.1  T
   7   -648.9813568 -0.208615E-08  0.287E-05    0.82     187.9  T
     SCC iter.                  ...        0 min,  6.211 sec
     gradient                   ...        0 min,  1.462 sec
 * total energy  :  -638.9578097 Eh     change       -0.2676386E-02 Eh
   gradient norm :     0.0085395 Eh/α   predicted    -0.2630364E-02 (  -1.72%)
   displ. norm   :     0.8899084 α      lambda       -0.2811802E-02
   maximum displ.:     0.4918974 α      in ANC's #27, #36, #26, ...
 * RMSD in coord.:     0.8730204 α      energy gain  -0.1690774E+00 Eh

generating ANC from model Hessian ...
Using Lindh-Hessian (1995)
 Shifting diagonal of input Hessian by    1.0002088010196829E-002
 Lowest  eigenvalues of input Hessian
    0.010000    0.010000    0.010001    0.010001    0.000000    0.000000
    0.000000    0.000000    0.000000    0.000000    0.010002    0.010003
    0.010003    0.010003    0.010007    0.010007    0.010008    0.010008
 Highest eigenvalues
    2.744976    2.745726    2.926566    2.927130    2.963616    2.963830


........................................................................
.............................. CYCLE   43 ..............................
........................................................................
   1   -648.9909546 -0.648991E+03  0.196E-03    0.82       0.0  T
   2   -648.9909552 -0.643043E-06  0.125E-03    0.82       4.3  T
   3   -648.9909558 -0.559930E-06  0.689E-04    0.82       7.8  T
   4   -648.9909559 -0.105507E-06  0.415E-04    0.82      13.0  T
   5   -648.9909560 -0.861637E-07  0.183E-04    0.82      29.4  T
   6   -648.9909560 -0.230604E-07  0.505E-05    0.82     106.7  T
     SCC iter.                  ...        0 min,  5.329 sec
     gradient                   ...        0 min,  1.463 sec
 * total energy  :  -638.9603920 Eh     change       -0.2582204E-02 Eh
   gradient norm :     0.0076639 Eh/α   predicted     0.0000000E+00 (-100.00%)
   displ. norm   :     0.2730399 α      lambda       -0.9270202E-03
   maximum displ.:     0.1958728 α      in ANC's #26, #36, #35, ...

........................................................................
.............................. CYCLE   44 ..............................
........................................................................
   1   -648.9947334 -0.648995E+03  0.129E-03    0.82       0.0  T
   2   -648.9947338 -0.347691E-06  0.618E-04    0.82       8.7  T
   3   -648.9947338 -0.684352E-07  0.420E-04    0.82      12.9  T
   4   -648.9947339 -0.123903E-06  0.229E-04    0.82      23.5  T
   5   -648.9947340 -0.263864E-07  0.110E-04    0.82      49.2  T
   6   -648.9947340 -0.655155E-08  0.317E-05    0.82     169.9  T
     SCC iter.                  ...        0 min,  5.332 sec
     gradient                   ...        0 min,  1.468 sec
 * total energy  :  -638.9611322 Eh     change       -0.7402780E-03 Eh
   gradient norm :     0.0061962 Eh/α   predicted    -0.4980661E-03 ( -32.72%)
   displ. norm   :     0.5712974 α      lambda       -0.1879166E-02
   maximum displ.:     0.3652090 α      in ANC's #26, #36, #35, ...

........................................................................
[...]
    64   6 C       94   6 C                                       1.3884930
    93   6 C       94   6 C                                       1.4524730 (max)
    91   6 C       95   7 N                                       1.3536178
    94   6 C       95   7 N                                       1.3558977
    77   6 C       96   7 N                                       1.3629306
    80   6 C       96   7 N                                       1.3696625
    97   6 C       98   6 C                                       1.3972054
    98   6 C       99   6 C                                       1.3840241
    99   6 C      100   6 C                                       1.3951728
   101   6 C      102   8 O                                       1.3416791
   101   6 C      103   8 O                                       1.2047798
   100   6 C      104   6 C                                       1.3962634
    97   6 C      105   6 C                                       1.3976787
   104   6 C      105   6 C                                       1.3824463
    64   6 C      106   1 H                                       1.0853438
    66   6 C      107   1 H                                       1.0782933
    67   6 C      108   1 H                                       1.0779159
    69   7 N      109   1 H                                       1.0145165
    72   6 C      110   1 H                                       1.0778733
    73   6 C      111   1 H                                       1.0781612
    78   6 C      112   1 H                                       1.0780165
    79   6 C      113   1 H                                       1.0777052
    83   6 C      114   1 H                                       1.0841383
    84   6 C      115   1 H                                       1.0844855
    87   8 O      116   1 H                                       0.9709497 (min)
    89   6 C      117   1 H                                       1.0835797
    90   6 C      118   1 H                                       1.0841216
    92   6 C      119   1 H                                       1.0780970
    93   6 C      120   1 H                                       1.0787019
    96   7 N      121   1 H                                       1.0147231
    98   6 C      122   1 H                                       1.0842491
    99   6 C      123   1 H                                       1.0835986
   102   8 O      124   1 H                                       0.9709804
   104   6 C      125   1 H                                       1.0844748
   105   6 C      126   1 H                                       1.0840270
   127   6 C      128   6 C                                       1.2246597
   129   6 C      130   6 C                                       1.2307327
   131   6 C      132   6 C                                       1.2308269
   133   6 C      134   6 C                                       1.2248721
   135   6 C      136   6 C                                       1.2253324
   137   6 C      138   6 C                                       1.2314256
   139   6 C      140   6 C                                       1.2313983
   141   6 C      142   6 C                                       1.2253327
   143   6 C      144   6 C                                       1.2253255
   145   6 C      146   6 C                                       1.2313918
   147   6 C      148   6 C                                       1.2313858
   149   6 C      150   6 C                                       1.2253077
   151   6 C      152   6 C                                       1.2248464
   153   6 C      154   6 C                                       1.2308292
   155   6 C      156   6 C                                       1.2307288
   157   6 C      158   6 C                                       1.2246381
   159   6 C      160   6 C                                       1.4082746
   160   6 C      161   6 C                                       1.4187533
   161   6 C      162   6 C                                       1.3680632
   162   6 C      163   6 C                                       1.4216525
   160   6 C      164   7 N                                       1.3630091
   163   6 C      164   7 N                                       1.3689079
   163   6 C      165   6 C                                       1.4005197
   165   6 C      166   6 C                                       1.3957489
   166   6 C      167   6 C                                       1.4522491
   167   6 C      168   6 C                                       1.3489351
   166   6 C      169   7 N                                       1.3616465
   168   6 C      170   6 C                                       1.4496455
   169   7 N      170   6 C                                       1.3481324
   170   6 C      171   6 C                                       1.4099527
   171   6 C      172   6 C                                       1.4086663
   172   6 C      173   6 C                                       1.4187888
   173   6 C      174   6 C                                       1.3681000
   174   6 C      175   6 C                                       1.4216554
   175   6 C      176   6 C                                       1.4002313
   177   6 C      178   6 C                                       1.3974040
   178   6 C      179   6 C                                       1.3826374
   179   6 C      180   6 C                                       1.3961688
   181   6 C      182   8 O                                       1.3415326
   181   6 C      183   8 O                                       1.2046497
   180   6 C      184   6 C                                       1.3951113
   177   6 C      185   6 C                                       1.3971380
   184   6 C      185   6 C                                       1.3839830
   176   6 C      186   6 C                                       1.3961454
   186   6 C      187   6 C                                       1.4523524
   187   6 C      188   6 C                                       1.3488589
   159   6 C      189   6 C                                       1.4092450
   188   6 C      189   6 C                                       1.4495698
   186   6 C      190   7 N                                       1.3611538
   189   6 C      190   7 N                                       1.3486708
   172   6 C      191   7 N                                       1.3628478
   175   6 C      191   7 N                                       1.3692131
   192   6 C      193   6 C                                       1.3974240
   193   6 C      194   6 C                                       1.3826744
   194   6 C      195   6 C                                       1.3961158
   196   6 C      197   8 O                                       1.3414131
   196   6 C      198   8 O                                       1.2047276
   195   6 C      199   6 C                                       1.3951777
   192   6 C      200   6 C                                       1.3971051
   199   6 C      200   6 C                                       1.3839276
   161   6 C      201   1 H                                       1.0779734
   162   6 C      202   1 H                                       1.0776847
   164   7 N      203   1 H                                       1.0145132
   167   6 C      204   1 H                                       1.0778666
   168   6 C      205   1 H                                       1.0781801
   173   6 C      206   1 H                                       1.0779816
   174   6 C      207   1 H                                       1.0777147
   178   6 C      208   1 H                                       1.0840034
   179   6 C      209   1 H                                       1.0844706
   182   8 O      210   1 H                                       0.9710042
   184   6 C      211   1 H                                       1.0835737
   185   6 C      212   1 H                                       1.0842312
   187   6 C      213   1 H                                       1.0778247
   188   6 C      214   1 H                                       1.0781574
   191   7 N      215   1 H                                       1.0145211
   193   6 C      216   1 H                                       1.0841239
   194   6 C      217   1 H                                       1.0844835
   197   8 O      218   1 H                                       0.9710036
   199   6 C      219   1 H                                       1.0835650
   200   6 C      220   1 H                                       1.0841114
   221   6 C      222   6 C                                       1.4088156
   222   6 C      223   6 C                                       1.4186448
   223   6 C      224   6 C                                       1.3681839
   224   6 C      225   6 C                                       1.4215532
   222   6 C      226   7 N                                       1.3628114
   225   6 C      226   7 N                                       1.3691658
   225   6 C      227   6 C                                       1.4004710
   227   6 C      228   6 C                                       1.3960221
   228   6 C      229   6 C                                       1.4522502
   229   6 C      230   6 C                                       1.3489670
   228   6 C      231   7 N                                       1.3614916
   230   6 C      232   6 C                                       1.4495531
   231   7 N      232   6 C                                       1.3483173
   232   6 C      233   6 C                                       1.4098590
   233   6 C      234   6 C                                       1.4087757
   234   6 C      235   6 C                                       1.4186182
   235   6 C      236   6 C                                       1.3682051
   236   6 C      237   6 C                                       1.4215540
   237   6 C      238   6 C                                       1.4004622
   239   6 C      240   6 C                                       1.3975147
   240   6 C      241   6 C                                       1.3825410
   241   6 C      242   6 C                                       1.3961705
   243   6 C      244   8 O                                       1.3414824
   243   6 C      245   8 O                                       1.2046747
   242   6 C      246   6 C                                       1.3951106
   239   6 C      247   6 C                                       1.3971117
   246   6 C      247   6 C                                       1.3840442
   238   6 C      248   6 C                                       1.3960365
   248   6 C      249   6 C                                       1.4522526
   249   6 C      250   6 C                                       1.3489512
   221   6 C      251   6 C                                       1.4098206
   250   6 C      251   6 C                                       1.4495537
   248   6 C      252   7 N                                       1.3614884
   251   6 C      252   7 N                                       1.3483710
   234   6 C      253   7 N                                       1.3628056
   237   6 C      253   7 N                                       1.3691909
   254   6 C      255   6 C                                       1.3973448
   255   6 C      256   6 C                                       1.3827790
   256   6 C      257   6 C                                       1.3961001
   258   6 C      259   8 O                                       1.3413956
   258   6 C      260   8 O                                       1.2047190
   257   6 C      261   6 C                                       1.3951808
   254   6 C      262   6 C                                       1.3972836
   261   6 C      262   6 C                                       1.3837863
   223   6 C      263   1 H                                       1.0779730
   224   6 C      264   1 H                                       1.0776774
   226   7 N      265   1 H                                       1.0145325
   229   6 C      266   1 H                                       1.0778735
   230   6 C      267   1 H                                       1.0781733
   235   6 C      268   1 H                                       1.0779807
   236   6 C      269   1 H                                       1.0776904
   240   6 C      270   1 H                                       1.0840072
   241   6 C      271   1 H                                       1.0844635
   244   8 O      272   1 H                                       0.9709978
   246   6 C      273   1 H                                       1.0835754
   247   6 C      274   1 H                                       1.0842145
   249   6 C      275   1 H                                       1.0778583
   250   6 C      276   1 H                                       1.0781716
   253   7 N      277   1 H                                       1.0145367
   255   6 C      278   1 H                                       1.0841080
   256   6 C      279   1 H                                       1.0844832
   259   8 O      280   1 H                                       0.9709825
   261   6 C      281   1 H                                       1.0835546
   262   6 C      282   1 H                                       1.0841134
   283   6 C      284   6 C                                       1.4086728
   284   6 C      285   6 C                                       1.4188046
   285   6 C      286   6 C                                       1.3680673
   286   6 C      287   6 C                                       1.4216687
   284   6 C      288   7 N                                       1.3628482
   287   6 C      288   7 N                                       1.3692096
   287   6 C      289   6 C                                       1.4002583
   289   6 C      290   6 C                                       1.3962047
   290   6 C      291   6 C                                       1.4523259
   291   6 C      292   6 C                                       1.3489392
   290   6 C      293   7 N                                       1.3610539
   292   6 C      294   6 C                                       1.4495304
   293   7 N      294   6 C                                       1.3486656
   294   6 C      295   6 C                                       1.4091802
   295   6 C      296   6 C                                       1.4082798
   296   6 C      297   6 C                                       1.4187206
   297   6 C      298   6 C                                       1.3681000
   298   6 C      299   6 C                                       1.4216289
   299   6 C      300   6 C                                       1.4006101
   301   6 C      302   6 C                                       1.3973785
   302   6 C      303   6 C                                       1.3826666
   303   6 C      304   6 C                                       1.3961557
   305   6 C      306   8 O                                       1.3415709
   305   6 C      307   8 O                                       1.2046955
   304   6 C      308   6 C                                       1.3951457
   301   6 C      309   6 C                                       1.3972548
   308   6 C      309   6 C                                       1.3838991
   300   6 C      310   6 C                                       1.3958139
   310   6 C      311   6 C                                       1.4522433
   311   6 C      312   6 C                                       1.3489467
   283   6 C      313   6 C                                       1.4099512
   312   6 C      313   6 C                                       1.4496469
   310   6 C      314   7 N                                       1.3616489
   313   6 C      314   7 N                                       1.3481695
   296   6 C      315   7 N                                       1.3629918
   299   6 C      315   7 N                                       1.3688917
   316   6 C      317   6 C                                       1.3973855
   317   6 C      318   6 C                                       1.3827344
   318   6 C      319   6 C                                       1.3961078
   320   6 C      321   8 O                                       1.3414163
   320   6 C      322   8 O                                       1.2047357
   319   6 C      323   6 C                                       1.3951946
   316   6 C      324   6 C                                       1.3972338
   323   6 C      324   6 C                                       1.3838330
   285   6 C      325   1 H                                       1.0779729
   286   6 C      326   1 H                                       1.0776943
   288   7 N      327   1 H                                       1.0145091
   291   6 C      328   1 H                                       1.0778654
   292   6 C      329   1 H                                       1.0781795
   297   6 C      330   1 H                                       1.0779791
   298   6 C      331   1 H                                       1.0776966
   302   6 C      332   1 H                                       1.0839898
   303   6 C      333   1 H                                       1.0844682
   306   8 O      334   1 H                                       0.9709918
   308   6 C      335   1 H                                       1.0835582
   309   6 C      336   1 H                                       1.0842306
   311   6 C      337   1 H                                       1.0778538
   312   6 C      338   1 H                                       1.0781741
   315   7 N      339   1 H                                       1.0145138
   317   6 C      340   1 H                                       1.0841127
   318   6 C      341   1 H                                       1.0844833
   321   8 O      342   1 H                                       0.9709898
   323   6 C      343   1 H                                       1.0835556
   324   6 C      344   1 H                                       1.0841137

 * 6 distinct bonds (by element types)

   Z      Z             #   av. dist./Å        max./Å        min./Å
   1 H    6 C          82     1.0811382     1.0853438     1.0776774
   6 C    6 C         174     1.3847753     1.4524730     1.2246381
   1 H    7 N          10     1.0145603     1.0147231     1.0145091
   6 C    7 N          40     1.3604589     1.3697245     1.3481324
   1 H    8 O          10     0.9709834     0.9710042     0.9709497
   6 C    8 O          20     1.2731445     1.3417394     1.2046497


optimized geometry written to: xtbopt.xyz


           -------------------------------------------------
          | TOTAL ENERGY             -639.005511144198 Eh   |
          | GRADIENT NORM               0.000442193349 Eh/α |
          | HOMO-LUMO GAP               0.794825354269 eV   |
           -------------------------------------------------

------------------------------------------------------------------------
 * finished run on 2022/07/30 at 22:34:01.701     
------------------------------------------------------------------------
 total:
 * wall-time:     0 d,  0 h, 22 min, 16.609 sec
 *  cpu-time:     0 d,  0 h, 22 min,  8.094 sec
 * ratio c/w:     0.994 speedup
 SCF:
 * wall-time:     0 d,  0 h,  1 min, 47.602 sec
 *  cpu-time:     0 d,  0 h,  1 min, 46.917 sec
 * ratio c/w:     0.994 speedup
 ANC optimizer:
 * wall-time:     0 d,  0 h, 20 min, 28.420 sec
 *  cpu-time:     0 d,  0 h, 20 min, 20.598 sec
 * ratio c/w:     0.994 speedup

