308
 energy: -535.559932849506 gnorm: 2.346637686256 xtb: 6.5.1 (b24c23e)
C           63.63723100000000        0.10072800000000        0.27892400000000
C           64.37067600000000        1.27339600000000       -0.44177300000000
C           63.77370899999999        2.40111000000000       -0.95721500000000
C           64.79795200000000        3.17039300000000       -1.56847200000000
C           65.98564900000000        2.48133800000000       -1.41169300000000
N           65.71929400000000        1.35063800000000       -0.68069000000000
C           67.39914200000000        2.89336900000000       -1.98602800000000
C           67.42833400000001        3.95173300000000       -2.95271700000000
C           67.43849100000000        4.83859800000000       -3.76357500000000
C           67.44864800000001        5.89008800000000       -4.72993200000000
C           66.65017100000000        5.80199900000000       -5.86485400000000
C           66.69458299999999        6.84650500000000       -6.77172900000000
N           67.46642199999999        7.94695800000000       -6.62098400000000
C           68.23006900000000        7.99705700000000       -5.50563600000000
C           68.25667199999998        7.00556200000000       -4.54024600000000
C           68.52723500000000        2.23985100000000       -1.60317300000000
C           69.82298299999999        2.57544100000000       -2.15827700000000
C           70.73001999999998        1.76581800000000       -1.62424000000000
N           68.73386200000000        1.21299400000000       -0.71946400000000
C           70.06333700000000        0.87925800000000       -0.69061900000000
C           70.73755100000000       -0.06561300000000        0.01749800000000
C           69.96858899999999       -0.99698600000000        1.04629600000000
C           70.51886000000000       -1.63713000000000        2.13940600000000
C           69.49144099999998       -2.39906900000000        2.74992200000000
C           68.34070400000000       -2.19541900000000        2.01818500000000
N           68.62948199999998       -1.30109500000000        1.01455600000000
C           66.92826400000000       -2.84732300000000        2.29489700000000
C           66.89726899999999       -4.08781600000000        3.00922500000000
C           66.88190200000000       -5.13196900000000        3.60349100000000
C           66.85843400000000       -6.37683500000000        4.30320600000000
C           67.89865500000001       -6.71685800000000        5.16083500000000
C           67.82845700000000       -7.93499100000000        5.81447600000000
N           66.81048100000000       -8.81375100000000        5.67015300000000
C           65.81756600000000       -8.44945400000000        4.82696000000000
C           65.79481100000000       -7.25523300000000        4.12773700000000
C           65.80073400000001       -2.24030300000000        1.84762200000000
C           64.47413200000000       -2.77803100000000        2.09415200000000
C           63.58292100000000       -1.95735000000000        1.54548900000000
C           64.30523500000000       -0.87538400000000        0.92200300000000
N           65.63213600000000       -1.09018200000000        1.12792900000000
H           62.55495500000000        0.07366100000000        0.23453600000000
H           62.72125799999999        2.63604400000000       -0.91202000000000
H           64.67753300000000        4.11097800000000       -2.08446000000000
H           66.41128000000000        0.67391400000000       -0.36732000000000
H           66.01268300000000        4.94140600000000       -6.03590400000000
H           66.08999100000000        6.82400900000000       -7.67289300000000
H           68.84307099999998        8.88704700000000       -5.40323800000000
H           68.88911500000000        7.09688400000000       -3.66379700000000
H           70.02481200000000        3.34071000000000       -2.88620000000000
H           71.77926899999999        1.78601700000000       -1.85600600000000
H           71.54776900000000       -1.57265000000000        2.45940100000000
H           69.58081900000001       -3.02592400000000        3.62402000000000
H           67.94373800000000       -0.88472700000000        0.39004200000000
H           68.74027700000001       -6.05008600000000        5.31343200000000
H           68.61626000000000       -8.24579100000000        6.49375200000000
H           65.01039200000000       -9.16800900000000        4.72253700000000
H           64.97256899999999       -7.01345100000000        3.46277900000000
H           64.24755399999999       -3.67904700000000        2.63459400000000
H           62.51436400000000       -2.07422600000000        1.55749700000000
C          126.21165700000000        0.17615500000000        0.21130500000000
C          125.47821199999998       -0.66789200000000        1.29856700000000
C          126.07517899999999       -1.30301100000000        2.36348200000000
C          125.05093599999998       -1.99436500000000        3.06166600000000
C          123.86323899999999       -1.76352100000000        2.39376800000000
N          124.12959400000000       -0.91379600000000        1.34934700000000
C          122.44974600000000       -2.37928900000000        2.74084100000000
C          122.42055399999998       -3.45542600000000        3.68770600000000
C          122.41039699999999       -4.35799200000000        4.48105000000000
C          122.40024000000000       -5.43305100000000        5.42111600000000
C          123.19871700000000       -6.55164400000000        5.21002800000000
C          123.15430499999998       -7.56681300000000        6.14962600000000
N          122.38246599999999       -7.53673600000000        7.25994800000000
C          121.61881900000000       -6.43346700000000        7.43114200000000
C          121.59221599999999       -5.36589800000000        6.55060900000000
C          121.32165300000000       -1.92758100000000        2.13287500000000
C          120.02590499999998       -2.51591200000000        2.40605500000000
C          119.11886800000001       -1.89693000000000        1.65936600000000
N          121.11502600000000       -0.93735900000000        1.20830000000000
C          119.78555099999998       -0.87236300000000        0.87968700000000
C          119.11133699999999       -0.06561300000000        0.01749800000000
C          119.88029899999998        1.05844100000000       -0.79636900000000
C          119.33002800000000        2.21473000000000       -1.31373700000000
C          120.35744699999999        2.90454800000000       -2.00470200000000
C          121.50818400000000        2.15499300000000       -1.88190300000000
N          121.21940600000001        1.05998900000000       -1.10212500000000
C          122.92062400000000        2.50101300000000       -2.49981700000000
C          122.95161899999998        3.34611100000000       -3.65519500000000
C          122.96698599999999        4.05049100000000       -4.62846600000000
C          122.99045399999999        4.88153900000000       -5.78978100000000
C          121.95023299999998        5.77108000000000       -6.03444100000000
C          122.02043100000000        6.55341800000000       -7.17419600000000
N          123.03840700000001        6.50559600000000       -8.06344400000000
C          124.03132199999999        5.62776200000000       -7.79308300000000
C          124.05407700000001        4.80271600000000       -6.68205800000000
C          124.04815399999998        1.99032800000000       -1.94508500000000
C          125.37475599999999        2.29391900000000       -2.45278600000000
C          126.26596699999999        1.65919400000000       -1.69669600000000
C          125.54365299999999        0.92165200000000       -0.68901700000000
N          124.21675199999999        1.14973300000000       -0.88012600000000
H          127.29393300000000        0.13497600000000        0.17956800000000
H          127.12762899999998       -1.28365400000000        2.60193900000000
H          125.17135399999999       -2.60965900000000        3.94050500000000
H          123.43760799999998       -0.52863500000000        0.71074900000000
H          123.83620500000001       -6.62801200000000        4.33592900000000
H          123.75889700000000       -8.46017500000000        6.02918200000000
H          121.00581699999999       -6.42854200000000        8.32699000000000
H          120.95977300000000       -4.50459500000000        6.73678000000000
H          119.82407600000001       -3.32280100000000        3.08755200000000
H          118.06961900000000       -2.12951700000000        1.65421900000000
H          118.30111900000000        2.52580700000000       -1.21481200000000
H          120.26806899999998        3.84167900000000       -2.53269700000000
H          121.90515000000001        0.39386800000000       -0.75620200000000
H          121.10861099999998        5.85020000000000       -5.35502200000000
H          121.23262799999999        7.26248600000000       -7.40921800000000
H          124.83849600000001        5.60216600000000       -8.51873400000000
H          124.87631900000000        4.11539300000000       -6.51408600000000
H          125.60133399999999        2.92921600000000       -3.28962900000000
H          127.33452299999999        1.68385200000000       -1.81157100000000
C           74.07704600000000       -0.05317700000000        0.01994000000000
C           72.82477600000000       -0.07235800000000        0.01559100000000
C           75.39071400000000       -0.05394300000000        0.02187200000000
C           76.89384800000001       -0.07235800000000        0.01559100000000
C           87.48380299999998       -0.05317700000000        0.01994000000000
C           86.23153199999999       -0.07235800000000        0.01559100000000
C           88.79747099999999       -0.05394300000000        0.02187200000000
C           90.30060500000000       -0.07235800000000        0.01559100000000
C          100.89055999999999       -0.05317700000000        0.01994000000000
C           99.63828900000000       -0.07235800000000        0.01559100000000
C          102.20422800000000       -0.05394300000000        0.02187200000000
C          103.70736100000001       -0.07235800000000        0.01559100000000
C          114.29731599999998       -0.05317700000000        0.01994000000000
C          113.04504599999999       -0.07235800000000        0.01559100000000
C          115.61098399999999       -0.05394300000000        0.02187200000000
C          117.11411800000000       -0.07235800000000        0.01559100000000
C           77.94855299999999        0.05115000000000       -0.01330000000000
C           78.74616699999999        0.11824900000000       -1.38027400000000
C           78.25663100000000        0.52545900000000       -2.60391100000000
C           79.29900900000000        0.36072600000000       -3.55224800000000
C           80.39288699999999       -0.13765400000000       -2.87667300000000
N           80.06794400000000       -0.21323800000000       -1.54588200000000
C           81.77754100000000       -0.55069500000000       -3.50705000000000
C           81.76565199999999       -1.03123300000000       -4.85640200000000
C           81.73923899999998       -1.44266000000000       -5.98508100000000
C           81.71026799999999       -1.94781700000000       -7.32042500000000
C           82.46802200000000       -3.06364400000000       -7.65870300000000
C           82.40527800000000       -3.51888100000000       -8.96389100000000
N           81.65249700000000       -2.94458000000000       -9.92967300000000
C           80.92821400000000       -1.86293600000000       -9.56356900000000
C           80.92261200000000       -1.33092400000000       -8.28589100000000
C           82.91427699999998       -0.48589200000000       -2.76879200000000
C           84.20283900000000       -0.87038500000000       -3.30735300000000
C           85.11788500000000       -0.70784400000000       -2.35769700000000
N           83.12951699999999       -0.09836500000000       -1.47487400000000
C           84.45882999999999       -0.21137000000000       -1.16597300000000
C           85.12927000000001        0.05115000000000       -0.01330000000000
C           84.33510800000001        0.58187900000000        1.25294300000000
C           84.84416200000000        1.33720400000000        2.28951000000000
C           83.80340900000000        1.51155400000000        3.23747100000000
C           82.68826900000001        0.86452300000000        2.74670800000000
N           83.00238899999999        0.36649200000000        1.50664000000000
C           81.29531999999999        0.71511200000000        3.47332300000000
C           81.28885600000000        0.78683600000000        4.90402200000000
C           81.28052599999999        0.86993300000000        6.10301800000000
C           81.25355399999999        0.98652000000000        7.52630200000000
C           80.16208299999998        1.57689100000000        8.15466500000000
C           80.18247700000001        1.67435500000000        9.53523700000000
N           81.19879299999999        1.23073500000000       10.30971400000000
C           82.24215000000000        0.66098200000000        9.66366700000000
C           82.31701900000000        0.51643800000000        8.28883900000000
C           80.16128399999999        0.50959900000000        2.75695300000000
C           78.87046699999999        0.34416700000000        3.39435500000000
C           77.95703500000000        0.15827500000000        2.44759100000000
C           78.61854999999998        0.20161700000000        1.15912400000000
N           79.94936000000000        0.40727400000000        1.41004800000000
H           77.25749000000000        0.88444000000000       -2.79754500000000
H           79.25297900000000        0.56753000000000       -4.61044600000000
H           80.71732499999999       -0.42588900000000       -0.79436200000000
H           83.08853699999999       -3.56377000000000       -6.92268800000000
H           82.97802499999999       -4.38658900000000       -9.27601600000000
H           80.32933399999999       -1.41801800000000      -10.35206000000000
H           80.32117100000001       -0.46087700000000       -8.04688400000000
H           84.39335900000000       -1.22612400000000       -4.30406600000000
H           86.16656300000000       -0.91713400000000       -2.47235000000000
H           85.85625899999999        1.70541800000000        2.36749200000000
H           83.86562299999999        2.03647400000000        4.17885500000000
H           82.34449499999999       -0.06530900000000        0.86291600000000
H           79.32069700000000        1.95215100000000        7.58163200000000
H           79.35391500000000        2.12778100000000       10.07107600000000
H           83.04719000000000        0.31042600000000       10.30265500000000
H           83.17931200000000        0.05165500000000        7.82295000000000
H           78.67701199999999        0.36200100000000        4.45171700000000
H           76.90811100000001        0.00573600000000        2.62593200000000
C           91.35530900000001        0.05115000000000       -0.01330000000000
C           92.15292400000000        0.11824900000000       -1.38027400000000
C           91.66338699999999        0.52545900000000       -2.60391100000000
C           92.70576600000000        0.36072600000000       -3.55224800000000
C           93.79964400000000       -0.13765400000000       -2.87667300000000
N           93.47470000000000       -0.21323800000000       -1.54588200000000
C           95.18429800000000       -0.55069500000000       -3.50705000000000
C           95.17240900000000       -1.03123300000000       -4.85640200000000
C           95.14599500000000       -1.44266000000000       -5.98508100000000
C           95.11702400000000       -1.94781700000000       -7.32042500000000
C           95.87477900000000       -3.06364400000000       -7.65870300000000
C           95.81203400000000       -3.51888100000000       -8.96389100000000
N           95.05925399999998       -2.94458000000000       -9.92967300000000
C           94.33497099999998       -1.86293600000000       -9.56356900000000
C           94.32936899999999       -1.33092400000000       -8.28589100000000
C           96.32103300000000       -0.48589200000000       -2.76879200000000
C           97.60959599999998       -0.87038500000000       -3.30735300000000
C           98.52464099999999       -0.70784400000000       -2.35769700000000
N           96.53627400000001       -0.09836500000000       -1.47487400000000
C           97.86558700000000       -0.21137000000000       -1.16597300000000
C           98.53602700000000        0.05115000000000       -0.01330000000000
C           97.74186500000000        0.58187900000000        1.25294300000000
C           98.25091900000000        1.33720400000000        2.28951000000000
C           97.21016600000000        1.51155400000000        3.23747100000000
C           96.09502600000000        0.86452300000000        2.74670800000000
N           96.40914600000001        0.36649200000000        1.50664000000000
C           94.70207700000000        0.71511200000000        3.47332300000000
C           94.69561199999998        0.78683600000000        4.90402200000000
C           94.68728299999998        0.86993300000000        6.10301800000000
C           94.66030999999998        0.98652000000000        7.52630200000000
C           93.56883900000000        1.57689100000000        8.15466500000000
C           93.58923399999999        1.67435500000000        9.53523700000000
N           94.60554999999999        1.23073500000000       10.30971400000000
C           95.64890699999998        0.66098200000000        9.66366700000000
C           95.72377600000000        0.51643800000000        8.28883900000000
C           93.56804099999998        0.50959900000000        2.75695300000000
C           92.27722400000000        0.34416700000000        3.39435500000000
C           91.36379199999999        0.15827500000000        2.44759100000000
C           92.02530700000000        0.20161700000000        1.15912400000000
N           93.35611599999999        0.40727400000000        1.41004800000000
H           90.66424700000000        0.88444000000000       -2.79754500000000
H           92.65973600000000        0.56753000000000       -4.61044600000000
H           94.12408200000000       -0.42588900000000       -0.79436200000000
H           96.49529400000000       -3.56377000000000       -6.92268800000000
H           96.38478200000000       -4.38658900000000       -9.27601600000000
H           93.73609100000000       -1.41801800000000      -10.35206000000000
H           93.72792799999999       -0.46087700000000       -8.04688400000000
H           97.80011500000001       -1.22612400000000       -4.30406600000000
H           99.57331900000000       -0.91713400000000       -2.47235000000000
H           99.26301599999999        1.70541800000000        2.36749200000000
H           97.27238000000000        2.03647400000000        4.17885500000000
H           95.75125199999998       -0.06530900000000        0.86291600000000
H           92.72745399999999        1.95215100000000        7.58163200000000
H           92.76067199999999        2.12778100000000       10.07107600000000
H           96.45394700000000        0.31042600000000       10.30265500000000
H           96.58606899999998        0.05165500000000        7.82295000000000
H           92.08376800000001        0.36200100000000        4.45171700000000
H           90.31486800000000        0.00573600000000        2.62593200000000
C          104.76206599999999        0.05115000000000       -0.01330000000000
C          105.55968099999998        0.11824900000000       -1.38027400000000
C          105.07014400000000        0.52545900000000       -2.60391100000000
C          106.11252200000000        0.36072600000000       -3.55224800000000
C          107.20640099999999       -0.13765400000000       -2.87667300000000
N          106.88145699999998       -0.21323800000000       -1.54588200000000
C          108.59105400000000       -0.55069500000000       -3.50705000000000
C          108.57916599999999       -1.03123300000000       -4.85640200000000
C          108.55275199999998       -1.44266000000000       -5.98508100000000
C          108.52378099999999       -1.94781700000000       -7.32042500000000
C          109.28153600000000       -3.06364400000000       -7.65870300000000
C          109.21879100000000       -3.51888100000000       -8.96389100000000
N          108.46601099999999       -2.94458000000000       -9.92967300000000
C          107.74172799999999       -1.86293600000000       -9.56356900000000
C          107.73612600000000       -1.33092400000000       -8.28589100000000
C          109.72778999999998       -0.48589200000000       -2.76879200000000
C          111.01635200000000       -0.87038500000000       -3.30735300000000
C          111.93139800000000       -0.70784400000000       -2.35769700000000
N          109.94303099999999       -0.09836500000000       -1.47487400000000
C          111.27234299999999       -0.21137000000000       -1.16597300000000
C          111.94278400000000        0.05115000000000       -0.01330000000000
C          111.14862200000000        0.58187900000000        1.25294300000000
C          111.65767500000000        1.33720400000000        2.28951000000000
C          110.61692200000000        1.51155400000000        3.23747100000000
C          109.50178300000000        0.86452300000000        2.74670800000000
N          109.81590299999999        0.36649200000000        1.50664000000000
C          108.10883299999999        0.71511200000000        3.47332300000000
C          108.10236900000000        0.78683600000000        4.90402200000000
C          108.09403900000000        0.86993300000000        6.10301800000000
C          108.06706699999999        0.98652000000000        7.52630200000000
C          106.97559599999998        1.57689100000000        8.15466500000000
C          106.99599100000000        1.67435500000000        9.53523700000000
N          108.01230700000001        1.23073500000000       10.30971400000000
C          109.05566399999999        0.66098200000000        9.66366700000000
C          109.13053200000000        0.51643800000000        8.28883900000000
C          106.97479700000000        0.50959900000000        2.75695300000000
C          105.68397999999999        0.34416700000000        3.39435500000000
C          104.77054900000000        0.15827500000000        2.44759100000000
C          105.43206399999998        0.20161700000000        1.15912400000000
N          106.76287300000000        0.40727400000000        1.41004800000000
H          104.07100299999999        0.88444000000000       -2.79754500000000
H          106.06649299999999        0.56753000000000       -4.61044600000000
H          107.53083799999999       -0.42588900000000       -0.79436200000000
H          109.90204999999999       -3.56377000000000       -6.92268800000000
H          109.79153900000000       -4.38658900000000       -9.27601600000000
H          107.14284799999999       -1.41801800000000      -10.35206000000000
H          107.13468399999999       -0.46087700000000       -8.04688400000000
H          111.20687200000000       -1.22612400000000       -4.30406600000000
H          112.98007600000000       -0.91713400000000       -2.47235000000000
H          112.66977300000001        1.70541800000000        2.36749200000000
H          110.67913599999999        2.03647400000000        4.17885500000000
H          109.15800800000000       -0.06530900000000        0.86291600000000
H          106.13421099999999        1.95215100000000        7.58163200000000
H          106.16742900000000        2.12778100000000       10.07107600000000
H          109.86070400000000        0.31042600000000       10.30265500000000
H          109.99282599999999        0.05165500000000        7.82295000000000
H          105.49052499999999        0.36200100000000        4.45171700000000
H          103.72162399999999        0.00573600000000        2.62593200000000
308
 energy: -536.433557170619 gnorm: 0.880815218869 xtb: 6.5.1 (b24c23e)
C           63.64790462765821        0.11568875226663        0.26958544406948
C           64.36644870847545        1.26304241460766       -0.43509572358940
C           63.77570412450176        2.40386691021477       -0.96016193373058
C           64.79491955901992        3.16887566119321       -1.56848340567999
C           65.99657743644649        2.48324954807030       -1.41483497346641
N           65.71948537038752        1.35024263608985       -0.68135394974070
C           67.38179187373821        2.88945897087680       -1.98012548450738
C           67.42522597699740        3.94526457325392       -2.94566088837486
C           67.43870459466365        4.83958260687754       -3.76451153677832
C           67.44874776508807        5.88747822768085       -4.72757515004218
C           66.65023935096043        5.80356792256945       -5.86585957031145
C           66.69600064528474        6.84917491236643       -6.77199293785642
N           67.46641326450813        7.94249288748681       -6.61689403901630
C           68.22865442078783        7.99758985889344       -5.50826146726241
C           68.25667221276871        7.00672212626339       -4.54174926714193
C           68.53199152235449        2.23583957902713       -1.60080865734748
C           69.82406055376113        2.57803668166524       -2.16097006342515
C           70.73475598700655        1.76648557564153       -1.62529923201495
N           68.73070412334523        1.20919328260426       -0.71739725889805
C           70.06724397061046        0.87933047384297       -0.69196879844925
C           70.74452885480562       -0.07415867620693        0.03203014699223
C           69.97750009338212       -0.98814587610394        1.03770506038827
C           70.51808870147455       -1.64015544696664        2.14034155999019
C           69.49443321396777       -2.39847469904603        2.74825396423270
C           68.33039034130584       -2.19833796085501        2.01918144672753
N           68.63063315925268       -1.30115327382927        1.01347368759350
C           66.94534189568520       -2.84196665678666        2.29237592213135
C           66.90031525614809       -4.07895578576166        3.00499223218593
C           66.88181094884570       -5.13344521942808        3.60475668010755
C           66.85842072838177       -6.37342723047518        4.30115600177062
C           67.89856394294513       -6.71865801608497        5.16157740440783
C           67.82661846224366       -7.93724787070087        5.81461102730644
N           66.81058963216574       -8.80852886496031        5.66718221033616
C           65.81930288278876       -8.45080515533975        4.82885266092862
C           65.79479053146072       -7.25683839907622        4.12885334081426
C           65.79618531673528       -2.23758324200874        1.84433559455223
C           64.47289600152193       -2.78153210333944        2.09637304503267
C           63.57920813403701       -1.95920801448553        1.54653995306943
C           64.30787131833365       -0.87783010072227        0.92307906096619
N           65.63739985581842       -1.08822000506858        1.12640625081521
H           62.55854660324464        0.07679060944315        0.23346192058626
H           62.72217528248429        2.63676247196135       -0.91252756282773
H           64.67698479072108        4.11045504624060       -2.08406669164196
H           66.41080365118123        0.67449740819979       -0.36769475701329
H           66.01303870373278        4.94207395323157       -6.03597898490789
H           66.09011765543215        6.82428119274612       -7.67297604821783
H           68.84293340958742        8.88714301257762       -5.40349174385838
H           68.88874288467838        7.09703005070142       -3.66447188083410
H           70.02375107371559        3.34249592100705       -2.88756004273500
H           71.78193718113309        1.78463733422667       -1.85522902238204
H           71.54722730704697       -1.57323506627692        2.45953413548059
H           69.58146774638733       -3.02543826127608        3.62341754652351
H           67.94454646159872       -0.88514469678571        0.39047425745557
H           68.73982043536181       -6.05065409116424        5.31349825233007
H           68.61607568514884       -8.24601396481114        6.49379445384948
H           65.01057064372581       -9.16817054224402        4.72274682171060
H           64.97300682096214       -7.01383512166028        3.46329074297095
H           64.24848006370330       -3.68116128994485        2.63592973040056
H           62.51227026790929       -2.07380522297723        1.55713251990613
C          126.20098449118655        0.16524407618872        0.22515982644718
C          125.48243711862831       -0.66012944377824        1.28900460267114
C          126.07318418347826       -1.30624104176172        2.36589856515777
C          125.05396377062858       -1.99420737107364        3.06015946305949
C          123.85231547679336       -1.76683560922732        2.39534318833438
N          124.12940501050110       -0.91441304191628        1.34888265189162
C          122.46706382791091       -2.37299239035909        2.73756148033383
C          122.42366058421459       -3.44770758191356        3.68205373491381
C          122.41018397853709       -4.35902626517443        4.48192493638259
C          122.40014149641712       -5.43042385276040        5.41877474837619
C          123.19864782277226       -6.55281459042552        5.21147819321731
C          123.15288812553746       -7.56736570526821        6.15225073277924
N          122.38247308166093       -7.53218579973010        7.25595602753729
C          121.62023537750457       -6.43613411753142        7.43138447144811
C          121.59221706077159       -5.36751980645481        6.55159890179346