270
 energy: -507.077475542971 gnorm: 0.000682035768 xtb: 6.5.1 (b24c23e)
Zn          46.22143432034187       -0.04344591665927       -0.00536709264868
C           42.81306558800863       -0.12807395385694        0.01845234366396
C           43.44136932651865       -0.16672372412956        1.25721826540658
C           42.76543311995938       -0.20234004111543        2.52400832188209
C           43.72273542935273       -0.21202382613024        3.48462627153572
C           44.99682377395376       -0.19277504394268        2.81515251025676
N           44.79060717562072       -0.15808900761383        1.46748975743306
C           46.24730266696481       -0.17640851290944        3.44559747406295
C           47.48728688620142       -0.11566293484857        2.79999544948740
C           48.76649856408454       -0.15425868969651        3.45392469278780
C           49.71365571485837       -0.09725028399949        2.48349718150754
N           47.68207738724689       -0.04750365981861        1.44657820417626
C           49.02436905863449       -0.03056253201100        1.22819861400180
C           49.65650787861518        0.02958700535153       -0.02989446202997
C           49.00442310670977        0.07215901079640       -1.27834734044407
C           49.67355256890428        0.10688262899479       -2.54569979425641
C           48.71097290506165        0.13122006954106       -3.50226926328430
C           47.44233674584311        0.11901381373267       -2.82700676125885
C           46.19192641477484        0.11606804789260       -3.45546995872341
C           46.17782854725058        0.19227555645654       -4.93652927813991
C           45.62781706624752       -0.84510223920013       -5.69456533264237
C           45.61373357834822       -0.77027985422664       -7.07505273840148
C           46.14527832748345        0.34546945682525       -7.72489437707689
C           46.10323743580562        0.38190062469792       -9.20569407688030
O           46.64335705849192        1.49224184490616       -9.73165233779519
O           45.63509350725831       -0.48831085460228       -9.89533468550727
C           46.69466567463362        1.38470316659683       -6.97310710715892
C           46.71163211736030        1.30515152977843       -5.59170159165337
C           44.95157859103045        0.04878634570164       -2.80838596937213
C           43.66671494820585        0.08972477752092       -3.45605702386501
C           42.72506985618590        0.01680579285873       -2.48277192337868
C           43.42143968724737       -0.05859938010069       -1.22887643119171
N           44.76714697687142       -0.03294706222307       -1.45957125210132
N           47.65869823669793        0.07509746981580       -1.47591153836295
C           46.25715536494406       -0.22732136988897        4.92792412890540
C           45.72886550477585       -1.33149949555284        5.60225275081572
C           45.73812194410172       -1.37621125111199        6.98410293399738
C           46.27083081377937       -0.31516671810288        7.71901880004906
C           46.25379782107527       -0.40703340870250        9.19797040647199
O           46.79130497606707        0.66006999799037        9.80886607084232
O           45.80710900658922       -1.33912754288050        9.81733416639890
C           46.79813715113877        0.79052248953181        7.05095073443581
C           46.79253001365323        0.83029629009799        5.66770746747803
H           41.72756253414343       -0.14159099147767        0.02654024273903
H           41.69415550353384       -0.21049827943870        2.65020651086832
H           43.58309733513429       -0.21895541953876        4.55373545239794
H           48.91883807092827       -0.23021349992790        4.51847258953209
H           50.78573560566333       -0.10556274863041        2.59925344276884
H           50.74368799472969        0.10570948120821       -2.67869166790042
H           48.84637906034803        0.14166008894316       -4.57175958641329
H           45.22614195277652       -1.71819464642373       -5.19287906174831
H           45.19269013503465       -1.57410855501521       -7.66895365743856
H           46.57630968674932        1.43761045443162      -10.69870467445405
H           47.10527303125985        2.25412762733311       -7.47280636365202
H           47.12658436700382        2.11887462943892       -5.00754711956769
H           43.50945928941408        0.17647985264019       -4.51920089069004
H           41.65187049814158        0.02088090097319       -2.59173986999595
H           45.32590958869473       -2.16182318501849        5.03350840173890
H           45.33455057972683       -2.23254390619854        7.51317965055321
H           46.74236837170016        0.52126389435770       10.76855635099205
H           47.20947475004426        1.61784513446907        7.61714748146994
H           47.19090337787673        1.69509004410936        5.14913304654010
Zn         102.09009837495982       -0.03498929758206       -0.04572295348797
C          105.49817433041910       -0.12528677491656       -0.07992730382845
C          104.86994958589730       -0.01823955530643       -1.31471328541847
C          105.54598573519719        0.09157895152050       -2.57718052672007
C          104.58880373742544        0.19563485937314       -3.53232712992796
C          103.31466456779383        0.14044014809097       -2.86493783006760
N          103.52077559338831        0.01812644914067       -1.52235746839600
C          102.06436295311600        0.23338839334233       -3.48905779504289
C          100.82445493112502        0.22328212254261       -2.84048893982835
C           99.54520890622507        0.26514610833156       -3.49407708963402
C           98.59812025639620        0.21265977149389       -2.52329380569388
N          100.62974863994887        0.13468311919871       -1.48820182105941
C           99.28749639987778        0.13077456920554       -1.26897447187583
C           98.65537171012069        0.04511866271517       -0.01239293439958
C           99.30732051304925       -0.06155634198982        1.23233835720959
C           98.63803728506680       -0.17343752634469        2.49515679320707
C           99.60046874933286       -0.26389901824352        3.44787611565353
C          100.86921862729518       -0.20052187227333        2.77563202529267
C          102.11947198544094       -0.27996962609336        3.39931075079001
C          102.13376147360846       -0.37727346746734        4.87913601596047
C          102.68162998553829       -1.49724452406948        5.51061846808149
C          102.69665028881869       -1.58382683897920        6.89041390300394
C          102.16819320305437       -0.55016738800591        7.66627830040080
C          102.21183788383912       -0.68642589140820        9.14126345542016
O          101.67429999682173        0.35599998620841        9.79347161346497
O          102.67898641297968       -1.63192047659755        9.72420498109439
C          101.62061751872146        0.57072375996272        7.04120428272565
C          101.60272880326092        0.65276961924296        5.65993875162641
C          103.35974960193433       -0.27398151043401        2.74859430486956
C          104.64461354151766       -0.31165554575080        3.39641569781578
C          105.58620760393630       -0.27264606118335        2.42113060699086
C          104.88981087135484       -0.19988446613964        1.16709948820650
N          103.54413152126487       -0.19829700394492        1.39942425532313
N          100.65298425184241       -0.08561585048671        1.42871410919404
C          102.05453305773105        0.35355244600279       -4.96736571781857
C          102.57992114124427       -0.66711366501108       -5.76446580781941
C          102.57001558153645       -0.55282256937504       -7.14228481852703
C          102.03970976557460        0.58697780590317       -7.75014585719286
C          102.05610429838941        0.66568695380192       -9.22981801133151
O          101.52196246304922        1.79780644217029       -9.71370439907516
O          102.49869534770390       -0.19101856055267       -9.95262026180327
C          101.51550781075132        1.60994504101312       -6.95911675227848
C          101.52169593039537        1.49050406065250       -5.58047286562431
H          106.58364206693038       -0.14040790826104       -0.08968658684031
H          106.61726151416545        0.09550709702399       -2.70361544776892
H          104.72855317770853        0.31238249733913       -4.59506148194462
H           99.39270598399291        0.31359758191532       -4.56022541156617
H           97.52602256932438        0.22145176744243       -2.63892129803596
H           97.56788291094728       -0.18708990088029        2.62727737344027
H           99.46487007673744       -0.37811636366004        4.51126865726335
H          103.08098843006719       -2.30682764678435        4.91028001216609
H          103.11622996612432       -2.45229126830086        7.38625626790292
H          101.74195565717147        0.18908716736086       10.74754014328445
H          101.21225642552689        1.37690379018533        7.63911540238394
H          101.18935181743656        1.52995309876338        5.17494146641588
H          104.80196364927717       -0.34977224279992        4.46239052682851
H          106.65939954900595       -0.28356593796709        2.52966701420115
H          102.98105823411952       -1.55825415867761       -5.29516272445702
H          102.97129510433642       -1.34366685911521       -7.76652482335244
H          101.57033133873567        1.77012791431414      -10.68300118208059
H          101.10610836877672        2.49789171523329       -7.42621133819211
H          101.12568979175774        2.29100535796707       -4.96574760314490
C           51.06253837668453        0.03543031208024       -0.04021651413526
C           52.28697979120343        0.03765680815350       -0.04472199600412
C           53.63027511537241        0.03682792939369       -0.04809862835185
C           54.86075367312677        0.03084293135350       -0.04861452807158
C           56.19922128677228        0.02257561521655       -0.05033576657047
C           57.42975159360191        0.01445907202823       -0.04680791209350
C           58.77281702953790        0.00917976664058       -0.04277512259424
C           59.99744711446746        0.00629800470959       -0.04123225109603
C           69.68911862635389        0.03480248239100       -0.01613068072919
C           70.91425396774059        0.03410775008654       -0.01449989630666
C           72.25631086903974        0.03273345385584       -0.01224578243477
C           73.48743487916036        0.02873144852860       -0.00982787326541
C           74.82479020901155        0.02480492543627       -0.00870051421663
C           76.05591450837052        0.02127222297370       -0.00811964941686
C           77.39796225446563        0.01902236701690       -0.00843411425112
C           78.62309656542352        0.01808494049948       -0.00722117280973
C           88.31459464993665        0.03635550379721       -0.00370796957140
C           89.53922050877794        0.04317732203123        0.00001700648628
C           90.88226330940691        0.04933878246021        0.00311696769428
C           92.11279832640133        0.05631062063293        0.00682536886482
C           93.45124190200821        0.06096083838473        0.00833148991247
C           94.68173587089736        0.06342347175179        0.00728426320377
C           96.02498588229949        0.06068107311516        0.00374958627805
C           97.24941635218464        0.05490418714776       -0.00104874268952
Zn          64.84378226499591        0.02007135186492       -0.02474540012674
C           61.40280470734427        0.00892361370437       -0.03659412220636
C           62.05046233208193       -1.24227142436684        0.00068043775258
C           61.37737934031212       -2.50743480164568        0.00252591280726
C           62.33655404904530       -3.46701409161207        0.04955494644095
C           63.60543339436320       -2.79481599836339        0.08627037483711
N           63.39494540367355       -1.44287424270654        0.04511378394890
C           64.85415333606544       -3.42506378234169        0.13030092110320
C           66.09866062444058       -2.78562924481462        0.11676228220350
C           67.37157008179874       -3.44381251750929        0.21477954875393
C           68.32488441947555       -2.47810602509788        0.17322250392575
N           66.30122736066031       -1.43411765223572        0.03356236039667
C           67.64409266785934       -1.22234050609621        0.05926399943049
C           68.28494263146086        0.03123173723486       -0.01846181982268
C           67.63670888839650        1.28076273609781       -0.09835366586155
C           68.31007770479644        2.54091469088141       -0.20790568182093
C           67.35090013407749        3.50065833725733       -0.25279811869776
C           66.08173474646617        2.83429177596103       -0.16164394563753
C           64.83315413478979        3.46552628793771       -0.18122389477427
C           64.82778159045515        4.94765507561072       -0.24606141267065
C           65.39493192748485        5.70286592296617        0.78392929201883
C           65.38453347804369        7.08415436586559        0.72433953683111
C           64.81189374638193        7.73699401739347       -0.36903110314584
C           64.82664776556734        9.21891308023639       -0.38856388309651
O           64.24959612736443        9.74768082570695       -1.47861516423216
O           65.30289865957405        9.90642966201243        0.47879415466861
C           64.24736544906013        6.98773503642956       -1.40187235273127
C           64.25418203529709        5.60539151347864       -1.33720616626238
C           63.58836962441148        2.82691129869389       -0.14430838539768
C           62.31501747974364        3.49076079003878       -0.11317651546482
C           61.36183429854941        2.52489044182014       -0.07311598556586
C           62.04307778829881        1.26417598194060       -0.06944514285457
N           63.38639413279235        1.47358203770503       -0.10656381000137
N           66.29237468775834        1.48397280136723       -0.07926099313083
C           64.85941003307148       -4.90720035765612        0.19689385215557
C           64.28891859604074       -5.56901386605406        1.28743712910429
C           64.29822465451002       -6.95028115944866        1.34869123075384
C           64.87322037342516       -7.69649408446527        0.31812212904947
C           64.85658434302819       -9.17460410262334        0.42761715943934
O           65.43525234668681       -9.79664222078792       -0.61098177988668
O           64.37490055550460       -9.78340201510108        1.34905710838586
C           65.44161383450022       -7.04076877358515       -0.77444996852535
C           65.43594573577198       -5.65805410014281       -0.83073087837862
H           60.30754670657371       -2.63723115572962       -0.03477120998551
H           62.19861698469566       -4.53618770651389        0.04753334140053
H           67.51606010959242       -4.50735217484594        0.31562028612421
H           69.39542041727074       -2.59770119322155        0.22233748044779
H           69.38009866142799        2.66715760204563       -0.25149914106604
H           67.48909266526549        4.56524981418368       -0.35131003316570
H           65.82901375649537        5.19797251982450        1.63946396798085
H           65.81764390570790        7.67621293026985        1.52309209885400
H           64.29982973166639       10.71515605547262       -1.41378582468881
H           63.80530347906321        7.49008735441283       -2.25416324761562
H           63.82588694301550        5.02315072142852       -2.14535092379792
H           62.16978894631401        4.55896623184557       -0.10927942545175
H           60.29104282563288        2.64799839226238       -0.04121285423651
H           63.85282832475107       -4.99102582938091        2.09431771562129
H           63.86264825265745       -7.47009245016540        2.19497713550307
H           65.38244233427343      -10.75484948870101       -0.46338031585274
H           65.88575016315349       -7.61588120457707       -1.57829141986182
H           65.86723437621050       -5.14876623645796       -1.68522314899930
Zn          83.46833145510199        0.02605857357964       -0.00767815819863
C           80.02727405294800        0.01964099949969       -0.00748842332283
C           80.67407174053922       -1.23273304111549        0.02742488778206
C           79.99928302224147       -2.49690967884195        0.03028066222017
C           80.95731810275015       -3.45786649738226        0.07315544406629
C           82.22718824929528       -2.78744751457977        0.10683155350833
N           82.01808160139723       -1.43489900943627        0.06752899722568
C           83.47497330690300       -3.41920101563324        0.14750638638499
C           84.72045405467006       -2.78109987539281        0.13316632071850
C           85.99261535204842       -3.44086355978261        0.23051872961196
C           86.94705354274143       -2.47625118240678        0.18910966857345
N           84.92425966969283       -1.43012411072485        0.05002305234155
C           86.26771926604310       -1.21965956134364        0.07495278176522
C           86.90928031331792        0.03264346264654       -0.00638300620465
C           86.26286563247189        1.28225685244677       -0.09117814500373
C           86.93763897952419        2.54102785100036       -0.20842214898842
C           85.97966353702184        3.50180597617221       -0.25530031323277
C           84.70986983272905        2.83767864314065       -0.15698987327151
C           83.46201323023868        3.47108324834943       -0.17331345080740
C           83.45975476561253        4.95294726013420       -0.24342019326690
C           84.03510404074028        5.71040541583268        0.78036825993983
C           84.03043887329380        7.09143857493877        0.71447101988630
C           83.45511822855372        7.74174732357883       -0.37898188949194
C           83.47780769667054        9.22350962823408       -0.40627590092437
O           82.89848770265638        9.74960966841126       -1.49629813092888
O           83.96372379603194        9.91274240673653        0.45431352234161
C           82.88136013093779        6.99026332605443       -1.40508136705132
C           82.88257963269238        5.60820150968419       -1.33416133125698
C           82.21667470788486        2.83466350111504       -0.12882165705590
C           80.94445479265494        3.50043529551920       -0.09306603894241
C           79.99007189124595        2.53598941738208       -0.04645634945698
C           80.66953550488941        1.27436004437406       -0.04373220786711
N           82.01268649193010        1.48144999113896       -0.08724653786067
N           84.91859247353796        1.48767514361748       -0.06944533041672
C           83.47813483636313       -4.90148821023920        0.21115796371136
C           82.90864701088286       -5.56463607269676        1.30141911671789
C           82.91433875534439       -6.94606927403198        1.35905540136280
C           83.48445394378427       -7.69113667569159        0.32494837997882
C           83.46333061865535       -9.16942656508459        0.43039226245192
O           84.03724332650620       -9.79060044365896       -0.61142487046986
O           82.98327660528048       -9.77923850768491        1.35203140200997
C           84.05218071382556       -7.03406099228973       -0.76717303373489
C           84.05035144364200       -5.65117635295181       -0.81971516290883
H           78.92917797200688       -2.62535555465225       -0.00360955200331
H           80.81791464526303       -4.52684063608084        0.07032439212671
H           86.13579845280253       -4.50464572841373        0.33085377942798
H           88.01750675244604       -2.59689110655230        0.23786360501532
H           88.00766612043957        2.66571397526748       -0.25577679161850
H           86.11926994315473        4.56565555265838       -0.35962757251672
H           84.47160227986592        5.20756612939711        1.63589029161870
H           84.47032703288335        7.68523989445720        1.50820891602898
H           82.95466543984023       10.71713957508945       -1.43742770109513
H           82.43682838088218        7.49058395776584       -2.25727770942923
H           82.44756765917727        5.02414690664344       -2.13739123680824
H           80.80102800812526        4.56889062161284       -0.09070294812620
H           78.91960957475195        2.66068158680636       -0.00964125882525
H           82.47599164037976       -4.98757443021493        2.11079619558950
H           82.47918623585521       -7.46688506747067        2.20493952821940
H           83.98221304000697      -10.74898856716577       -0.46577308446127
H           84.49251649500133       -7.60829329825912       -1.57373345600110
H           84.48108123141428       -5.14086084179648       -1.67387909501612
