248
 energy: -437.876839678858 gnorm: 2.744192845441 xtb: 6.5.1 (b24c23e)
Zn          46.05902700000000       -0.36179700000000       -0.24523300000000
C           42.67332100000000       -0.21947300000000       -0.19735700000000
C           43.33881600000000        0.57032900000000        0.65016400000000
C           42.69121100000000        1.45585800000000        1.61089800000000
C           43.63572300000000        2.10383300000000        2.26758600000000
C           44.94024500000000        1.66526900000000        1.75219900000000
N           44.75860000000000        0.68775300000000        0.72754000000000
C           46.13361700000000        2.13869800000000        2.15846700000000
C           46.17502900000000        3.15257500000000        3.18867500000000
C           46.21205800000000        3.99779300000000        4.04741600000000
C           46.25696800000000        5.00610600000000        5.07219700000000
C           47.46256100000000        5.65126600000000        5.37147500000000
C           47.48441199999999        6.62784500000000        6.37082200000000
N           46.34336600000000        6.94305900000000        7.04167500000000
C           45.16085500000000        6.32853700000000        6.76721000000000
C           45.09542800000000        5.34652700000000        5.77514900000000
C           47.42851799999999        1.68377100000000        1.59269400000000
C           48.71983299999999        2.30348200000000        1.91361600000000
C           49.65618200000000        1.64141900000000        1.26566300000000
N           47.56893300000000        0.67986500000000        0.78122100000000
C           48.97074599999999        0.58834000000000        0.52529800000000
C           49.56677900000000       -0.34975100000000       -0.23019100000000
C           48.80979100000000       -1.39699200000000       -0.95634300000000
C           49.36267299999999       -2.47786800000000       -1.49307700000000
C           48.31622600000000       -3.20008300000000       -2.18821400000000
C           47.18964900000000       -2.51420900000000       -2.03090800000000
N           47.41139800000000       -1.34159100000000       -1.24389600000000
C           45.89218300000000       -2.88529300000000       -2.65006200000000
C           45.88548700000000       -3.89551000000000       -3.68629100000000
C           45.88034999999999       -4.73724600000000       -4.54931700000000
C           45.87405100000000       -5.74158700000000       -5.57901800000000
C           47.06712800000000       -6.36582300000000       -5.95965400000000
C           47.03926200000000       -7.33844000000000       -6.96275500000000
N           45.86234100000000       -7.67035400000000       -7.55856300000000
C           44.69099199999999       -7.07662500000000       -7.20409800000000
C           44.67485700000000       -6.09901900000000       -6.20550600000000
C           44.72912000000000       -2.32272100000000       -2.27891200000000
C           43.40942799999999       -2.63921700000000       -2.82304500000000
C           42.54728000000000       -1.91147700000000       -2.13992000000000
C           43.30673800000000       -1.12822500000000       -1.16631800000000
N           44.57970699999999       -1.36081300000000       -1.23722300000000
H           41.58987700000000       -0.19589200000000       -0.17828700000000
H           41.62686200000000        1.57471200000000        1.76832500000000
H           43.45332699999999        2.83556500000000        3.04421100000000
H           48.37329200000000        5.40241900000000        4.83899100000000
H           48.40896100000000        7.13525600000000        6.61319100000000
H           44.27118600000000        6.60229700000000        7.31910300000000
H           44.15189700000000        4.85915300000000        5.55882400000000
H           48.89450500000000        3.15160700000000        2.56278700000000
H           50.71539000000000        1.85842100000000        1.30169800000000
H           50.40448799999999       -2.76497700000000       -1.44730800000000
H           48.44191099999999       -4.11633900000000       -2.75053500000000
H           48.00625300000000       -6.10392800000000       -5.48702200000000
H           47.95380600000000       -7.82957500000000       -7.26756800000000
H           43.77181700000000       -7.36333400000000       -7.69741300000000
H           43.74000100000000       -5.62815000000000       -5.92567800000000
H           43.16210899999999       -3.33293300000000       -3.61634400000000
H           41.47458000000000       -1.90805800000000       -2.28212300000000
Zn          91.26729800000000       -0.33065900000000       -0.22757600000000
C           94.65300400000000       -0.44480800000000       -0.32513600000000
C           93.98750899999999       -1.57758100000000       -0.56783700000000
C           94.63511400000000       -2.85665400000000       -0.83456900000000
C           93.69060200000000       -3.75285000000000       -1.05352400000000
C           92.38608000000001       -3.08541700000000       -0.94174100000000
N           92.56772500000000       -1.70426400000000       -0.62888500000000
C           91.19270800000000       -3.67710600000000       -1.13946200000000
C           91.15129499999999       -5.08168800000000       -1.48067400000000
C           91.11426599999999       -6.25253800000000       -1.76517100000000
C           91.06935700000000       -7.64960600000000       -2.10439300000000
C           89.86376400000000       -8.23763900000000       -2.50441300000000
C           89.84191299999999       -9.59658900000000       -2.82945900000000
N           90.98295899999999      -10.33411600000000       -2.75557600000000
C           92.16546900000000       -9.78310500000000       -2.36911100000000
C           92.23089700000000       -8.42762000000000       -2.03566400000000
C           89.89780700000000       -2.95803300000000       -1.03950200000000
C           88.60649200000000       -3.55157500000000       -1.40657200000000
C           87.67014200000000       -2.65564200000000       -1.17104300000000
N           89.75739200000000       -1.74628200000000       -0.59455800000000
C           88.35557900000001       -1.47967000000000       -0.64739500000000
C           87.75954600000000       -0.34975100000000       -0.23019100000000
C           88.51653399999998        0.81102700000000        0.29574300000000
C           87.96365200000000        1.82651800000000        0.94778200000000
C           89.01009900000000        2.79382300000000        1.21071000000000
C           90.13667500000000        2.30672500000000        0.70286700000000
N           89.91492700000001        1.02935600000000        0.10058000000000
C           91.43414100000000        3.02856600000000        0.70347000000000
C           91.44083800000000        4.43643600000000        1.03845000000000
C           91.44597500000000        5.60917600000000        1.31775900000000
C           91.45227300000001        7.00842700000000        1.65104800000000
C           90.25919700000000        7.65553800000000        1.99134500000000
C           90.28706300000000        9.01567600000000        2.31106300000000
N           91.46398400000000        9.69737400000000        2.29003800000000
C           92.63533200000001        9.08838400000000        1.96248500000000
C           92.65146799999999        7.72955500000000        1.63617000000000
C           92.59720500000000        2.42125200000000        0.41122100000000
C           93.91689700000001        3.05068900000000        0.40349200000000
C           94.77904399999998        2.09085700000000        0.12965700000000
C           94.01958699999999        0.85324600000000       -0.04269800000000
N           92.74661700000000        1.03349700000000        0.12050200000000
H           95.73644799999998       -0.47327900000000       -0.33558300000000
H           95.69946299999999       -3.05276800000000       -0.85574900000000
H           93.87299799999998       -4.79497200000000       -1.28278700000000
H           88.95303300000000       -7.65292800000000       -2.56421700000000
H           88.91736399999999      -10.06506900000000       -3.14048200000000
H           93.05513899999998      -10.39726300000000       -2.32072300000000
H           93.17442699999999       -7.99177600000000       -1.72846600000000
H           88.43182000000000       -4.54407100000000       -1.80114900000000
H           86.61093500000000       -2.79796700000000       -1.33876900000000
H           86.92183699999998        1.93463000000000        1.21766700000000
H           88.88441399999999        3.74676100000000        1.70834100000000
H           89.32007200000000        7.11549100000000        2.00922600000000
H           89.37251900000000        9.52938800000000        2.57606200000000
H           93.55450799999998        9.65891900000000        1.95528200000000
H           93.58632400000000        7.24768700000000        1.37573600000000
H           94.16421599999998        4.08760400000000        0.59157000000000
H           95.85174499999999        2.21113500000000        0.05372000000000
C           54.89899100000000       -0.34843900000000       -0.22175900000000
C           53.69005200000000       -0.36189400000000       -0.23020600000000
C           52.26852300000000       -0.35307500000000       -0.24218900000000
C           51.05685300000000       -0.34563600000000       -0.23132600000000
C           56.31559499999999       -0.35511400000000       -0.22122600000000
C           57.53629100000000       -0.34563600000000       -0.23132600000000
C           69.26708300000000       -0.34843900000000       -0.22175900000000
C           68.05814300000000       -0.36189400000000       -0.23020600000000
C           66.63661399999999       -0.35307500000000       -0.24218900000000
C           65.42494499999999       -0.34563600000000       -0.23132600000000
C           70.68368700000001       -0.35511400000000       -0.22122600000000
C           71.90438300000000       -0.34563600000000       -0.23132600000000
C           83.63517400000001       -0.34843900000000       -0.22175900000000
C           82.42623500000001       -0.36189400000000       -0.23020600000000
C           81.00470599999998       -0.35307500000000       -0.24218900000000
C           79.79303600000000       -0.34563600000000       -0.23132600000000
C           85.05177800000000       -0.35511400000000       -0.22122600000000
C           86.27247400000000       -0.34563600000000       -0.23132600000000
Zn          61.54462800000000        0.28338600000000        0.26962100000000
C           58.06301500000000        0.41046100000000        0.27075500000000
C           58.71816100000000        0.96064500000000       -0.76521200000000
C           58.06506400000000        1.52099000000000       -1.94545600000000
C           58.99276100000000        1.79133000000000       -2.83767300000000
C           60.30001700000000        1.47612700000000       -2.25681100000000
N           60.13488499999999        0.93550100000000       -0.94891900000000
C           61.47972599999999        1.66273900000000       -2.87777500000000
C           61.48661500000000        2.06011600000000       -4.26697500000000
C           61.48142700000000        2.34614800000000       -5.44011300000000
C           61.46291699999999        2.64903200000000       -6.84402500000000
C           62.40745200000000        2.07292400000000       -7.69850000000000
C           62.35941100000000        2.36322200000000       -9.06481200000000
N           61.39700700000000        3.19208200000000       -9.55186100000000
C           60.46107300000000        3.75243000000000       -8.73884700000000
C           60.47805999999999        3.49504900000000       -7.36617200000000
C           62.79159100000000        1.45656600000000       -2.21867400000000
C           64.06317900000001        1.94135600000000       -2.76312300000000
C           65.01441699999999        1.61716000000000       -1.91062200000000
N           62.95774899999999        0.85657500000000       -1.08553900000000
C           64.35738600000001        0.91415700000000       -0.81868800000000
C           64.96281000000000        0.41046100000000        0.27075500000000
C           64.23622899999999       -0.35835900000000        1.30763300000000
C           64.82647700000000       -0.99666800000000        2.31484400000000
C           63.80079200000000       -1.73021700000000        3.03174700000000
C           62.64811600000000       -1.49027200000000        2.41853600000000
N           62.83187800000000       -0.61036100000000        1.30649400000000
C           61.34937400000000       -2.08410500000000        2.82461000000000
C           61.37018200000000       -3.28199800000000        3.63268200000000
C           61.40385199999999       -4.31978400000000        4.24549400000000
C           61.46776700000000       -5.59647000000000        4.90028300000000
C           60.29815799999999       -6.23015000000000        5.32720400000000
C           60.36442300000000       -7.55378400000000        5.76465300000000
N           61.55685700000000       -8.20562000000000        5.79073400000000
C           62.71082599999999       -7.59815000000000        5.41828400000000
C           62.68823900000000       -6.28038500000000        4.96865300000000
C           60.16909900000000       -1.59468400000000        2.40930200000000
C           58.85463699999999       -2.07921600000000        2.82025200000000
C           57.97367200000000       -1.35746300000000        2.15665800000000
C           58.71402100000000       -0.42407900000000        1.30184400000000
N           59.99878499999999       -0.55689100000000        1.44452900000000
H           57.01142900000000        1.68483700000000       -2.09065000000000
H           58.80561200000000        2.22495600000000       -3.80263000000000
H           63.16945200000000        1.40633800000000       -7.31684100000000
H           63.09158499999999        1.93544900000000       -9.73357800000000
H           59.70564500000000        4.39996200000000       -9.15907300000000
H           59.72508700000000        3.93607500000000       -6.72697800000000
H           64.21236300000000        2.48068600000000       -3.68708400000000
H           66.06331100000000        1.83826200000000       -2.03280800000000
H           65.88339600000000       -1.01738700000000        2.54539900000000
H           63.95738100000000       -2.37053300000000        3.89691200000000
H           59.33865700000000       -5.72368000000000        5.26066400000000
H           59.46161900000000       -8.07398600000000        6.05184100000000
H           63.63979500000000       -8.14657500000000        5.43671600000000
H           63.60233399999999       -5.81634800000000        4.62273400000000
H           58.62003000000000       -2.86650600000000        3.52563800000000
H           56.89823500000000       -1.46391800000000        2.23468800000000
Zn          75.91271999999999        0.28338600000000        0.26962100000000
C           72.43110700000000        0.41046100000000        0.27075500000000
C           73.08625200000000        0.96064500000000       -0.76521200000000
C           72.43315500000000        1.52099000000000       -1.94545600000000
C           73.36085300000001        1.79133000000000       -2.83767300000000
C           74.66810800000000        1.47612700000000       -2.25681100000000
N           74.50297600000000        0.93550100000000       -0.94891900000000
C           75.84781800000000        1.66273900000000       -2.87777500000000
C           75.85470599999999        2.06011600000000       -4.26697500000000
C           75.84951900000000        2.34614800000000       -5.44011300000000
C           75.83100899999998        2.64903200000000       -6.84402500000000
C           76.77554400000000        2.07292400000000       -7.69850000000000
C           76.72750200000000        2.36322200000000       -9.06481200000000
N           75.76509799999999        3.19208200000000       -9.55186100000000
C           74.82916499999999        3.75243000000000       -8.73884700000000
C           74.84615200000000        3.49504900000000       -7.36617200000000
C           77.15968299999999        1.45656600000000       -2.21867400000000
C           78.43127000000000        1.94135600000000       -2.76312300000000
C           79.38250900000000        1.61716000000000       -1.91062200000000
N           77.32584100000000        0.85657500000000       -1.08553900000000
C           78.72547799999998        0.91415700000000       -0.81868800000000
C           79.33090199999998        0.41046100000000        0.27075500000000
C           78.60432100000000       -0.35835900000000        1.30763300000000
C           79.19456900000000       -0.99666800000000        2.31484400000000
C           78.16888299999999       -1.73021700000000        3.03174700000000
C           77.01620800000001       -1.49027200000000        2.41853600000000
N           77.19996900000000       -0.61036100000000        1.30649400000000
C           75.71746600000000       -2.08410500000000        2.82461000000000
C           75.73827300000001       -3.28199800000000        3.63268200000000
C           75.77194299999998       -4.31978400000000        4.24549400000000
C           75.83585900000000       -5.59647000000000        4.90028300000000
C           74.66624999999999       -6.23015000000000        5.32720400000000
C           74.73251500000001       -7.55378400000000        5.76465300000000
N           75.92494900000000       -8.20562000000000        5.79073400000000
C           77.07891699999999       -7.59815000000000        5.41828400000000
C           77.05633000000000       -6.28038500000000        4.96865300000000
C           74.53719100000001       -1.59468400000000        2.40930200000000
C           73.22272900000000       -2.07921600000000        2.82025200000000
C           72.34176400000000       -1.35746300000000        2.15665800000000
C           73.08211200000000       -0.42407900000000        1.30184400000000
N           74.36687699999999       -0.55689100000000        1.44452900000000
H           71.37952000000000        1.68483700000000       -2.09065000000000
H           73.17370399999999        2.22495600000000       -3.80263000000000
H           77.53754400000000        1.40633800000000       -7.31684100000000
H           77.45967699999999        1.93544900000000       -9.73357800000000
H           74.07373699999999        4.39996200000000       -9.15907300000000
H           74.09317799999999        3.93607500000000       -6.72697800000000
H           78.58045400000000        2.48068600000000       -3.68708400000000
H           80.43140200000001        1.83826200000000       -2.03280800000000
H           80.25148799999999       -1.01738700000000        2.54539900000000
H           78.32547300000000       -2.37053300000000        3.89691200000000
H           73.70674800000000       -5.72368000000000        5.26066400000000
H           73.82971100000000       -8.07398600000000        6.05184100000000
H           78.00788700000000       -8.14657500000000        5.43671600000000
H           77.97042600000000       -5.81634800000000        4.62273400000000
H           72.98812200000000       -2.86650600000000        3.52563800000000
H           71.26632600000001       -1.46391800000000        2.23468800000000
248
 energy: -438.878981132462 gnorm: 0.855089032664 xtb: 6.5.1 (b24c23e)
Zn          46.05997387438232       -0.36163343757033       -0.24517442766803
C           42.67398915729228       -0.22591013212321       -0.20435472541305
C           43.34366372372280        0.57191918324927        0.65179751806918
C           42.68994619202279        1.45352192468904        1.60842611694437
C           43.64024790686074        2.10503441483231        2.26863912451021
C           44.93635063765471        1.66162097712172        1.74881716070682
N           44.74902553235663        0.69482827066328        0.73553098164911
C           46.14251465968314        2.14074521868655        2.15983279110869
C           46.17618820270103        3.14951768450799        3.18512461375554
C           46.21211045036714        3.99965101376293        4.04935422376244
C           46.25683811042447        5.00438317658689        5.07047152609007
C           47.46177941162522        5.65227963168631        5.37280690643884
C           47.47731174539584        6.62532299557834        6.37038185494599
N           46.34334354783514        6.94242326711071        7.04102810290143
C           45.16781012761659        6.32784389068180        6.76437616275111
C           45.09629750067671        5.34782888322298        5.77616057660024
C           47.42497066783483        1.69050838722418        1.59925865783466
C           48.71365136437271        2.30705016291303        1.91747276759100
C           49.65698125075091        1.63819162561177        1.26317034457202
N           47.57528955428204        0.67988175437508        0.77912722297426
C           48.96957950240682        0.59085543600883        0.52718616601445
C           49.57083431076892       -0.35556094770283       -0.23335808764987
C           48.80537168639526       -1.38797329702549       -0.95368249822375
C           49.36327321289919       -2.48847007894894       -1.50033438554617
C           48.32849988055632       -3.20227466792711       -2.18740262491430
C           47.18182989393213       -2.50706263186402       -2.02953023904797
N           47.41635888648403       -1.34670023320067       -1.24526093400515
C           45.89966391226038       -2.88572727492855       -2.64986389477323
C           45.88716156010806       -3.89226535802111       -3.68208222021324
C           45.88044873154128       -4.73877408228072       -4.55096089818066
C           45.87399103570849       -5.73993546706739       -5.57738077858256
C           47.06630055297770       -6.36683075606221       -5.96087430205866
C           47.03221106599510       -7.33608188580656       -6.96185496121462
N           45.86234313951909       -7.66966190670061       -7.55785239430229
C           44.69806268430087       -7.07583975083270       -7.20175555105436
C           44.67566408560743       -6.10024453866820       -6.20657435724144
C           44.72588961484190       -2.32138251370012       -2.27814583385584
C           43.41371986137005       -2.64034386837431       -2.82356976817384
C           42.54282922170177       -1.90745729908296       -2.13592146947076
C           43.29676169787616       -1.12437225208936       -1.16250667837085
N           44.58082380421283       -1.36522409213344       -1.24274971348785
H           41.59007835140374       -0.19661386312459       -0.17925852136255
H           41.62685687715489        1.57328112409147        1.76683918411504
H           43.45582223949528        2.83567591654643        3.04428724283898
H           48.37287316589047        5.40242354487462        4.83912355474900
H           48.40672064481380        7.13547343577044        6.61409000868855
H           44.27347234207304        6.60309153630352        7.31923351790955
H           44.15229949378523        4.85925534174733        5.55881242562785
H           48.89250122589775        3.15217883826655        2.56352380849462
H           50.71517119648233        1.85656233682701        1.30016553757027
H           50.40447799162712       -2.76600563517218       -1.44776054178941
H           48.44299877183774       -4.11651587918473       -2.75015482050552
H           48.00588694181953       -6.10392480499814       -5.48710271470333
H           47.95155409638183       -7.82983344714686       -7.26832323248568
H           43.77405347040339       -7.36409511956696       -7.69770902629101
H           43.74035922756103       -5.62822659335309       -5.92568528053391
H           43.16450438592645       -3.33295545492590       -3.61614984410897
H           41.47389468374858       -1.90682872600340       -2.28089527449108
Zn          91.26636336927433       -0.33080809214253       -0.22768956957305
C           94.65234172559965       -0.43547488773132       -0.32319942230973
C           93.98264622300049       -1.57981223881747       -0.56836505274512
C           94.63637889499053       -2.85332609904966       -0.83383177318172
C           93.68606432507707       -3.75437345477229       -1.05401343355844
C           92.38997382891543       -3.08067034530955       -0.94035253175687
N           92.57731421923411       -1.71473238847178       -0.63084938118323
C           91.18381386122476       -3.67932254906148       -1.14052732069836
C           91.15013630355867       -5.07707411029002       -1.47987189870744
C           91.11421397892494       -6.25515244310105       -1.76576973322155
C           91.06948575513100       -7.64724589284452       -2.10380211200196
C           89.86454596313099       -8.23930050393646       -2.50459877799101
C           89.84901232685989       -9.59491917423903       -2.82752131822988
N           90.98298242573021      -10.33323059036306       -2.75536196497648
C           92.15851308359140       -9.78031910049516       -2.36997141971120
C           92.23002720070667       -8.42915465090798       -2.03626162554962
C           89.90132557023057       -2.96718519109550       -1.04194661348283
C           88.61274250018599       -3.55674293214688       -1.40764708510761
C           87.66933671719291       -2.65179587486467       -1.16953882140453
N           89.75094761013686       -1.74442193146147       -0.59560373165077
C           88.35671193119529       -1.48275538602732       -0.64857417047778
C           87.75499245408533       -0.34397046311340       -0.22678510148333
C           88.52097924517683        0.80423141626500        0.28934957347623
C           87.96305160875865        1.83815404360319        0.95314328904562
C           88.99787381177724        2.79426448819930        1.21300370010539
C           90.14446492466740        2.30188389603668        0.69745745879905
N           89.90993031247399        1.03315365282184        0.10424430925676
C           91.42668941783695        3.02862468817702        0.70394715710965
C           91.43916362242487        4.43115406441910        1.03782244152328
C           91.44587605197228        5.61137489238433        1.31822698361365
C           91.45233496378098        7.00616696421722        1.65046982890751
C           90.26002446698807        7.65710559720043        1.99158412192147
C           90.29411497994569        9.01368995372208        2.30950072002664
N           91.46398061891186        9.69641387744455        2.28981001962909
C           92.62826266592141        9.08596844864403        1.96301305174377
C           92.65066114796224        7.73110314474745        1.63667375692088
C           92.60042372988467        2.41991463851927        0.41047176193023
C           93.91261452424706        3.05171888481606        0.40418803346101
C           94.78349366232138        2.08537041993209        0.12826254051793
C           94.02956515602908        0.84797935679668       -0.04405081724029
N           92.74549155663640        1.04049724617267        0.12144745373581
H           95.73624732665260       -0.47207252545587       -0.33546261795326
H           95.69946785737702       -3.05075697950028       -0.85528390696571
H           93.87050206319195       -4.79509409925209       -1.28284315082088
H           88.95345233513740       -7.65304429986878       -2.56415282612890
H           88.91960501561076      -10.06595177781587       -3.14020686131961
H           93.05285261395026      -10.39778263892506       -2.32133787472054
H           93.17402501843189       -7.99181822654574       -1.72855963157772
H           88.43382612042234       -4.54499648988206       -1.80126167311830
H           86.61115015369987       -2.79569041183406       -1.33796468734893
H           86.92183898484136        1.93554058298139        1.21832033917512
H           88.88332763403132        3.74652737523058        1.70868903513911
H           89.32043727148250        7.11555828393745        2.00918205096115
H           89.37477008191335        9.53016929804159        2.57589646364686
H           93.55227131995009        9.65956392047282        1.95578334294493
H           93.58596500297277        7.24773305394188        1.37579832241101
H           94.16182169518220        4.08744999393823        0.59168901562566
H           95.85243023724384        2.20945152112185        0.05329573218620
C           54.90451718244488       -0.35206235997787       -0.22510325312810
C           53.67702978137970       -0.36136450105658       -0.22990721278570
C           52.27492765499889       -0.35269901296424       -0.24185196335349
C           51.04950784793332       -0.34785996155966       -0.23321228652176
C           56.26421762009805       -0.37078271569331       -0.22993338482956
C           57.47470476496815       -0.40666086362733       -0.26997298100041
C           69.28273296775693       -0.35145401970314       -0.22456427777929
C           68.04225703304392       -0.36389070397323       -0.23051761611262
C           66.69756409475457       -0.37020463335018       -0.25559814434134
C           65.48152162999506       -0.41982533331345       -0.27768217351212
C           70.62723777117343       -0.37189308239384       -0.23126756604141
C           71.84519250047228       -0.40487814676416       -0.26927036988126
C           83.64866224822607       -0.34826887438472       -0.22153889780671
C           82.41978725725289       -0.36412298790142       -0.23144480522561
C           81.06055294805911       -0.36923035189176       -0.25490107962317
C           79.85011709778470       -0.42166303444119       -0.27793401929913
C           85.04748847526736       -0.35440172816376       -0.22102211628211
C           86.27781812383215       -0.34318954107167       -0.23040828427210