396
 energy: -603.118681861071 gnorm: 0.000523192192 xtb: 6.5.1 (b24c23e)
C           57.96545784316807       -0.13282021862200       -0.01483488201218
C           58.58106233013596       -1.37721964764303       -0.05596724933785
C           57.94681733770096       -2.65095196753959       -0.09991093389190
C           58.92350169447681       -3.60645821035884       -0.12897218859074
C           60.18551701141087       -2.94648360140129       -0.10323312622138
N           59.92825803097340       -1.60571096549933       -0.06010626138144
C           61.44937374141895       -3.54144485757365       -0.11656835269259
C           61.47459798003941       -5.03325996819491       -0.16554510734145
C           61.49689335003206       -5.68976800850566       -1.39940675725258
C           61.50555283281507       -4.89154386199847       -2.67587293008545
C           61.51217915937528       -7.07918982840459       -1.43410093694120
C           61.50638391588732       -7.82366547538712       -0.25905744156797
C           61.50052368615363       -9.32766692120929       -0.30992714212154
C           61.48492516623450       -7.15983669974981        0.96316426041235
C           61.46929581590894       -5.77116130948755        1.02154795868927
C           61.44802580412291       -5.06042644934276        2.34859900532819
C           62.66791375274857       -2.86517243027124       -0.08958520932386
C           63.95533640567458       -3.53641669946527       -0.10110477419574
C           64.89225302171465       -2.56580369952488       -0.07095080891359
N           62.84369622524743       -1.51517258165134       -0.05187334433563
C           64.17510282827189       -1.30521668421406       -0.04178137559341
C           64.82375539058528       -0.05311955390756       -0.01590917871327
C           64.18211405253001        1.19960156487676        0.01163216798423
C           64.81016471253241        2.47342506790842        0.04244844933559
C           63.82952580094685        3.42611672261801        0.07396199612678
C           62.57168364053480        2.76117856492264        0.06308813357411
N           62.83695992312720        1.41753545627605        0.02372573325143
C           61.30910734198904        3.35592070136902        0.08937075073804
C           61.27491480068388        4.84714152459625        0.13906783947569
C           61.24905926356915        5.58517447285420       -1.04779167870661
C           61.25948069540336        4.87486174755572       -2.37517572584255
C           61.21237708788554        6.97332907945126       -0.98867703630833
C           61.20158749452078        7.63675973829468        0.23400826242223
C           61.13920168277755        9.13947011297803        0.28438231241178
C           61.22662251217471        6.89226339326059        1.40867258973118
C           61.26348309107460        5.50321362682698        1.37327444185307
C           61.28944042177738        4.70492000579842        2.64948439501960
C           60.08957111656536        2.67635387716079        0.07405393825102
C           58.79584442588858        3.34083912016247        0.10077353065089
C           57.86518478777144        2.36549574170826        0.07064561397007
C           58.59010334283185        1.10732775917439        0.02640536067765
N           59.92674786937776        1.33272689308278        0.03031243313726
H           56.88038991189082       -0.13946155885901       -0.01518644062455
H           56.87909068020938       -2.80204961119283       -0.10790210057238
H           58.79379903315625       -4.67622034675128       -0.16502354163296
H           60.63862506147891       -0.88212314741698       -0.03453764499838
H           60.61244729296065       -4.26678397163531       -2.73857975244416
H           61.53421913508087       -5.54779212429996       -3.54517562636619
H           62.37578019960579       -4.23324848822801       -2.70500460732635
H           61.53009649433217       -7.58848163975731       -2.39212390744247
H           60.47164794870760       -9.69430565405875       -0.33687579078299
H           62.01207235669822       -9.68829936054191       -1.20263183399580
H           61.98711471901129       -9.74830089277544        0.57037393032006
H           61.48155816420992       -7.73234099734017        1.88497511191512
H           60.54552881602461       -4.45266402149892        2.43862992207625
H           61.47212069079890       -5.77318578382003        3.17235652408867
H           62.30856723464624       -4.39461564370623        2.43573798433880
H           64.09357713660341       -4.60542365326878       -0.12849834600820
H           65.96602251426586       -2.66501557953143       -0.06872395445514
H           65.87697582485633        2.62924591698100        0.04122922242038
H           63.95570211872945        4.49637960011591        0.10274096960157
H           62.12927951637804        0.69072648126078        0.00837380548170
H           61.21966202572687        5.58756513545551       -3.19836884377110
H           62.16510304826623        4.27367951644776       -2.47657826492227
H           60.40271545454031        4.20283029437093       -2.45178104586677
H           61.19246056499523        7.54599526695671       -1.91018093370872
H           61.60571006563858        9.51787380249844        1.19418763901093
H           60.09735830931321        9.46831212539700        0.27465880576914
H           61.64060579176895        9.57820393111129       -0.57866661778601
H           61.21781675381023        7.40106251573601        2.36707369378153
H           61.25957509353339        5.36041842858817        3.51932123774317
H           60.43348276910851        4.02876826042311        2.69074718980134
H           62.19605473264185        4.09876502569972        2.69936632967566
H           58.65200258342610        4.40901303572228        0.13710351575448
H           56.79016238779663        2.45600528410412        0.07694237684707
C          129.18359634451323        0.09381673934558       -0.04833120484264
C          128.56556662591404        1.32913872984353       -0.19413726100039
C          129.19736175497775        2.59654132165264       -0.33921346744563
C          128.21883301650112        3.54380560512836       -0.45309852209474
C          126.95811919578716        2.88472139438666       -0.38211111865361
N          127.21793326547700        1.55293325394781       -0.22547455488730
C          125.69311791657979        3.47246537921601       -0.45942648305032
C          125.66534724488494        4.95500919112981       -0.63215529689894
C          125.67033208605832        5.50851722601078       -1.91562916461541
C          125.69324080946255        4.60864232872894       -3.12242004299219
C          125.65274673218875        6.89044388866029       -2.06404835216093
C          125.62964603346943        7.72831679875971       -0.95392695562766
C          125.63363349275976        9.22321782486431       -1.12682638347078
C          125.62404631163162        7.16651488889781        0.31862284168652
C          125.64127690080143        5.78735892709681        0.49058444773172
C          125.63313211480697        5.18748682673756        1.87142136211930
C          124.47586246624088        2.79712810001617       -0.38909633647434
C          123.18724977423291        3.45977334855343       -0.48092954448041
C          122.25214082079403        2.49316393535594       -0.37075918929296
N          124.30250450265773        1.45595179272628       -0.22682039217457
C          122.97162207827208        1.24376854882824       -0.21109732994868
C          122.32528889574753       -0.00012409731511       -0.05417784988460
C          122.96960650905118       -1.24144884790228        0.10783567914604
C          122.34393471230626       -2.50697730406425        0.26544229701415
C          123.32638527008280       -3.45130355854099        0.38122871309028
C          124.58294366733607       -2.78918669519699        0.29791200818401
N          124.31512632636669       -1.45542744514441        0.13434076156171
C          125.84666831668760       -3.37819867786236        0.36606311519591
C          125.88354108891959       -4.85983005877095        0.54147259367733
C          125.89931294120871       -5.69427765056952       -0.57996522858149
C          125.87541049057727       -5.09721803117498       -1.96184681739883
C          125.93846409310436       -7.07260121406234       -0.40571943905283
C          125.96152850389964       -7.63179025971379        0.86787788720535
C          126.02632288196644       -9.12508211510878        1.04236186310507
C          125.94642363228746       -6.79197712099340        1.97655408743213
C          125.90737685300088       -5.41067914753677        1.82586215824830
C          125.89212887871960       -4.50871212713299        3.03119653678709
C          127.06493519343624       -2.70135629292085        0.28255716268611
C          128.35993255944180       -3.35944028442624        0.35901003959865
C          129.28872114468541       -2.38871862241442        0.24322890861758
C          128.56138422461825       -1.13980585598404        0.09614628529800
N          127.22517131471128       -1.36611385912730        0.12361482451761
H          130.26864858620073        0.10271934590751       -0.04778391121129
H          130.26478989590350        2.74933539545013       -0.35272712805659
H          128.34649679493668        4.60733294089259       -0.57603594432493
H          126.50895101175827        0.83210199144613       -0.14427412442383
H          126.59457955496161        3.99257847706991       -3.11887133124540
H          125.67254386024675        5.19126285303509       -4.04290985563331
H          124.83142354238845        3.93885246013611       -3.11199942372306
H          125.65593088401678        7.31975238597960       -3.06063864093236
H          126.66200641550545        9.59142633132331       -1.15145280223381
H          125.14940290703508        9.50778908648600       -2.06126030563152
H          125.11882296093297        9.71152264342489       -0.29905877666434
H          125.60481326924042        7.81236858410828        1.19040993759084
H          126.52950962748022        4.58424841341071        2.02806962223916
H          125.59839607496070        5.96537536180537        2.63356862112223
H          124.76648427561986        4.53570201042652        1.99619695313583
H          123.04702480075328        4.52077806884383       -0.61227512910335
H          121.17821728137548        2.58847340253056       -0.39158879235114
H          121.27740465143759       -2.66345988573493        0.28534315256198
H          123.20219324725592       -4.51409841412293        0.51254006076846
H          125.02145993935531       -0.73281390080668        0.04367156080165
H          125.91045530792684       -5.87603471668784       -2.72302796498450
H          124.96701171063488       -4.50887967356372       -2.10513204219029
H          126.72930732146592       -4.43177788704064       -2.10179312584433
H          125.95063804925654       -7.72007659466564       -1.27643034145848
H          125.57239479353350       -9.42654220897696        1.98661241489362
H          127.06831786029701       -9.45356660044923        1.04600391659554
H          125.51396924752498       -9.63408392809862        0.22553965164224
H          125.96474179494452       -7.21910769827800        2.97390922980346
H          125.92977408730960       -5.08936553767587        3.95238868158630
H          126.74818407348532       -3.83181090881385        3.00847356425880
H          124.98577618894797       -3.90016877680525        3.03816269892234
H          128.50582411648426       -4.42055089816001        0.48460402819801
H          130.36391847421382       -2.47681585030056        0.25269407110791
C           70.02687618636740       -0.01266161490341       -0.02549492394105
C           68.79825021553512       -0.01935650069837       -0.02239551708952
C           67.45346008452100       -0.02757549554661       -0.01980276492694
C           66.22934962979808       -0.04029366192544       -0.01741127124210
C           71.37152811789957       -0.01049402054251       -0.02738523625306
C           72.59587014868714       -0.00909792524564       -0.03097564926377
C           86.13489707562098       -0.04654456940820       -0.05039462090060
C           84.90555825695030       -0.04534193432236       -0.05004194512225
C           83.56200506244147       -0.04170055231190       -0.05107450946176
C           82.33702435723394       -0.04126317111581       -0.05060162367408
C           87.47843843144638       -0.04940797126920       -0.05127162563544
C           88.70350180655387       -0.04966962464181       -0.05375017423588
C          102.24435507485057       -0.08467088977945       -0.07732517895379
C          101.01494498536709       -0.08100171615413       -0.07270227736898
C           99.67142437040448       -0.07552760008308       -0.06923987317394
C           98.44645334303951       -0.07256286075440       -0.06412160484293
C          103.58789111681504       -0.08965520304483       -0.08029422524028
C          104.81287523315373       -0.09040172717552       -0.08364566099158
C          118.35146859784871       -0.04745619272348       -0.06193280319398
C          117.12274719546200       -0.06034003399028       -0.06666205141654
C          115.77842962634956       -0.07028097743260       -0.07107867315697
C          114.55397673214897       -0.08089455551585       -0.07310370443273
C          119.69588595279276       -0.03109128936345       -0.05838515070803
C          120.92010497426227       -0.01683053455696       -0.05670017074787
C           74.00048717419921       -0.01347486461909       -0.03197003166763
C           74.63239502019562       -0.96654269435881        0.79019291735503
C           73.99902010219543       -1.92251257528913        1.62613000726583
C           74.97714601734924       -2.64105699669767        2.25834797520750
C           76.23640398592531       -2.14329429773629        1.82473578860878
N           75.97699915253081       -1.13351399643212        0.93724022788834
C           77.49657104912635       -2.59404153395763        2.22864342045251
C           77.50481095484309       -3.71047037232512        3.22020509860412
C           77.50244710303716       -5.03674611801999        2.77816444058677
C           77.49573686960414       -5.33773853458210        1.30307766856970
C           77.50662614067915       -6.06731150968684        3.71044810875716
C           77.51211640426457       -5.79694112603826        5.07532835635026
C           77.53567969763903       -6.92408867543754        6.07207301214177
C           77.51592134742246       -4.47383523666532        5.50346581395852
C           77.51175255068537       -3.42695886497658        4.58874778807320
C           77.51422681399239       -1.99739891531503        5.06087668396741
C           78.72626451957480       -2.10253441913047        1.79668781713646
C           80.00048634095711       -2.62193224916764        2.26036732090772
C           80.95648390273084       -1.91064728373447        1.62694060399511
N           78.92870440459831       -1.09677985097279        0.90056930392448
C           80.26395616577480       -0.96041098264411        0.77884076932977
C           80.93365674284111       -0.03622791505030       -0.05030159463637
C           80.30104118027602        0.90345760762405       -0.88806282534228
C           80.93404552337972        1.84551758552313       -1.73979349813667
C           79.95569640979291        2.56372087510803       -2.37214411886739
C           78.69661469792115        2.07996301764886       -1.92246751178737
N           78.95664331952051        1.07644509609680       -1.02761533863773
C           77.43664577026398        2.54134029808715       -2.31399812364472
C           77.42768882148130        3.65488122494022       -3.30875985280088
C           77.39826170846078        3.36718151535636       -4.67614901434923
C           77.37134741386873        1.93629132940548       -5.14343202592885
C           77.39146959255056        4.41119233176077       -5.59410814252923
C           77.41230673146963        5.73554984081877       -5.17034593391382
C           77.42428752508458        6.85937057706436       -6.17104635462218
C           77.44110731258431        6.01008631110132       -3.80659570967500
C           77.44852258854031        4.98243167494540       -2.87111230090974
C           77.47589836422944        5.28796674188689       -1.39719112887623
C           76.20680628095677        2.06214279511771       -1.86774605453326
C           74.93259349552098        2.59554233011390       -2.31554535768609
C           73.97670586692587        1.88665150004285       -1.67935089311010
C           74.66918668159124        0.92307243782647       -0.84644788736708
N           76.00491396535067        1.05231248777948       -0.97696533069152
H           72.93167344205781       -2.03740144800077        1.72531789467355
H           74.84620782013934       -3.44537030555045        2.96403913156822
H           76.68391556505290       -0.58534769129275        0.45872823255720
H           76.60216754915096       -4.92035272376732        0.83487228572378
H           78.36585940588603       -4.88844249728112        0.82090304683414
H           77.51316728015901       -6.41252764288053        1.12512939354616
H           77.50407955371462       -7.09683381491737        3.36757264504529
H           77.13973456465062       -6.60113636688250        7.03500909491682
H           76.94769886592235       -7.76981510945887        5.71414699707276
H           78.56240805924557       -7.26565032895517        6.22273281980665
H           77.52059394338816       -4.25298873840278        6.56585176029608
H           76.62096448431855       -1.47945612941963        4.70627916997563
H           77.53797852782975       -1.94695923699894        6.14901200227293
H           78.38451860344612       -1.46960621148440        4.66655491090071
H           80.11826247283818       -3.42207959193976        2.97340362574924
H           82.02816545360029       -1.99956579864097        1.70695311576612
H           82.00131070797784        1.95230073701180       -1.84845080497676
H           80.08630363795113        3.35945530770262       -3.08756582168897
H           78.24996841328900        0.53808206378055       -0.53774658564679
H           77.34160485339113        1.88264363616113       -6.23125992419650
H           76.49447487443078        1.42379432478258       -4.74341490067287
H           78.25776685399049        1.40530639043096       -4.79107834908097
H           77.36759542508091        4.18710736127746       -6.65555021028452
H           77.00359670981034        6.53735020832955       -7.12373758523320
H           78.45061080557039        7.19050873148261       -6.34592538991015
H           76.85271254049135        7.71184080841634       -5.80272271197358
H           77.45592529322872        7.04061737816450       -3.46708600833683
H           78.37454499976761        4.86938895807746       -0.93986982001373
H           77.46409872192942        6.36335355109525       -1.22240574569083
H           76.61110672966085        4.84276365160231       -0.90181372076579
H           74.81470666405519        3.40258261621482       -3.02075318818090
H           72.90507216048019        1.98449259323698       -1.74893184328062
C           90.10678815885477       -0.05285287923667       -0.05170958494892
C           90.73990161653296       -0.98253203748703        0.79695748981380
C           90.10765385934702       -1.91977553898475        1.65430688394528
C           91.08674339046139       -2.62590139538865        2.29925272361966
C           92.34532707714214       -2.13868768725327        1.85234436777123
N           92.08452468947650       -1.14657760659003        0.94523583758866
C           93.60598707332832       -2.58450757578006        2.26040637380352
C           93.61505013404025       -3.68579925626455        3.26876345241677
C           93.61555569277331       -5.01831742051337        2.84593112712560
C           93.61165595464146       -5.34071974155650        1.37536304363890
C           93.62016856986935       -6.03533097685750        3.79303045250622
C           93.62336143285583       -5.74527437164384        5.15378801816420
C           93.64737163909011       -6.85740580965541        6.16723547477788
C           93.62490772833793       -4.41603770289952        5.56277762916411
C           93.62029842963197       -3.38249967700124        4.63307696707583
C           93.62090437321898       -1.94623007922023        5.08435402637267
C           94.83568120935254       -2.10242211781472        1.81785259354514
C           96.10985102513045       -2.61543091517929        2.28865293786360
C           97.06594645935630       -1.91531807768690        1.64297878099086
N           95.03821221927828       -1.11146602226022        0.90540473099926
C           96.37353784297380       -0.97823308324430        0.78043210877545
C           97.04318522201588       -0.06675589551902       -0.06269628628888
C           96.41000252355644        0.85993838106659       -0.91457300910199
C           97.04222489975560        1.79205084531388       -1.77752113604538
C           96.06312668881196        2.49750541522498       -2.42318163486627
C           94.80457269272848        2.01458998711355       -1.97156728986872
N           95.06538535340343        1.02582682680482       -1.06081516621864
C           93.54395687979503        2.46249426832539       -2.37741659597469
C           93.53504974936182        3.55994260647430       -3.38994963592948
C           93.53227492138791        3.25079103092068       -4.75299961490599
C           93.53407068797209        1.81260813584548       -5.19815816314969
C           93.52497764932569        4.28028786851430       -5.68707612344069
C           93.51939838761480        5.61129858385818       -5.28375714538527
C           93.53147245571968        6.71872992979008       -6.30255293678458
C           93.52224980500149        5.90716941555215       -3.92430306687836
C           93.52948277650867        4.89419617244377       -2.97283195242998
C           93.52908002774902        5.22284554802224       -1.50364240521994
C           92.31428462561092        1.98474690851119       -1.93016519016697
C           91.04011569691529        2.50113381359758       -2.39726247845846
C           90.08404784220160        1.80204705776390       -1.75042801327702
C           90.77647186113403        0.86192237168012       -0.89120571154748
N           92.11179925538423        0.99357602162024       -1.01793616009477
H           89.04044910529707       -2.03200066757458        1.75791959654343
H           90.95668146527369       -3.41557346809164        3.02144858500137
H           92.79064416799753       -0.60966674413648        0.45294856971157
H           92.71943688847350       -4.92950503413249        0.89919906050394
H           94.48318879645228       -4.89915560860481        0.88857692405332
H           93.62873630578493       -6.41799743844604        1.21310224757070
H           93.61968933231594       -7.06966861516272        3.46496199894316
H           93.22980442556928       -6.52674576053209        7.11837067893825
H           93.07922096144988       -7.71763787160774        5.81201496466582
H           94.67665917436484       -7.17991458605726        6.34073544137971
H           93.62815423509964       -4.17994933628400        6.62188088132998
H           92.72658910656932       -1.43481779879357        4.72299028483458
H           93.64542084240618       -1.87994627574325        6.17161610085130
H           94.49011085181787       -1.42297251867262        4.68167219662382
H           96.22764886001833       -3.40380781797995        3.01468378576458
H           98.13762086566963       -2.00378706096941        1.72356434701721
H           98.10941778172247        1.90162045386102       -1.88405365205904
H           96.19313574557070        3.28389713301704       -3.14895952581910
H           94.35928232492155        0.49186256002806       -0.56531143400156
H           93.51438196678937        1.74170388832745       -6.28522692160395
H           92.66315498450503        1.29089041787905       -4.79711617632047
H           94.42683412921305        1.30289376195839       -4.83067455305823
H           93.52156148706811        4.03969942083289       -6.74516655291074
H           93.09625392200118        6.38560454536610       -7.24490801657177
H           94.55927188221152        7.03517925456133       -6.49521126381469
H           92.97362441149690        7.58340069557412       -5.94190626026581
H           93.51665685668358        6.94286076398105       -3.60059085699510
H           94.42228728957042        4.81759827537676       -1.02421626325153
H           93.50691354027215        6.30070843782178       -1.34597881081329
H           92.65867940074671        4.77950414174996       -1.01647328337619
H           90.92225806634478        3.29073436547131       -3.12194271497373
H           89.01238244055351        1.89300629983866       -1.82828114574091
C          106.21621748078763       -0.09393479621365       -0.08395720562390
C          106.85025888152501       -1.03551619162314        0.75062553835823
C          106.21870600755361       -1.98504488018798        1.59508146105168
C          107.19821656338283       -2.70106029108453        2.22815988908139
C          108.45657278193599       -2.20801453227840        1.78665864959520
N          108.19496708093779       -1.20238056529742        0.89464636600827
C          109.71738480250802       -2.66184115646967        2.18444363451916
C          109.72802541386923       -3.77674728307019        3.17767941678097
C          109.72221350527415       -5.10379172754188        2.73817345336611
C          109.71020371566333       -5.40751393911073        1.26367849310038
C          109.72799559371855       -6.13266937578530        3.67239571845678
C          109.73852748623010       -5.85977893887577        5.03667784244846
C          109.76328844046289       -6.98464560334563        6.03596969997898
C          109.74661826456156       -4.53582515248954        5.46231758512011
C          109.74107049034696       -3.49068124984319        4.54570776439737
C          109.74927154215293       -2.06026665802710        5.01513384241716
C          110.94655135224721       -2.17346326482051        1.74650535557007
C          112.22165127994562       -2.69731515189855        2.20284148840548
C          113.17648686384121       -1.98220192730686        1.57196957508278
N          111.14696157284675       -1.16255349563270        0.85643496761858
C          112.48243333880647       -1.02428601017968        0.73392748963699
C          113.14974438461449       -0.08531153857275       -0.07918884815399
C          112.51605069777553        0.86220916801083       -0.90665099372748
C          113.14782521052879        1.81969126887748       -1.74195060870167
C          112.16848111549317        2.53346546272751       -2.37776973442320
C          110.91014985418650        2.03117588259670       -1.94691578118774
N          111.17124588683913        1.02295952096105       -1.05810984569420
C          109.64927056322904        2.47843895788052       -2.35254661139245
C          109.63982388565373        3.59646748455090       -3.34227143182792
C          109.65046414930622        3.31558195605347       -4.71153306278769
C          109.66731684871222        1.88695524127658       -5.18618530878757
C          109.64286011005224        4.36402287203372       -5.62402405295843
C          109.62407467905501        5.68654713778612       -5.19324499078645
C          109.63633496438989        6.81313884278114       -6.19081748236824
C          109.61420078062122        5.95414357078464       -3.82824315996573
C          109.62139990165863        4.92157580678449       -2.89779668045234
C          109.60789670803992        5.21977097612876       -1.42219863805409
C          108.42036689238132        1.98316205366315       -1.92279502568456
C          107.14533609009389        2.49991819398156       -2.38715270842849
C          106.19048873062752        1.78521512737688       -1.75583726911641
C          106.88453419070949        0.83487193619298       -0.90909476728881
N          108.21954190220532        0.97487881503715       -1.02908762961392
H          105.15157838502077       -2.09827921089572        1.69842900223436
H          107.06879193579969       -3.50110602107052        2.93896970004058
H          108.90081227182382       -0.65790358583530        0.41035638280448
H          108.81418686413549       -4.99229664621978        0.79820586401552
H          110.57777582546419       -4.95783593610493        0.77727854336818
H          109.72855454175790       -6.48260389769749        1.08764455966148
H          109.72262335167051       -7.16279792771341        3.33139030872258
H          109.35562269009760       -6.66315412621635        6.99450993366372
H          109.18646306249160       -7.83654779663938        5.67469864506555
H          110.79171960022181       -7.31619552895559        6.19702047347975
H          109.75578019246470       -4.31307272063100        6.52427230540885
H          108.85848674716246       -1.53902682739919        4.65921495184449
H          109.77295005194706       -2.00788655025385        6.10317639844013
H          110.62207793951634       -1.53709836437667        4.62014968831787
H          112.34081156386331       -3.50269821599460        2.90973939773199
H          114.24833660200585       -2.07230821875425        1.64842331938801
H          114.21495675590486        1.93887832292315       -1.83831645143210
H          112.29806082390120        3.33785418629571       -3.08362148371152
H          110.46526720198609        0.47255805010402       -0.58078298099468