      -----------------------------------------------------------      
     |                   =====================                   |     
     |                           x T B                           |     
     |                   =====================                   |     
     |                         S. Grimme                         |     
     |          Mulliken Center for Theoretical Chemistry        |     
     |                    University of Bonn                     |     
      -----------------------------------------------------------      

   * xtb version 6.5.1 (b24c23e) compiled by 'conda@728c89f4b128' on 2022-07-12

   xtb is free software: you can redistribute it and/or modify it under
   the terms of the GNU Lesser General Public License as published by
   the Free Software Foundation, either version 3 of the License, or
   (at your option) any later version.
   
   xtb is distributed in the hope that it will be useful,
   but WITHOUT ANY WARRANTY; without even the implied warranty of
   MERCHANTABILITY or FITNESS FOR A PARTICULAR PURPOSE.  See the
   GNU Lesser General Public License for more details.
   
   Cite this work as:
   * C. Bannwarth, E. Caldeweyher, S. Ehlert, A. Hansen, P. Pracht,
     J. Seibert, S. Spicher, S. Grimme, WIREs Comput. Mol. Sci., 2020, 11,
     e01493. DOI: 10.1002/wcms.1493
   
   for GFN2-xTB:
   * C. Bannwarth, S. Ehlert and S. Grimme., J. Chem. Theory Comput., 2019,
     15, 1652-1671. DOI: 10.1021/acs.jctc.8b01176
   for GFN1-xTB:
   * S. Grimme, C. Bannwarth, P. Shushkov, J. Chem. Theory Comput., 2017,
     13, 1989-2009. DOI: 10.1021/acs.jctc.7b00118
   for GFN0-xTB:
   * P. Pracht, E. Caldeweyher, S. Ehlert, S. Grimme, ChemRxiv, 2019, preprint.
     DOI: 10.26434/chemrxiv.8326202.v1
   for GFN-FF:
   * S. Spicher and S. Grimme, Angew. Chem. Int. Ed., 2020, 59, 15665-15673.
     DOI: 10.1002/anie.202004239
   
   for ALPB and GBSA implicit solvation:
   * S. Ehlert, M. Stahn, S. Spicher, S. Grimme, J. Chem. Theory Comput.,
     2021, 17, 4250-4261. DOI: 10.1021/acs.jctc.1c00471
   
   for DFT-D4:
   * E. Caldeweyher, C. Bannwarth and S. Grimme, J. Chem. Phys., 2017,
     147, 034112. DOI: 10.1063/1.4993215
   * E. Caldeweyher, S. Ehlert, A. Hansen, H. Neugebauer, S. Spicher,
     C. Bannwarth and S. Grimme, J. Chem. Phys., 2019, 150, 154122.
     DOI: 10.1063/1.5090222
   * E. Caldeweyher, J.-M. Mewes, S. Ehlert and S. Grimme, Phys. Chem. Chem. Phys.
     2020, 22, 8499-8512. DOI: 10.1039/D0CP00502A
   
   for sTDA-xTB:
   * S. Grimme and C. Bannwarth, J. Chem. Phys., 2016, 145, 054103.
     DOI: 10.1063/1.4959605
   
   in the mass-spec context:
   * V. Asgeirsson, C. Bauer and S. Grimme, Chem. Sci., 2017, 8, 4879.
     DOI: 10.1039/c7sc00601b
   * J. Koopman and S. Grimme, ACS Omega 2019, 4, 12, 15120-15133.
     DOI: 10.1021/acsomega.9b02011
   
   for metadynamics refer to:
   * S. Grimme, J. Chem. Theory Comput., 2019, 155, 2847-2862
     DOI: 10.1021/acs.jctc.9b00143
   
   for SPH calculations refer to:
   * S. Spicher and S. Grimme, J. Chem. Theory Comput., 2021, 17, 1701-1714
     DOI: 10.1021/acs.jctc.0c01306
   
   with help from (in alphabetical order)
   P. Atkinson, C. Bannwarth, F. Bohle, G. Brandenburg, E. Caldeweyher
   M. Checinski, S. Dohm, S. Ehlert, S. Ehrlich, I. Gerasimov, C. Hölzer
   A. Katbashev, J. Koopman, C. Lavigne, S. Lehtola, F. März, M. Müller,
   F. Musil, H. Neugebauer, J. Pisarek, C. Plett, P. Pracht, F. Pultar,
   J. Seibert, P. Shushkov, S. Spicher, M. Stahn, M. Steiner, T. Strunk,
   J. Stückrath, T. Rose, and J. Unsleber
   
 * started run on 2022/07/29 at 22:01:59.740     

           -------------------------------------------------
          |                Calculation Setup                |
           -------------------------------------------------

          program call               : xtb xtbopt.xyz --gfn 1 --vipea
          hostname                   : cx3-5-14.cx3.hpc.ic.ac.uk
          coordinate file            : xtbopt.xyz
          omp threads                :                     1

   ID    Z sym.   atoms
    1    6 C      1-5, 7-10, 12, 14, 16-19, 21-26, 28-31, 33, 35, 37-41,
                  64-68, 70-73, 75, 77, 79-82, 84-89, 91-94, 96, 98, 100-104,
                  127-134
    2    7 N      6, 20, 27, 42, 69, 83, 90, 105
    3    8 O      11, 13, 15, 32, 34, 36, 74, 76, 78, 95, 97, 99
    4    1 H      43-63, 106-126

           -------------------------------------------------
          |                 I P E A - x T B                 |
           -------------------------------------------------

        Reference                      10.1039/c7sc00601b
      * Hamiltonian:
        H0-scaling (s, p, d)           2.150000    2.300000    2.000000
        zeta-weighting                 0.000000
      * Dispersion:
        s8                             2.400000
        a1                             0.630000
        a2                             5.000000
        s9                             0.000000
      * Repulsion:
        kExp                           1.500000
        rExp                           1.000000
      * Coulomb:
        alpha                          1.000000
        third order                    atomic
        anisotropic                    false
      * Halogen bond correction:
        rad-scale                      1.300000
        damping                        0.440000


          ...................................................
          :                      SETUP                      :
          :.................................................:
          :  # basis functions                 544          :
          :  # atomic orbitals                 544          :
          :  # shells                          360          :
          :  # electrons                       442          :
          :  # halogen bonds                     0          :
          :  max. iterations                   250          :
          :  Hamiltonian                  GFN1-xTB          :
          :  restarted?                      false          :
          :  GBSA solvation                  false          :
          :  PC potential                    false          :
          :  electronic temp.          300.0000000     K    :
          :  accuracy                    1.0000000          :
          :  -> integral cutoff          0.2500000E+02      :
          :  -> integral neglect         0.1000000E-07      :
          :  -> SCF convergence          0.1000000E-05 Eh   :
          :  -> wf. convergence          0.2000000E-04 e    :
          :  Broyden damping             0.4000000          :
          ...................................................

 iter      E             dE          RMSdq      gap      omega  full diag
   1   -287.4417147 -0.287442E+03  0.100E+01    0.45       0.0  T
   2   -288.2919206 -0.850206E+00  0.614E+00    1.36       1.0  T
   3   -285.0899491  0.320197E+01  0.443E+00    0.93       1.0  T
   4   -288.8074543 -0.371751E+01  0.142E+00    1.35       1.0  T
   5   -289.4150150 -0.607561E+00  0.312E-01    1.30       1.0  T
   6   -289.4400571 -0.250421E-01  0.143E-01    1.31       1.0  T
   7   -289.4444235 -0.436638E-02  0.643E-02    1.31       1.0  T
   8   -289.4455694 -0.114588E-02  0.243E-02    1.30       1.0  T
   9   -289.4456206 -0.512030E-04  0.187E-02    1.30       1.0  T
  10   -289.4456874 -0.668292E-04  0.461E-03    1.30       1.9  T
  11   -289.4456899 -0.249131E-05  0.194E-03    1.30       4.5  T
  12   -289.4456907 -0.820635E-06  0.976E-04    1.30       8.9  T
  13   -289.4456909 -0.214123E-06  0.460E-04    1.30      18.8  T
  14   -289.4456910 -0.460718E-07  0.164E-04    1.30      52.6  T
  15   -289.4456910 -0.556724E-08  0.946E-05    1.30      91.3  T

   *** convergence criteria satisfied after 15 iterations ***

         #    Occupation            Energy/Eh            Energy/eV
      -------------------------------------------------------------
         1        2.0000           -1.0427306             -28.3741
       ...           ...                  ...                  ...
       215        2.0000           -0.3916886             -10.6584
       216        2.0000           -0.3900075             -10.6126
       217        2.0000           -0.3899523             -10.6111
       218        2.0000           -0.3888528             -10.5812
       219        2.0000           -0.3880503             -10.5594
       220        2.0000           -0.3734748             -10.1628
       221        2.0000           -0.3635663              -9.8931 (HOMO)
       222                         -0.3157609              -8.5923 (LUMO)
       223                         -0.3044811              -8.2854
       224                         -0.3028018              -8.2397
       225                         -0.3019732              -8.2171
       226                         -0.2673056              -7.2738
       ...                                ...                  ...
       544                        504.8432600           13737.4843
      -------------------------------------------------------------
                  HL-Gap            0.0478054 Eh            1.3009 eV
             Fermi-level           -0.3396636 Eh           -9.2427 eV

 SCC (total)                   0 d,  0 h,  0 min,  1.784 sec
 SCC setup                      ...        0 min,  0.002 sec (  0.123%)
 Dispersion                     ...        0 min,  0.003 sec (  0.175%)
 classical contributions        ...        0 min,  0.001 sec (  0.069%)
 integral evaluation            ...        0 min,  0.253 sec ( 14.202%)
 iterations                     ...        0 min,  0.961 sec ( 53.873%)
 molecular gradient             ...        0 min,  0.549 sec ( 30.757%)
 printout                       ...        0 min,  0.014 sec (  0.800%)

         :::::::::::::::::::::::::::::::::::::::::::::::::::::
         ::                     SUMMARY                     ::
         :::::::::::::::::::::::::::::::::::::::::::::::::::::
         :: total energy            -284.388286695775 Eh    ::
         :: gradient norm              0.075797373728 Eh/a0 ::
         :: HOMO-LUMO gap              1.300850430301 eV    ::
         ::.................................................::
         :: SCC energy              -289.445690973268 Eh    ::
         :: -> electrostatic           0.294217378791 Eh    ::
         :: repulsion energy           5.167262598320 Eh    ::
         :: dispersion energy         -0.109858320826 Eh    ::
         :: halogen bond corr.         0.000000000000 Eh    ::
         :: add. restraining           0.000000000000 Eh    ::
         :: total charge               0.000000000000 e     ::
         :::::::::::::::::::::::::::::::::::::::::::::::::::::

           ------------------------------------------------- 
          |        vertical delta SCC IP calculation        |
           ------------------------------------------------- 
   1   -289.0420047 -0.289042E+03  0.148E-01    1.30       0.0  T
   2   -289.0467550 -0.475032E-02  0.105E-01    1.30       1.0  T
   3   -289.0496425 -0.288752E-02  0.686E-02    1.28       1.0  T
   4   -289.0502557 -0.613219E-03  0.324E-02    1.29       1.0  T
   5   -289.0502368  0.189196E-04  0.217E-02    1.28       1.0  T
   6   -289.0503080 -0.712198E-04  0.101E-02    1.28       1.0  T
   7   -289.0503258 -0.178019E-04  0.545E-03    1.28       1.6  T
   8   -289.0503248  0.998478E-06  0.519E-03    1.28       1.7  T
   9   -289.0503442 -0.193980E-04  0.110E-03    1.28       7.8  T
  10   -289.0503447 -0.459865E-06  0.518E-04    1.28      16.7  T
  11   -289.0503447 -0.492017E-07  0.253E-04    1.28      34.2  T
  12   -289.0503447 -0.115389E-07  0.127E-04    1.28      67.9  T
  13   -289.0503448 -0.340572E-08  0.594E-05    1.28     145.3  T
     SCC iter.                  ...        0 min,  0.832 sec
     gradient                   ...        0 min,  0.550 sec
------------------------------------------------------------------------
empirical IP shift (eV):    4.8455
delta SCC IP (eV):    5.9124
------------------------------------------------------------------------
           ------------------------------------------------- 
          |        vertical delta SCC EA calculation        |
           ------------------------------------------------- 
   1   -289.7029058 -0.289703E+03  0.260E-01    0.32       0.0  T
   2   -289.7207717 -0.178659E-01  0.170E-01    0.23       1.0  T
   3   -289.7254134 -0.464168E-02  0.126E-01    0.26       1.0  T
   4   -289.7272872 -0.187374E-02  0.674E-02    0.23       1.0  T
   5   -289.7272172  0.699588E-04  0.476E-02    0.23       1.0  T
   6   -289.7276381 -0.420920E-03  0.191E-02    0.24       1.0  T
   7   -289.7277432 -0.105101E-03  0.595E-03    0.23       1.5  T
   8   -289.7277463 -0.304439E-05  0.384E-03    0.23       2.2  T
   9   -289.7277462  0.414447E-07  0.294E-03    0.23       2.9  T
  10   -289.7277502 -0.398719E-05  0.177E-03    0.23       4.9  T
  11   -289.7277522 -0.200269E-05  0.602E-04    0.23      14.4  T
  12   -289.7277523 -0.100161E-06  0.206E-04    0.23      41.9  T
  13   -289.7277523 -0.886729E-08  0.817E-05    0.23     105.8  T
  14   -289.7277523 -0.513296E-09  0.485E-05    0.23     178.1  T
     SCC iter.                  ...        0 min,  0.884 sec
     gradient                   ...        0 min,  0.548 sec
------------------------------------------------------------------------
empirical EA shift (eV):    4.8455
delta SCC EA (eV):    2.8298
------------------------------------------------------------------------
           -------------------------------------------------
          |                Property Printout                |
           -------------------------------------------------

    * Orbital Energies and Occupations

         #    Occupation            Energy/Eh            Energy/eV
      -------------------------------------------------------------
         1        2.0000           -0.9945617             -27.0634
       ...           ...                  ...                  ...
       210        2.0000           -0.3528459              -9.6014
       211        2.0000           -0.3528387              -9.6012
       212        2.0000           -0.3458930              -9.4122
       213        2.0000           -0.3427170              -9.3258
       214        2.0000           -0.3403297              -9.2608
       215        2.0000           -0.3403083              -9.2603
       216        2.0000           -0.3358914              -9.1401
       217        2.0000           -0.3245100              -8.8304
       218        2.0000           -0.3236697              -8.8075
       219        2.0000           -0.3234690              -8.8020
       220        2.0000           -0.3091768              -8.4131
       221        2.0000           -0.2973581              -8.0915
       222        0.9862           -0.2483622              -6.7583 (HOMO)
       223        0.0087           -0.2398027              -6.5254 (LUMO)
       224        0.0050           -0.2392687              -6.5108
       225        0.0002           -0.2360663              -6.4237
       226                         -0.2095963              -5.7034
       227                         -0.2094664              -5.6999
       228                         -0.2077944              -5.6544
       229                         -0.2077210              -5.6524
       230                         -0.2018186              -5.4918
       231                         -0.1943572              -5.2887
       232                         -0.1935891              -5.2678
       233                         -0.1933404              -5.2611
       ...                                ...                  ...
       544                        504.9107654           13739.3213
      -------------------------------------------------------------
                  HL-Gap            0.0085596 Eh            0.2329 eV
             Fermi-level           -0.2585830 Eh           -7.0364 eV

  Mulliken/CM5 charges         n(s)   n(p)   n(d)
     1C    -0.03655 -0.07738   1.078  2.958  0.000
     2C     0.05764  0.11807   1.104  2.838  0.000
     3C    -0.04413 -0.08944   1.077  2.967  0.000
     4C    -0.03900 -0.08397   1.073  2.966  0.000
     5C     0.05524  0.11916   1.095  2.850  0.000
     6N    -0.16493 -0.51786   1.313  3.852  0.000
     7C     0.00465  0.01043   1.087  2.908  0.000
     8C    -0.00204 -0.01008   1.079  2.923  0.000
     9C    -0.04636 -0.09577   1.052  2.994  0.000
    10C     0.07188  0.08695   1.104  2.824  0.000
    11O    -0.30471 -0.50826   1.624  4.681  0.000
    12C     0.06493  0.08471   1.091  2.844  0.000
    13O    -0.30474 -0.50464   1.622  4.683  0.000
    14C     0.08010  0.09720   1.115  2.805  0.000
    15O    -0.29614 -0.49134   1.629  4.667  0.000
    16C    -0.04090 -0.08901   1.061  2.980  0.000
    17C     0.05157  0.11956   1.112  2.836  0.000
    18C    -0.04412 -0.09011   1.082  2.962  0.000
    19C    -0.04420 -0.08964   1.088  2.956  0.000
    20N    -0.29164 -0.47829   1.294  3.998  0.000
    21C     0.06066  0.13151   1.129  2.810  0.000
    22C     0.00607  0.01325   1.077  2.917  0.000
    23C     0.06211  0.12706   1.108  2.829  0.000
    24C    -0.04121 -0.08564   1.076  2.966  0.000
    25C    -0.03981 -0.08480   1.070  2.969  0.000
    26C     0.05469  0.11795   1.093  2.852  0.000
    27N    -0.16106 -0.51318   1.316  3.845  0.000
    28C     0.00231  0.00814   1.085  2.912  0.000
    29C    -0.00225 -0.01026   1.079  2.923  0.000
    30C    -0.04030 -0.08843   1.061  2.979  0.000
    31C     0.08053  0.09764   1.115  2.804  0.000
    32O    -0.29513 -0.49035   1.629  4.666  0.000
    33C     0.06464  0.08442   1.091  2.844  0.000
    34O    -0.30479 -0.50468   1.622  4.683  0.000
    35C     0.07104  0.08609   1.104  2.825  0.000
    36O    -0.30577 -0.50933   1.624  4.682  0.000
    37C    -0.04737 -0.09680   1.052  2.995  0.000
    38C     0.05347  0.12284   1.116  2.831  0.000
    39C    -0.04392 -0.08990   1.084  2.960  0.000
    40C    -0.04696 -0.09334   1.090  2.957  0.000
    41C     0.05416  0.11981   1.124  2.822  0.000
    42N    -0.29691 -0.48397   1.291  4.006  0.000
    43H     0.01536  0.07438   0.985  0.000  0.000
    44H     0.02763  0.08430   0.972  0.000  0.000
    45H     0.02363  0.08241   0.976  0.000  0.000
    46H     0.15921  0.36759   0.841  0.000  0.000
    47H     0.02919  0.08943   0.971  0.000  0.000
    48H     0.23021  0.40271   0.770  0.000  0.000
    49H     0.23530  0.41466   0.765  0.000  0.000
    50H     0.23002  0.40945   0.770  0.000  0.000
    51H     0.03021  0.09101   0.970  0.000  0.000
    52H     0.01463  0.07343   0.985  0.000  0.000
    53H     0.01672  0.07486   0.983  0.000  0.000
    54H     0.02549  0.08354   0.975  0.000  0.000
    55H     0.02407  0.08293   0.976  0.000  0.000
    56H     0.15756  0.36589   0.842  0.000  0.000
    57H     0.03130  0.09214   0.969  0.000  0.000
    58H     0.23025  0.40967   0.770  0.000  0.000
    59H     0.23461  0.41398   0.765  0.000  0.000
    60H     0.22873  0.40125   0.771  0.000  0.000
    61H     0.02759  0.08788   0.972  0.000  0.000
    62H     0.01363  0.07235   0.986  0.000  0.000
    63H     0.01831  0.07473   0.982  0.000  0.000
    64C    -0.03654 -0.07737   1.078  2.958  0.000
    65C     0.05765  0.11807   1.104  2.838  0.000
    66C    -0.04413 -0.08944   1.077  2.967  0.000
    67C    -0.03899 -0.08396   1.073  2.966  0.000
    68C     0.05525  0.11916   1.095  2.850  0.000
    69N    -0.16492 -0.51785   1.313  3.852  0.000
    70C     0.00465  0.01042   1.087  2.908  0.000
    71C    -0.00206 -0.01009   1.079  2.923  0.000
    72C    -0.04634 -0.09577   1.052  2.994  0.000
    73C     0.07188  0.08694   1.104  2.824  0.000
    74O    -0.30471 -0.50826   1.624  4.681  0.000
    75C     0.06494  0.08472   1.091  2.844  0.000
    76O    -0.30472 -0.50462   1.622  4.683  0.000
    77C     0.08010  0.09719   1.115  2.805  0.000
    78O    -0.29615 -0.49135   1.629  4.667  0.000
    79C    -0.04089 -0.08901   1.061  2.980  0.000
    80C     0.05157  0.11956   1.112  2.836  0.000
    81C    -0.04413 -0.09013   1.082  2.962  0.000
    82C    -0.04421 -0.08966   1.088  2.956  0.000
    83N    -0.29166 -0.47830   1.294  3.998  0.000
    84C     0.06064  0.13148   1.129  2.810  0.000
    85C     0.00607  0.01325   1.077  2.917  0.000
    86C     0.06212  0.12706   1.109  2.829  0.000
    87C    -0.04121 -0.08563   1.076  2.966  0.000
    88C    -0.03982 -0.08480   1.070  2.969  0.000
    89C     0.05470  0.11796   1.093  2.852  0.000
    90N    -0.16105 -0.51319   1.316  3.845  0.000
    91C     0.00232  0.00815   1.085  2.912  0.000
    92C    -0.00223 -0.01025   1.079  2.923  0.000
    93C    -0.04030 -0.08842   1.061  2.979  0.000
    94C     0.08054  0.09765   1.115  2.804  0.000
    95O    -0.29512 -0.49034   1.629  4.666  0.000
    96C     0.06462  0.08441   1.091  2.844  0.000
    97O    -0.30481 -0.50470   1.622  4.683  0.000
    98C     0.07104  0.08609   1.104  2.825  0.000
    99O    -0.30577 -0.50933   1.624  4.682  0.000
   100C    -0.04738 -0.09680   1.052  2.996  0.000
   101C     0.05347  0.12285   1.116  2.831  0.000
   102C    -0.04391 -0.08989   1.084  2.959  0.000
   103C    -0.04695 -0.09333   1.090  2.957  0.000
   104C     0.05417  0.11983   1.124  2.821  0.000
   105N    -0.29691 -0.48397   1.291  4.006  0.000
   106H     0.01537  0.07439   0.985  0.000  0.000
   107H     0.02763  0.08431   0.972  0.000  0.000
   108H     0.02363  0.08242   0.976  0.000  0.000
   109H     0.15919  0.36757   0.841  0.000  0.000
   110H     0.02917  0.08942   0.971  0.000  0.000
   111H     0.23021  0.40271   0.770  0.000  0.000
   112H     0.23530  0.41466   0.765  0.000  0.000
   113H     0.23002  0.40945   0.770  0.000  0.000
   114H     0.03021  0.09103   0.970  0.000  0.000
   115H     0.01462  0.07342   0.985  0.000  0.000
   116H     0.01671  0.07485   0.983  0.000  0.000
   117H     0.02548  0.08353   0.975  0.000  0.000
   118H     0.02407  0.08293   0.976  0.000  0.000
   119H     0.15757  0.36590   0.842  0.000  0.000
   120H     0.03131  0.09213   0.969  0.000  0.000
   121H     0.23025  0.40967   0.770  0.000  0.000
   122H     0.23461  0.41398   0.765  0.000  0.000
   123H     0.22874  0.40126   0.771  0.000  0.000
   124H     0.02761  0.08789   0.972  0.000  0.000
   125H     0.01364  0.07235   0.986  0.000  0.000
   126H     0.01831  0.07473   0.982  0.000  0.000
   127C    -0.02627 -0.02790   1.091  2.936  0.000
   128C    -0.03194 -0.03271   1.059  2.973  0.000
   129C    -0.02715 -0.02725   1.076  2.951  0.000
   130C    -0.02908 -0.02909   1.076  2.953  0.000
   131C    -0.02909 -0.02910   1.076  2.953  0.000
   132C    -0.02715 -0.02725   1.076  2.951  0.000
   133C    -0.03195 -0.03272   1.059  2.973  0.000
   134C    -0.02627 -0.02790   1.091  2.936  0.000

Wiberg/Mayer (AO) data.
largest (>0.10) Wiberg bond orders for each atom

 ---------------------------------------------------------------------------
     #   Z sym  total        # sym  WBO       # sym  WBO       # sym  WBO
 ---------------------------------------------------------------------------
     1   6 C    3.775 --    41 C    1.378     2 C    1.362    43 H    0.997
     2   6 C    3.921 --     1 C    1.362     3 C    1.245     6 N    1.232
     3   6 C    3.819 --     4 C    1.583     2 C    1.245    44 H    0.995
     4   6 C    3.815 --     3 C    1.583     5 C    1.260    45 H    1.001
     5   6 C    3.884 --     7 C    1.339     4 C    1.260     6 N    1.218
     6   7 N    3.236 --     2 C    1.232     5 C    1.218    46 H    0.962
     7   6 C    3.829 --    17 C    1.370     5 C    1.339     8 C    1.051
     8   6 C    3.894 --    16 C    1.413     9 C    1.406     7 C    1.051
     9   6 C    3.820 --     8 C    1.406    10 C    1.402    47 H    0.992
    10   6 C    3.938 --     9 C    1.402    12 C    1.370    11 O    1.092
    11   8 O    2.110 --    10 C    1.092    48 H    0.963
    12   6 C    3.910 --    10 C    1.370    14 C    1.359    13 O    1.086
    13   8 O    2.099 --    12 C    1.086    49 H    0.963
    14   6 C    3.976 --    16 C    1.393    12 C    1.359    15 O    1.121
    15   8 O    2.156 --    14 C    1.121    50 H    0.965
    16   6 C    3.842 --     8 C    1.413    14 C    1.393    51 H    0.993
    17   6 C    3.913 --     7 C    1.370    20 N    1.342    18 C    1.168
    18   6 C    3.832 --    19 C    1.679    17 C    1.168    52 H    1.000
    19   6 C    3.838 --    18 C    1.679    21 C    1.173    53 H    1.001
    20   7 N    2.546 --    21 C    1.421    17 C    1.342
    21   6 C    3.935 --    20 N    1.421    22 C    1.269    19 C    1.173
    22   6 C    3.797 --    21 C    1.269    23 C    1.265   127 C    1.243
    23   6 C    3.895 --    24 C    1.281    22 C    1.265    27 N    1.253
    24   6 C    3.812 --    25 C    1.559    23 C    1.281    54 H    1.000
    25   6 C    3.799 --    24 C    1.559    26 C    1.273    55 H    1.000
    26   6 C    3.878 --    28 C    1.328    25 C    1.273    27 N    1.216
    27   7 N    3.256 --    23 C    1.253    26 C    1.216    56 H    0.962
    28   6 C    3.807 --    38 C    1.368    26 C    1.328    29 C    1.054
    29   6 C    3.894 --    30 C    1.412    37 C    1.404    28 C    1.054
    30   6 C    3.841 --    29 C    1.412    31 C    1.394    57 H    0.993
    31   6 C    3.976 --    30 C    1.394    33 C    1.359    32 O    1.122
    32   8 O    2.157 --    31 C    1.122    58 H    0.965
    33   6 C    3.909 --    35 C    1.370    31 C    1.359    34 O    1.086
    34   8 O    2.098 --    33 C    1.086    59 H    0.963
    35   6 C    3.937 --    37 C    1.402    33 C    1.370    36 O    1.090
    36   8 O    2.109 --    35 C    1.090    60 H    0.964
    37   6 C    3.816 --    29 C    1.404    35 C    1.402    61 H    0.992
    38   6 C    3.937 --    28 C    1.368    42 N    1.366    39 C    1.156
    39   6 C    3.840 --    40 C    1.700    38 C    1.156    62 H    1.001
    40   6 C    3.853 --    39 C    1.700    41 C    1.149    63 H    0.995
    41   6 C    3.965 --     1 C    1.378    42 N    1.378    40 C    1.149
    42   7 N    2.521 --    41 C    1.378    38 C    1.366
    43   1 H    1.037 --     1 C    0.997
    44   1 H    1.021 --     3 C    0.995
    45   1 H    1.029 --     4 C    1.001
    46   1 H    1.087 --     6 N    0.962
    47   1 H    1.028 --     9 C    0.992
    48   1 H    0.999 --    11 O    0.963
    49   1 H    0.994 --    13 O    0.963
    50   1 H    0.999 --    15 O    0.965
    51   1 H    1.035 --    16 C    0.993
    52   1 H    1.030 --    18 C    1.000
    53   1 H    1.037 --    19 C    1.001
    54   1 H    1.034 --    24 C    1.000
    55   1 H    1.029 --    25 C    1.000
    56   1 H    1.091 --    27 N    0.962
    57   1 H    1.035 --    30 C    0.993
    58   1 H    0.998 --    32 O    0.965
    59   1 H    0.995 --    34 O    0.963
    60   1 H    1.000 --    36 O    0.964
    61   1 H    1.028 --    37 C    0.992
    62   1 H    1.031 --    39 C    1.001
    63   1 H    1.023 --    40 C    0.995
    64   6 C    3.775 --   104 C    1.378    65 C    1.362   106 H    0.997
    65   6 C    3.921 --    64 C    1.362    66 C    1.245    69 N    1.232
    66   6 C    3.819 --    67 C    1.583    65 C    1.245   107 H    0.995
    67   6 C    3.815 --    66 C    1.583    68 C    1.260   108 H    1.001
    68   6 C    3.884 --    70 C    1.338    67 C    1.260    69 N    1.218
    69   7 N    3.236 --    65 C    1.232    68 C    1.218   109 H    0.962
    70   6 C    3.829 --    80 C    1.370    68 C    1.338    71 C    1.052
    71   6 C    3.894 --    79 C    1.413    72 C    1.405    70 C    1.052
    72   6 C    3.820 --    71 C    1.405    73 C    1.402   110 H    0.992
    73   6 C    3.938 --    72 C    1.402    75 C    1.370    74 O    1.092
    74   8 O    2.110 --    73 C    1.092   111 H    0.963
    75   6 C    3.910 --    73 C    1.370    77 C    1.359    76 O    1.086
    76   8 O    2.099 --    75 C    1.086   112 H    0.963
    77   6 C    3.976 --    79 C    1.393    75 C    1.359    78 O    1.121
    78   8 O    2.156 --    77 C    1.121   113 H    0.965
    79   6 C    3.842 --    71 C    1.413    77 C    1.393   114 H    0.993
    80   6 C    3.913 --    70 C    1.370    83 N    1.342    81 C    1.168
    81   6 C    3.832 --    82 C    1.679    80 C    1.168   115 H    1.000
    82   6 C    3.838 --    81 C    1.679    84 C    1.173   116 H    1.001
    83   7 N    2.546 --    84 C    1.421    80 C    1.342
    84   6 C    3.935 --    83 N    1.421    85 C    1.269    82 C    1.173
    85   6 C    3.797 --    84 C    1.269    86 C    1.265   134 C    1.243
    86   6 C    3.895 --    87 C    1.281    85 C    1.265    90 N    1.253
    87   6 C    3.814 --    88 C    1.559    86 C    1.281   117 H    1.000
    88   6 C    3.799 --    87 C    1.559    89 C    1.273   118 H    1.000
    89   6 C    3.878 --    91 C    1.328    88 C    1.273    90 N    1.216
    90   7 N    3.256 --    86 C    1.253    89 C    1.216   119 H    0.962
    91   6 C    3.807 --   101 C    1.368    89 C    1.328    92 C    1.053
    92   6 C    3.894 --    93 C    1.413   100 C    1.404    91 C    1.053
    93   6 C    3.841 --    92 C    1.413    94 C    1.394   120 H    0.993
    94   6 C    3.976 --    93 C    1.394    96 C    1.359    95 O    1.122
    95   8 O    2.157 --    94 C    1.122   121 H    0.965
    96   6 C    3.909 --    98 C    1.370    94 C    1.359    97 O    1.086
    97   8 O    2.098 --    96 C    1.086   122 H    0.963
    98   6 C    3.937 --   100 C    1.402    96 C    1.370    99 O    1.090
    99   8 O    2.109 --    98 C    1.090   123 H    0.964
   100   6 C    3.818 --    92 C    1.404    98 C    1.402   124 H    0.992
   101   6 C    3.938 --    91 C    1.368   105 N    1.366   102 C    1.156
   102   6 C    3.840 --   103 C    1.700   101 C    1.156   125 H    1.001
   103   6 C    3.853 --   102 C    1.700   104 C    1.149   126 H    0.995
   104   6 C    3.965 --    64 C    1.378   105 N    1.378   103 C    1.149
   105   7 N    2.521 --   104 C    1.378   101 C    1.366
   106   1 H    1.037 --    64 C    0.997
   107   1 H    1.021 --    66 C    0.995
   108   1 H    1.029 --    67 C    1.001
   109   1 H    1.087 --    69 N    0.962
   110   1 H    1.028 --    72 C    0.992
   111   1 H    0.999 --    74 O    0.963
   112   1 H    0.994 --    76 O    0.963
   113   1 H    0.999 --    78 O    0.965
   114   1 H    1.035 --    79 C    0.993
   115   1 H    1.030 --    81 C    1.000
   116   1 H    1.037 --    82 C    1.001
   117   1 H    1.034 --    87 C    1.000
   118   1 H    1.029 --    88 C    1.000
   119   1 H    1.091 --    90 N    0.962
   120   1 H    1.035 --    93 C    0.993
   121   1 H    0.998 --    95 O    0.965
   122   1 H    0.995 --    97 O    0.963
   123   1 H    1.000 --    99 O    0.964
   124   1 H    1.028 --   100 C    0.992
   125   1 H    1.031 --   102 C    1.001
   126   1 H    1.023 --   103 C    0.995
   127   6 C    3.747 --   128 C    2.432    22 C    1.243   130 C    0.159
   128   6 C    3.792 --   127 C    2.432   129 C    1.382
   129   6 C    3.795 --   130 C    2.315   128 C    1.382   132 C    0.153
   130   6 C    3.827 --   129 C    2.315   131 C    1.410   127 C    0.159
   131   6 C    3.827 --   132 C    2.315   130 C    1.410   134 C    0.159
   132   6 C    3.795 --   131 C    2.315   133 C    1.382   129 C    0.153
   133   6 C    3.792 --   134 C    2.432   132 C    1.382
   134   6 C    3.747 --   133 C    2.432    85 C    1.243   131 C    0.159
 ---------------------------------------------------------------------------

Topologies differ in total number of bonds
Writing topology from bond orders to xtbtopo.mol

 dipole moment from electron density (au)
     X       Y       Z   
 -40.9478   3.5823  -2.7715  total (Debye):  104.714


           -------------------------------------------------
          | TOTAL ENERGY             -284.670348047062 Eh   |
          | GRADIENT NORM               0.087640523626 Eh/α |
          | HOMO-LUMO GAP               0.232917629194 eV   |
           -------------------------------------------------
########################################################################
[WARNING] Runtime exception occurred
-1- restart_readRestart: Dimension missmatch in restart file.
########################################################################

------------------------------------------------------------------------
 * finished run on 2022/07/29 at 22:02:05.145     
------------------------------------------------------------------------
 total:
 * wall-time:     0 d,  0 h,  0 min,  5.406 sec
 *  cpu-time:     0 d,  0 h,  0 min,  5.385 sec
 * ratio c/w:     0.996 speedup
 SCF:
 * wall-time:     0 d,  0 h,  0 min,  5.146 sec
 *  cpu-time:     0 d,  0 h,  0 min,  5.128 sec
 * ratio c/w:     0.997 speedup

