252
 energy: -467.037016413345 gnorm: 4.158072912304 xtb: 6.5.1 (b24c23e)
Zn          53.15003800000000        0.14513700000000       -0.66809700000000
C           49.80558200000000        0.30093300000000       -0.57966300000000
C           50.45700300000000        1.46316400000000       -0.47853200000000
C           49.79425300000000        2.75975000000000       -0.40733400000000
C           50.72593499999999        3.68677000000000       -0.28392300000000
C           52.03724699999999        3.02401800000000       -0.25731100000000
N           51.87324000000000        1.61159700000000       -0.39114900000000
C           53.22370600000000        3.64940200000000       -0.10890900000000
C           53.25960400000000        5.11958100000000        0.06708800000000
C           52.77081500000000        5.70599100000000        1.24576400000000
C           52.81519100000000        7.10131200000000        1.42187000000000
C           52.29561200000000        7.72247300000000        2.66013100000000
O           52.34647400000000        9.10405800000000        2.82708000000000
O           51.80211199999999        7.00837100000000        3.57468800000000
C           53.36274399999999        7.90072600000000        0.40334500000000
C           53.85653000000000        7.31690100000000       -0.76622200000000
C           53.80770500000000        5.93210800000000       -0.93492500000000
C           54.52168400000000        2.92472300000000       -0.10253900000000
C           55.79934899999999        3.54124400000000        0.27506300000000
C           56.74240800000000        2.63151000000000        0.13730700000000
N           54.67593100000000        1.68474400000000       -0.45323600000000
C           56.07359300000000        1.42254800000000       -0.32754100000000
C           56.67855200000000        0.26784700000000       -0.65030800000000
C           55.92592999999999       -0.92336800000000       -1.10231700000000
C           56.46567999999999       -1.94494300000000       -1.75499500000000
C           55.43202699999999       -2.94947300000000       -1.91400300000000
C           54.33027200000000       -2.47647000000000       -1.34299200000000
N           54.55222600000000       -1.17244400000000       -0.80382300000000
C           53.05870200000000       -3.23405800000000       -1.21834300000000
C           53.09461200000000       -4.70889900000000       -1.37379600000000
C           53.83928699999999       -5.48953800000000       -0.47827700000000
C           53.89090499999999       -6.87610300000000       -0.63048500000000
C           53.20515800000000       -7.49429800000000       -1.67907200000000
C           52.46022299999999       -6.72720100000000       -2.59285500000000
C           51.73552500000000       -7.37598500000000       -3.70778700000000
O           50.99797500000000       -6.60919600000000       -4.60630600000000
O           51.77810600000000       -8.62755700000000       -3.85480500000000
C           52.41444700000000       -5.33077300000000       -2.43418900000000
C           51.89091100000000       -2.61218900000000       -0.96569000000000
C           50.58943299999999       -3.25374400000000       -0.78686600000000
C           49.71861199999999       -2.27717400000000       -0.61992300000000
C           50.45536500000000       -1.01574900000000       -0.67763800000000
N           51.72204400000000       -1.19877300000000       -0.87883700000000
H           48.72199300000000        0.31825500000000       -0.58900500000000
H           48.72903700000000        2.94686700000000       -0.45269500000000
H           50.52814799999999        4.74857600000000       -0.21715300000000
H           52.35890000000000        5.07040300000000        2.02080400000000
H           51.99322299999999        9.53959400000000        3.67076800000000
H           53.41166199999999        8.97709300000000        0.50960200000000
H           54.27869299999999        7.94015700000000       -1.54395000000000
H           54.19481200000000        5.49189300000000       -1.84577500000000
H           55.96068400000000        4.55722400000000        0.61072800000000
H           57.79477900000000        2.78321100000000        0.33712400000000
H           57.49203000000000       -2.03252700000000       -2.08543100000000
H           55.54948700000000       -3.91574600000000       -2.38720300000000
H           54.37617700000000       -5.02333500000000        0.33887000000000
H           54.46445100000000       -7.47395400000000        0.06604500000000
H           53.26028100000000       -8.57143300000000       -1.77535800000000
H           50.49796299999999       -7.04338900000000       -5.37291900000000
H           51.85479900000000       -4.72061200000000       -3.13311200000000
H           50.35736500000000       -4.31059800000000       -0.78596000000000
H           48.65510499999999       -2.40211500000000       -0.46410200000000
Zn          82.18471599999999        0.38964900000000       -0.62709800000000
C           85.52917200000000        0.21352800000000       -0.59431900000000
C           84.87775100000000       -0.91812400000000       -0.87781800000000
C           85.54049999999999       -2.16701800000000       -1.23343900000000
C           84.60881900000000       -3.08359200000000       -1.41915600000000
C           83.29750600000000       -2.46576800000000       -1.17782100000000
N           83.46151399999999       -1.08694100000000       -0.84363100000000
C           82.11104799999998       -3.10535400000000       -1.24152500000000
C           82.07514999999999       -4.55253100000000       -1.55470100000000
C           82.56393799999999       -5.49133200000000       -0.63176700000000
C           82.51956199999999       -6.86778100000000       -0.92042300000000
C           83.03914100000000       -7.85886900000000        0.04750200000000
O           82.98828000000000       -9.21934600000000       -0.24533000000000
O           83.53264200000000       -7.48213600000000        1.14496600000000
C           81.97200899999999       -7.29124700000000       -2.14399600000000
C           81.47822300000000       -6.35786100000000       -3.05916300000000
C           81.52704799999999       -4.99377900000000       -2.76694300000000
C           80.81307000000000       -2.42238800000000       -0.99912600000000
C           79.53540399999999       -3.12835700000000       -0.84327400000000
C           78.59234499999999       -2.22344600000000       -0.67675600000000
N           80.65882200000000       -1.13583600000000       -0.92618200000000
C           79.26115999999999       -0.92897900000000       -0.72183800000000
C           78.65620199999999        0.26784700000000       -0.65030800000000
C           79.40882400000000        1.54134900000000       -0.68904100000000
C           78.86907299999999        2.71994400000000       -0.97280200000000
C           79.90272600000000        3.72139800000000       -0.79545300000000
C           81.00448199999998        3.08801000000000       -0.40995800000000
N           80.78252800000000        1.67943800000000       -0.32562900000000
C           82.27605100000000        3.76350500000000       -0.04501400000000
C           82.24014199999999        5.20838900000000        0.28910300000000
C           81.49546700000000        5.65422900000000        1.39027400000000
C           81.44384899999999        7.01460600000000        1.69866400000000
C           82.12959499999998        7.94102100000000        0.90907300000000
C           82.87452999999999        7.51393900000000       -0.20494600000000
C           83.59922899999999        8.49091000000000       -1.04727700000000
O           84.33677899999999        8.05914100000000       -2.14676600000000
O           83.55664800000000        9.72198500000000       -0.77801300000000
C           82.92030699999998        6.14213300000000       -0.51044900000000
C           83.44384200000000        3.09323700000000       -0.00902200000000
C           84.74531999999999        3.64137400000000        0.36928500000000
C           85.61614200000000        2.66376200000000        0.20855700000000
C           84.87938800000001        1.49015400000000       -0.25745600000000
N           83.61270900000000        1.72879600000000       -0.38795100000000
H           86.61275999999999        0.20020100000000       -0.60880000000000
H           86.60571600000000       -2.32910500000000       -1.33735300000000
H           84.80660599999999       -4.10910300000000       -1.70238000000000
H           82.97585400000000       -5.14331100000000        0.30820100000000
H           83.34153100000000       -9.90625800000000        0.41015000000000
H           81.92309200000000       -8.34340300000000       -2.39464300000000
H           81.05606099999999       -6.69334800000000       -3.99764900000000
H           81.13994200000000       -4.28053700000000       -3.48438400000000
H           79.37406899999999       -4.19825700000000       -0.85736300000000
H           77.53997400000000       -2.43202600000000       -0.53735100000000
H           77.84272300000001        2.91051900000000       -1.25659600000000
H           79.78526700000000        4.78917200000000       -0.92759000000000
H           80.95857700000001        4.94698500000000        2.01066200000000
H           80.87030300000001        7.35256200000000        2.55210700000000
H           82.07447200000000        8.99065100000000        1.16939500000000
H           84.83679100000001        8.71964300000000       -2.72982500000000
H           83.47995400000001        5.79331900000000       -1.37017000000000
H           84.97738900000000        4.64013000000000        0.71486900000000
H           86.67964800000000        2.73104400000000        0.39660900000000
C           57.76526100000000        0.26784700000000       -0.65030800000000
C           58.98717899999999        0.26784700000000       -0.65030800000000
C           67.05641799999999        0.26784700000000       -0.65030800000000
C           68.27833600000000        0.26784700000000       -0.65030800000000
C           76.34757399999998        0.26784700000000       -0.65030800000000
C           77.56949199999998        0.26784700000000       -0.65030800000000
Zn          62.80925299999999       -0.22211600000000        0.03755900000000
C           59.88727600000000       -0.28541100000000        0.69295100000000
C           60.22418300000000       -1.29599000000000       -0.10933000000000
C           59.92069899999999       -1.35274400000000       -1.54104000000000
C           60.76325499999999       -2.19485300000000       -2.11969200000000
C           61.73597400000000       -2.61795200000000       -1.10953800000000
N           61.37535799999999       -2.08676500000000        0.16279200000000
C           62.96053299999999       -3.10286000000000       -1.38348400000000
C           63.24470599999999       -3.79699600000000       -2.66772000000000
C           62.37830000000000       -4.80058300000000       -3.13877300000000
C           62.64146800000000       -5.47043200000000       -4.34785000000000
C           61.72577699999999       -6.52209500000000       -4.84307000000000
O           62.00017699999999       -7.18714600000000       -6.03546600000000
O           60.68920700000000       -6.82529800000000       -4.19208700000000
C           63.78981500000000       -5.12897200000000       -5.08125100000000
C           64.65716999999999       -4.13891100000000       -4.61561400000000
C           64.38989900000000       -3.47664200000000       -3.41659600000000
C           64.09162400000000       -2.70299500000000       -0.52093900000000
C           65.22495700000000       -3.55306400000000       -0.15181900000000
C           66.13205100000000       -2.77785100000000        0.42385700000000
N           64.30646900000001       -1.46278300000000       -0.21689300000000
C           65.59172400000000       -1.41987600000000        0.39064400000000
C           66.24906000000000       -0.28541100000000        0.69295100000000
C           65.64005000000000        1.05073400000000        0.47123000000000
C           66.31180000000001        2.18755200000000        0.33522100000000
C           65.33390600000000        3.24555300000000        0.10883200000000
C           64.12796899999999        2.68560200000000        0.13494700000000
N           64.23910500000000        1.27977400000000        0.35829000000000
C           62.82742000000000        3.40889100000000       -0.01306500000000
C           62.81971200000000        4.88757900000000       -0.10217900000000
C           62.33172399999999        5.52286200000000       -1.25330700000000
C           62.32282200000000        6.91622500000000       -1.33562300000000
C           62.80014900000000        7.68627400000000       -0.27216100000000
C           63.29271299999999        7.06685700000000        0.89064900000000
C           63.79916100000000        7.87740500000000        2.02009000000000
O           64.28756600000000        7.25615700000000        3.16662800000000
O           63.79385300000000        9.13667600000000        1.95548600000000
C           63.29694099999999        5.66276800000000        0.96687400000000
C           61.65853900000000        2.73522800000000       -0.00084000000000
C           60.30708500000000        3.29440700000000        0.08766400000000
C           59.49042499999999        2.26721500000000        0.28824200000000
C           60.30994499999999        1.05594900000000        0.28656200000000
N           61.56200400000000        1.32710900000000        0.13151000000000
H           59.14793099999999       -0.79555200000000       -2.05464800000000
H           60.79922100000000       -2.39468500000000       -3.18270800000000
H           61.50345200000000       -5.06225900000000       -2.55551300000000
H           61.37967100000000       -7.90816800000000       -6.38382400000000
H           64.01963400000000       -5.62653200000000       -6.01499900000000
H           65.53934099999999       -3.88222500000000       -5.18782100000000
H           65.07162800000000       -2.70493900000000       -3.08131800000000
H           65.32398499999999       -4.61565400000000       -0.32984700000000
H           67.09713800000000       -3.10350300000000        0.78843700000000
H           67.38640100000001        2.30816400000000        0.36352500000000
H           65.55603000000001        4.29280300000000       -0.04635400000000
H           61.96128000000000        4.93789600000000       -2.08631500000000
H           61.94572400000000        7.40138200000000       -2.22667700000000
H           62.78330100000000        8.76538100000000       -0.36044500000000
H           64.63638600000000        7.80190900000000        3.94552700000000
H           63.66627900000000        5.16602600000000        1.85612400000000
H           60.01548700000000        4.33629200000000        0.06483500000000
H           58.42162300000000        2.32943600000000        0.44408800000000
Zn          72.10041000000000       -0.22211600000000        0.03755900000000
C           69.17843300000000       -0.28541100000000        0.69295100000000
C           69.51533999999999       -1.29599000000000       -0.10933000000000
C           69.21185600000000       -1.35274400000000       -1.54104000000000
C           70.05441199999999       -2.19485300000000       -2.11969200000000
C           71.02713100000000       -2.61795200000000       -1.10953800000000
N           70.66651499999999       -2.08676500000000        0.16279200000000
C           72.25168900000000       -3.10286000000000       -1.38348400000000
C           72.53586300000001       -3.79699600000000       -2.66772000000000
C           71.66945699999999       -4.80058300000000       -3.13877300000000
C           71.93262400000000       -5.47043200000000       -4.34785000000000
C           71.01693400000001       -6.52209500000000       -4.84307000000000
O           71.29133299999999       -7.18714600000000       -6.03546600000000
O           69.98036399999999       -6.82529800000000       -4.19208700000000
C           73.08097099999999       -5.12897200000000       -5.08125100000000
C           73.94832699999999       -4.13891100000000       -4.61561400000000
C           73.68105600000000       -3.47664200000000       -3.41659600000000
C           73.38278099999999       -2.70299500000000       -0.52093900000000
C           74.51611300000000       -3.55306400000000       -0.15181900000000
C           75.42320800000000       -2.77785100000000        0.42385700000000
N           73.59762499999999       -1.46278300000000       -0.21689300000000
C           74.88288100000000       -1.41987600000000        0.39064400000000
C           75.54021600000000       -0.28541100000000        0.69295100000000
C           74.93120600000000        1.05073400000000        0.47123000000000
C           75.60295700000000        2.18755200000000        0.33522100000000
C           74.62506200000000        3.24555300000000        0.10883200000000
C           73.41912600000001        2.68560200000000        0.13494700000000
N           73.53026199999999        1.27977400000000        0.35829000000000
C           72.11857700000000        3.40889100000000       -0.01306500000000
C           72.11086899999999        4.88757900000000       -0.10217900000000
C           71.62288100000001        5.52286200000000       -1.25330700000000
C           71.61397900000000        6.91622500000000       -1.33562300000000
C           72.09130500000001        7.68627400000000       -0.27216100000000
C           72.58386900000001        7.06685700000000        0.89064900000000
C           73.09031699999998        7.87740500000000        2.02009000000000
O           73.57872299999998        7.25615700000000        3.16662800000000
O           73.08500900000000        9.13667600000000        1.95548600000000
C           72.58809800000000        5.66276800000000        0.96687400000000
C           70.94969600000000        2.73522800000000       -0.00084000000000
C           69.59824100000000        3.29440700000000        0.08766400000000
C           68.78158200000000        2.26721500000000        0.28824200000000
C           69.60110199999998        1.05594900000000        0.28656200000000
N           70.85316000000000        1.32710900000000        0.13151000000000
H           68.43908799999998       -0.79555200000000       -2.05464800000000
H           70.09037799999999       -2.39468500000000       -3.18270800000000
H           70.79460899999998       -5.06225900000000       -2.55551300000000
H           70.67082799999999       -7.90816800000000       -6.38382400000000
H           73.31079000000000       -5.62653200000000       -6.01499900000000
H           74.83049799999999       -3.88222500000000       -5.18782100000000
H           74.36278399999999       -2.70493900000000       -3.08131800000000
H           74.61514200000001       -4.61565400000000       -0.32984700000000
H           76.38829400000000       -3.10350300000000        0.78843700000000
H           76.67755699999999        2.30816400000000        0.36352500000000
H           74.84718700000001        4.29280300000000       -0.04635400000000
H           71.25243600000000        4.93789600000000       -2.08631500000000
H           71.23688000000000        7.40138200000000       -2.22667700000000
H           72.07445800000001        8.76538100000000       -0.36044500000000
H           73.92754299999999        7.80190900000000        3.94552700000000
H           72.95743600000000        5.16602600000000        1.85612400000000
H           69.30664400000001        4.33629200000000        0.06483500000000
H           67.71277900000000        2.32943600000000        0.44408800000000
252
 energy: -467.980032181442 gnorm: 0.843804810364 xtb: 6.5.1 (b24c23e)
Zn          53.15130449560212        0.14663310831685       -0.66777037063552
C           49.80606034243517        0.29384834109761       -0.58013080503725
C           50.46107391552647        1.46528450483720       -0.47821111909204
C           49.79316870569188        2.75726204527316       -0.40760671338708
C           50.72924061666336        3.68814283641979       -0.28358958166410
C           52.03493658488172        3.02009464144245       -0.25780745713164
N           51.86621841259004        1.61858969403989       -0.39106801577815
C           53.23008698504778        3.64806137721155       -0.10840278218954
C           53.26016789134025        5.12059633006971        0.06802428741673
C           52.77096230830542        5.70725647600459        1.24502420431595
C           52.81556500159370        7.10332513504067        1.42136748119236
C           52.29144242703956        7.72145260527721        2.66897484570921
O           52.34643601806201        9.10078625687821        2.82647934194874
O           51.80537794933096        7.01375599940096        3.56872410244279
C           53.36301136514680        7.89991300040457        0.40261718765385
C           53.85585694953615        7.31626842785366       -0.76496841841300
C           53.80752661601701        5.93301840653273       -0.93384619087275
C           54.51735627776116        2.93288923626951       -0.10142429298671
C           55.79236210257314        3.54596122577913        0.27525564600168
C           56.73655008761605        2.62948159584810        0.13493470042134
N           54.67932393156882        1.68320311904564       -0.45245442112144
C           56.05889014435316        1.43204386939673       -0.32472925273877
C           56.61989077072210        0.26100328607801       -0.65174389314272
C           55.91360401572666       -0.92229337929480       -1.09896325337567
C           56.46569610330535       -1.95350035403162       -1.75848856342127
C           55.44101570804501       -2.94994656853360       -1.91628002040831
C           54.32351787065838       -2.47352545067827       -1.33844139015903
N           54.55483855187197       -1.17641350362315       -0.80662616227801
C           53.06345223068431       -3.23170921386264       -1.21859424650196
C           53.09547282879205       -4.70904592012076       -1.37467408108259
C           53.83896726601157       -5.49030802637419       -0.47924855032309
C           53.88974239371995       -6.87542362941769       -0.63183755919782
C           53.20495941467646       -7.49324348114875       -1.67918060603375
C           52.45937728283543       -6.72541810462220       -2.59366686247787
C           51.73311717730927       -7.38417754670290       -3.71261740236546
O           50.99972190514858       -6.61079085539826       -4.60406738083819
O           51.77741748888158       -8.61884434728951       -3.85423780883137
C           52.41489897341085       -5.33093628249481       -2.43303044421716
C           51.88917087032998       -2.61154327758855       -0.96538095159730
C           50.59273270466524       -3.25484082024241       -0.78748963834460
C           49.71545024555719       -2.27310719533373       -0.61937006159235
C           50.44780824057690       -1.01179054796737       -0.67705283955451
N           51.72299707665885       -1.20397491608786       -0.87883694737459
H           48.72208673153226        0.31757098680015       -0.58889395526813
H           48.72907544548399        2.94561447278215       -0.45278073827231
H           50.52962829097752        4.74866632971913       -0.21702149617965
H           52.35891518568953        5.07082097418511        2.02091726338538
H           51.99470866420673        9.53417163601981        3.66652673991951
H           53.41148440528348        8.97701893892415        0.50998907703890
H           54.27863134765042        7.94013531635397       -1.54385376921772
H           54.19469656564014        5.49171673872228       -1.84556856193478
H           55.95952268088501        4.55772836501181        0.61072953857141
H           57.77654678230801        2.79110591560569        0.33456058175070
H           57.49163020095173       -2.03307969378504       -2.08572621509697
H           55.55009994810369       -3.91551709444721       -2.38745549629427
H           54.37603964262917       -5.02315663705800        0.33868107392185
H           54.46431442645225       -7.47390834231831        0.06587681489599
H           53.25991467786792       -8.57136509787888       -1.77588814793716
H           50.50209072792503       -7.04333803041667       -5.36719505272361
H           51.85486263205817       -4.72083253150495       -3.13310692182205
H           50.35877714022726       -4.31050559592480       -0.78614311948521
H           48.65481874214976       -2.40104980474609       -0.46400742424263
Zn          82.18338843894223        0.38807015066136       -0.62729709954680
C           85.52871804411680        0.22045542231341       -0.59244185079987
C           84.87363021275431       -0.92030128693041       -0.87823605303140
C           85.54159427907095       -2.16453103664259       -1.23288795460639
C           84.60544829387949       -3.08500531894894       -1.41930288085285
C           83.29983125234040       -2.46199033386975       -1.17702896527135
N           83.46861539321361       -1.09352769710064       -0.84584263069431
C           82.10457809105593       -3.10425838816399       -1.24060570684237
C           82.07459377457879       -4.55376484848424       -1.55417246264685
C           82.56379190803275       -5.49227396075604       -0.63289057030531
C           82.51919250923169       -6.86952338488019       -0.92155279963163
C           83.04329334292019       -7.86073159923824        0.05616532635454
O           82.98832114050244       -9.21609936486652       -0.24484451624313
O           83.52939179601466       -7.48529788775816        1.13757593681261
C           81.97173953348161       -7.29024169573612       -2.14443326561427
C           81.47889671565625       -6.35766678847570       -3.05777753498869
C           81.52722885323065       -4.99498999836919       -2.76622862560212
C           80.81667484168129       -2.43071437385834       -1.00067985189881
C           79.54070823122899       -3.13252527395495       -0.84447755067826
C           78.59184922027326       -2.21890287720655       -0.67685257983393
N           80.65498349588110       -1.13450583462942       -0.92456286748177
C           79.27526128521140       -0.93928414500911       -0.72286513080431
C           78.71395713300562        0.27506935011738       -0.64929485000080
C           79.42105291413131        1.53941225346837       -0.68571211003974
C           78.86897490338009        2.72901822208612       -0.97348594786167
C           79.89387291813607        3.72261157242991       -0.79737631089199
C           81.01114517971396        3.08380249439354       -0.40667508764641
N           80.77985059748511        1.68410207499402       -0.32696343438485
C           82.27136719198387        3.76136293177257       -0.04603234831660
C           82.23928426437624        5.20878117392284        0.28831472021126
C           81.49579878082676        5.65527807709250        1.38958906402714
C           81.44500936895584        7.01440960186874        1.69715025075229
C           82.12979415435225        7.94006878796014        0.90861789325435
C           82.87538192867072        7.51251728600064       -0.20631311861893
C           83.60165809821645        8.50021102978249       -1.04917581865234
O           84.33501319017650        8.05993095348949       -2.14413927198954
O           83.55731532864898        9.71358129467337       -0.78033204257008
C           82.91984621287452        6.14191719091236       -0.50930696493692
C           83.44557436000798        3.09255593857565       -0.00896423647728
C           84.74202611697179        3.64261950181188        0.36904979981969
C           85.61930565072791        2.65974112359082        0.20774184785113
C           84.88696104107620        1.48618707623006       -0.25821020367408
N           83.61174032118920        1.73371466125165       -0.38627102276275
H           86.61267176436962        0.20081754651891       -0.60848195696772
H           86.60568170576730       -2.32788805557104       -1.33703538413692
H           84.80512493068643       -4.10923273055716       -1.70229728850665
H           82.97583861384166       -5.14374011485035        0.30816080851988
H           83.34004839907601       -9.89973782029670        0.40790126091143
H           81.92326898019050       -8.34346020564297       -2.39426387885378
H           81.05611998837026       -6.69335943618981       -3.99756144753797
H           81.14005324791742       -4.28043778381524       -3.48413645352826
H           79.37523690994168       -4.19872492769133       -0.85752876638686
H           77.54072510732846       -2.43015107795001       -0.53779386479675
H           77.84314259099611        2.91102139883660       -1.25713484474882
H           79.78466014168914        4.78906158622411       -0.92790058933227
H           80.95871628829839        4.94687687993336        2.01041683566728
H           80.87044176965180        7.35258150865640        2.55193337567926
H           82.07484228348018        8.99076386486457        1.16886645097177
H           84.83266868646270        8.71772640702477       -2.72444057064728
H           83.47989005815535        5.79352751427789       -1.37009769382005
H           84.97598055618410        4.64010947106873        0.71465716470847
H           86.67993918038862        2.73001087276939        0.39633856217914
C           57.81619910656581        0.26713843011527       -0.65004870683822
C           59.00325567019584        0.27424183208460       -0.64120840297620
C           67.04852178817791        0.26725407824263       -0.64328275562513
C           68.28318541160614        0.27736834558416       -0.64148155764689
C           76.32763485392714        0.26152128143908       -0.64513118204456
C           77.51894931800858        0.26861215983847       -0.65099087865524