      -----------------------------------------------------------      
     |                   =====================                   |     
     |                           x T B                           |     
     |                   =====================                   |     
     |                         S. Grimme                         |     
     |          Mulliken Center for Theoretical Chemistry        |     
     |                    University of Bonn                     |     
      -----------------------------------------------------------      

   * xtb version 6.5.1 (b24c23e) compiled by 'conda@728c89f4b128' on 2022-07-12

   xtb is free software: you can redistribute it and/or modify it under
   the terms of the GNU Lesser General Public License as published by
   the Free Software Foundation, either version 3 of the License, or
   (at your option) any later version.
   
   xtb is distributed in the hope that it will be useful,
   but WITHOUT ANY WARRANTY; without even the implied warranty of
   MERCHANTABILITY or FITNESS FOR A PARTICULAR PURPOSE.  See the
   GNU Lesser General Public License for more details.
   
   Cite this work as:
   * C. Bannwarth, E. Caldeweyher, S. Ehlert, A. Hansen, P. Pracht,
     J. Seibert, S. Spicher, S. Grimme, WIREs Comput. Mol. Sci., 2020, 11,
     e01493. DOI: 10.1002/wcms.1493
   
   for GFN2-xTB:
   * C. Bannwarth, S. Ehlert and S. Grimme., J. Chem. Theory Comput., 2019,
     15, 1652-1671. DOI: 10.1021/acs.jctc.8b01176
   for GFN1-xTB:
   * S. Grimme, C. Bannwarth, P. Shushkov, J. Chem. Theory Comput., 2017,
     13, 1989-2009. DOI: 10.1021/acs.jctc.7b00118
   for GFN0-xTB:
   * P. Pracht, E. Caldeweyher, S. Ehlert, S. Grimme, ChemRxiv, 2019, preprint.
     DOI: 10.26434/chemrxiv.8326202.v1
   for GFN-FF:
   * S. Spicher and S. Grimme, Angew. Chem. Int. Ed., 2020, 59, 15665-15673.
     DOI: 10.1002/anie.202004239
   
   for ALPB and GBSA implicit solvation:
   * S. Ehlert, M. Stahn, S. Spicher, S. Grimme, J. Chem. Theory Comput.,
     2021, 17, 4250-4261. DOI: 10.1021/acs.jctc.1c00471
   
   for DFT-D4:
   * E. Caldeweyher, C. Bannwarth and S. Grimme, J. Chem. Phys., 2017,
     147, 034112. DOI: 10.1063/1.4993215
   * E. Caldeweyher, S. Ehlert, A. Hansen, H. Neugebauer, S. Spicher,
     C. Bannwarth and S. Grimme, J. Chem. Phys., 2019, 150, 154122.
     DOI: 10.1063/1.5090222
   * E. Caldeweyher, J.-M. Mewes, S. Ehlert and S. Grimme, Phys. Chem. Chem. Phys.
     2020, 22, 8499-8512. DOI: 10.1039/D0CP00502A
   
   for sTDA-xTB:
   * S. Grimme and C. Bannwarth, J. Chem. Phys., 2016, 145, 054103.
     DOI: 10.1063/1.4959605
   
   in the mass-spec context:
   * V. Asgeirsson, C. Bauer and S. Grimme, Chem. Sci., 2017, 8, 4879.
     DOI: 10.1039/c7sc00601b
   * J. Koopman and S. Grimme, ACS Omega 2019, 4, 12, 15120-15133.
     DOI: 10.1021/acsomega.9b02011
   
   for metadynamics refer to:
   * S. Grimme, J. Chem. Theory Comput., 2019, 155, 2847-2862
     DOI: 10.1021/acs.jctc.9b00143
   
   for SPH calculations refer to:
   * S. Spicher and S. Grimme, J. Chem. Theory Comput., 2021, 17, 1701-1714
     DOI: 10.1021/acs.jctc.0c01306
   
   with help from (in alphabetical order)
   P. Atkinson, C. Bannwarth, F. Bohle, G. Brandenburg, E. Caldeweyher
   M. Checinski, S. Dohm, S. Ehlert, S. Ehrlich, I. Gerasimov, C. Hölzer
   A. Katbashev, J. Koopman, C. Lavigne, S. Lehtola, F. März, M. Müller,
   F. Musil, H. Neugebauer, J. Pisarek, C. Plett, P. Pracht, F. Pultar,
   J. Seibert, P. Shushkov, S. Spicher, M. Stahn, M. Steiner, T. Strunk,
   J. Stückrath, T. Rose, and J. Unsleber
   
 * started run on 2022/07/30 at 10:48:10.617     

           -------------------------------------------------
          |                Calculation Setup                |
           -------------------------------------------------

          program call               : xtb Zn_C2Py_C4_4.xyz --gfn 1 --opt -T 48
          hostname                   : cx3-14-28.cx3.hpc.ic.ac.uk
          coordinate file            : Zn_C2Py_C4_4.xyz
          omp threads                :                     1

   ID    Z sym.   atoms
    1   30 Zn     1, 59, 129, 186
    2    6 C      2-6, 8-13, 15-19, 21-26, 28-33, 35-40, 60-64, 66-71, 73-77,
                  79-84, 86-91, 93-98, 117-128, 130-134, 136-141, 143-147,
                  149-154, 156-161, 163-168, 187-191, 193-198, 200-204,
                  206-211, 213-218, 220-225
    3    7 N      7, 14, 20, 27, 34, 41, 65, 72, 78, 85, 92, 99, 135, 142,
                  148, 155, 162, 169, 192, 199, 205, 212, 219, 226
    4    1 H      42-58, 100-116, 170-185, 227-242
########################################################################
[WARNING] Please study the warnings concerning your input carefully
-1- prog_main_parseArguments: Unknown option '-T' provided
########################################################################

           -------------------------------------------------
          |                 G F N 1 - x T B                 |
           -------------------------------------------------

        Reference                      10.1021/acs.jctc.7b00118
      * Hamiltonian:
        H0-scaling (s, p, d)           1.850000    2.250000    2.000000
        zeta-weighting                 0.000000
      * Dispersion:
        s8                             2.400000
        a1                             0.630000
        a2                             5.000000
        s9                             0.000000
      * Repulsion:
        kExp                           1.500000
        rExp                           1.000000
      * Coulomb:
        alpha                          2.000000
        third order                    atomic
        anisotropic                    false
      * Halogen bond correction:
        rad-scale                      1.300000
        damping                        0.440000


          ...................................................
          :                      SETUP                      :
          :.................................................:
          :  # basis functions                 836          :
          :  # atomic orbitals                 836          :
          :  # shells                          484          :
          :  # electrons                       786          :
          :  # halogen bonds                     0          :
          :  max. iterations                   250          :
          :  Hamiltonian                  GFN1-xTB          :
          :  restarted?                      false          :
          :  GBSA solvation                  false          :
          :  PC potential                    false          :
          :  electronic temp.          300.0000000     K    :
          :  accuracy                    1.0000000          :
          :  -> integral cutoff          0.2500000E+02      :
          :  -> integral neglect         0.1000000E-07      :
          :  -> SCF convergence          0.1000000E-05 Eh   :
          :  -> wf. convergence          0.2000000E-04 e    :
          :  Broyden damping             0.4000000          :
          ...................................................

 iter      E             dE          RMSdq      gap      omega  full diag
   1   -433.0994974 -0.433099E+03  0.105E+01    0.34       0.0  T
   2   -433.2435259 -0.144028E+00  0.636E+00    0.31       1.0  T
   3   -391.0037367  0.422398E+02  0.468E+00    0.05       1.0  T
   4   -252.1296649  0.138874E+03  0.670E+00    0.03       1.0  T
   5   -420.5407241 -0.168411E+03  0.256E+00    0.20       1.0  T
   6   -429.8569410 -0.931622E+01  0.162E+00    0.09       1.0  T
   7   -433.2726051 -0.341566E+01  0.788E-01    0.25       1.0  T
   8   -433.0448864  0.227719E+00  0.583E-01    0.06       1.0  T
   9   -433.4303664 -0.385480E+00  0.410E-01    0.10       1.0  T
  10   -433.5525239 -0.122157E+00  0.221E-01    0.40       1.0  T
  11   -433.5619645 -0.944063E-02  0.151E-01    0.37       1.0  T
  12   -433.5728037 -0.108392E-01  0.118E-01    0.37       1.0  T
  13   -433.5781568 -0.535308E-02  0.777E-02    0.36       1.0  T
  14   -433.5818176 -0.366081E-02  0.584E-02    0.35       1.0  T
  15   -433.5824672 -0.649539E-03  0.526E-02    0.34       1.0  T
  16   -433.5836622 -0.119506E-02  0.444E-02    0.33       1.0  T
  17   -433.5842702 -0.607998E-03  0.334E-02    0.32       1.0  T
  18   -433.5847345 -0.464236E-03  0.227E-02    0.32       1.0  T
  19   -433.5849113 -0.176881E-03  0.175E-02    0.31       1.0  T
  20   -433.5850024 -0.911020E-04  0.140E-02    0.31       1.0  T
  21   -433.5850729 -0.704217E-04  0.102E-02    0.31       1.0  T
  22   -433.5851285 -0.556270E-04  0.621E-03    0.31       1.0  T
  23   -433.5851477 -0.192354E-04  0.344E-03    0.31       1.9  T
  24   -433.5851515 -0.382004E-05  0.193E-03    0.31       3.3  T
  25   -433.5851542 -0.265292E-05  0.872E-04    0.31       7.4  T
  26   -433.5851548 -0.607854E-06  0.319E-04    0.31      20.2  T
  27   -433.5851549 -0.756492E-07  0.153E-04    0.31      42.0  T
  28   -433.5851549 -0.137051E-07  0.120E-04    0.31      53.5  T

   *** convergence criteria satisfied after 28 iterations ***

         #    Occupation            Energy/Eh            Energy/eV
      -------------------------------------------------------------
         1        2.0000           -0.7721270             -21.0106
       ...           ...                  ...                  ...
       387        2.0000           -0.3964682             -10.7884
       388        2.0000           -0.3947414             -10.7415
       389        2.0000           -0.3885258             -10.5723
       390        2.0000           -0.3872549             -10.5377
       391        2.0000           -0.3848897             -10.4734
       392        2.0000           -0.3801754             -10.3451
       393        1.9955           -0.3694701             -10.0538 (HOMO)
       394        0.0045           -0.3579056              -9.7391 (LUMO)
       395                         -0.3437362              -9.3535
       396                         -0.3415436              -9.2939
       397                         -0.3403743              -9.2621
       398                         -0.3391224              -9.2280
       ...                                ...                  ...
       836                          1.3603196              37.0162
      -------------------------------------------------------------
                  HL-Gap            0.0115645 Eh            0.3147 eV
             Fermi-level           -0.3636879 Eh           -9.8965 eV

 SCC (total)                   0 d,  0 h,  0 min, 11.520 sec
 SCC setup                      ...        0 min,  0.024 sec (  0.209%)
 Dispersion                     ...        0 min,  0.017 sec (  0.151%)
 classical contributions        ...        0 min,  0.005 sec (  0.044%)
 integral evaluation            ...        0 min,  0.459 sec (  3.981%)
 iterations                     ...        0 min,  9.959 sec ( 86.450%)
 molecular gradient             ...        0 min,  0.975 sec (  8.465%)
 printout                       ...        0 min,  0.081 sec (  0.699%)

         :::::::::::::::::::::::::::::::::::::::::::::::::::::
         ::                     SUMMARY                     ::
         :::::::::::::::::::::::::::::::::::::::::::::::::::::
         :: total energy            -426.433501521622 Eh    ::
         :: gradient norm              0.797693769984 Eh/a0 ::
         :: HOMO-LUMO gap              0.314685348538 eV    ::
         ::.................................................::
         :: SCC energy              -433.585154893696 Eh    ::
         :: -> electrostatic           0.406234487033 Eh    ::
         :: repulsion energy           7.356043543076 Eh    ::
         :: dispersion energy         -0.204390171002 Eh    ::
         :: halogen bond corr.         0.000000000000 Eh    ::
         :: add. restraining           0.000000000000 Eh    ::
         :: total charge              -0.000000000000 e     ::
         :::::::::::::::::::::::::::::::::::::::::::::::::::::

      ----------------------------------------------------------- 
     |                   =====================                   |
     |                        A N C O P T                        |
     |                   =====================                   |
     |               Approximate Normal Coordinate               |
     |                Rational Function Optimizer                |
      ----------------------------------------------------------- 

          ...................................................
          :                      SETUP                      :
          :.................................................:
          :   optimization level            normal          :
          :   max. optcycles                   726          :
          :   ANC micro-cycles                  20          :
          :   degrees of freedom               720          :
          :.................................................:
          :   RF solver                   davidson          :
          :   write xtbopt.log                true          :
          :   linear?                        false          :
          :   energy convergence         0.5000000E-05 Eh   :
          :   grad. convergence          0.1000000E-02 Eh/α :
          :   maximium RF displ.         1.0000000          :
          :   Hlow (freq-cutoff)         0.1000000E-01      :
          :   Hmax (freq-cutoff)         5.0000000          :
          :   S6 in model hess.         20.0000000          :
          ...................................................

generating ANC from model Hessian ...
Using Lindh-Hessian (1995)
 Shifting diagonal of input Hessian by    1.0065801500912531E-002
 Lowest  eigenvalues of input Hessian
    0.010000    0.010033    0.010040    0.010045    0.010053    0.010056
    0.010057    0.010059    0.010061    0.010063    0.000000    0.000000
    0.000000    0.000000    0.000000    0.000000    0.010071    0.010097
 Highest eigenvalues
    2.591549    2.591553    2.592994    2.592995    2.594557    2.594557


........................................................................
.............................. CYCLE    1 ..............................
........................................................................
   1   -433.5851549 -0.433585E+03  0.898E-05    0.31       0.0  T
   2   -433.5851549  0.130375E-07  0.244E-04    0.31      26.4  T
   3   -433.5851549 -0.165011E-07  0.139E-04    0.31      46.3  T
   4   -433.5851549 -0.199628E-08  0.117E-04    0.31      54.8  T
     SCC iter.                  ...        0 min,  1.450 sec
     gradient                   ...        0 min,  1.042 sec
 * total energy  :  -426.4335015 Eh     change       -0.1061636E-07 Eh
   gradient norm :     0.7976948 Eh/α   predicted     0.0000000E+00 (-100.00%)
   displ. norm   :     0.5995613 α      lambda       -0.4091478E+00
   maximum displ.:     0.1287854 α      in ANC's #467, #591, #461, ...

........................................................................
.............................. CYCLE    2 ..............................
........................................................................
   1   -433.8139377 -0.433814E+03  0.146E-01    0.45       0.0  T
   2   -433.8149212 -0.983529E-03  0.107E-01    0.42       1.0  T
   3   -433.8188852 -0.396399E-02  0.693E-02    0.47       1.0  T
   4   -433.8208043 -0.191906E-02  0.351E-02    0.43       1.0  T
   5   -433.8205666  0.237708E-03  0.281E-02    0.46       1.0  T
   6   -433.8211943 -0.627692E-03  0.152E-02    0.44       1.0  T
   7   -433.8213416 -0.147289E-03  0.385E-03    0.44       1.7  T
   8   -433.8213536 -0.120241E-04  0.120E-03    0.44       5.4  T
   9   -433.8213544 -0.816953E-06  0.528E-04    0.44      12.2  T
  10   -433.8213546 -0.161585E-06  0.262E-04    0.44      24.5  T
  11   -433.8213546 -0.606736E-07  0.126E-04    0.44      51.1  T
  12   -433.8213546 -0.130924E-07  0.400E-05    0.44     160.9  T
     SCC iter.                  ...        0 min,  4.375 sec
     gradient                   ...        0 min,  1.080 sec
 * total energy  :  -426.7845505 Eh     change       -0.3510490E+00 Eh
   gradient norm :     0.5367207 Eh/α   predicted    -0.2781559E+00 ( -20.76%)
   displ. norm   :     0.7278722 α      lambda       -0.3540043E+00
   maximum displ.:     0.1565393 α      in ANC's #461, #467, #561, ...

........................................................................
.............................. CYCLE    3 ..............................
........................................................................
   1   -434.1903988 -0.434190E+03  0.171E-01    0.70       0.0  T
   2   -434.1941865 -0.378773E-02  0.978E-02    0.68       1.0  T
   3   -434.1972493 -0.306275E-02  0.659E-02    0.71       1.0  T
   4   -434.1993006 -0.205134E-02  0.375E-02    0.69       1.0  T
   5   -434.1997182 -0.417569E-03  0.173E-02    0.70       1.0  T
   6   -434.1998539 -0.135693E-03  0.930E-03    0.69       1.0  T
   7   -434.1999541 -0.100186E-03  0.172E-03    0.70       3.7  T
   8   -434.1999555 -0.138775E-05  0.105E-03    0.70       6.1  T
   9   -434.1999566 -0.115787E-05  0.302E-04    0.70      21.3  T
  10   -434.1999567 -0.515217E-07  0.116E-04    0.70      55.2  T
  11   -434.1999567 -0.618013E-08  0.313E-05    0.70     205.1  T
     SCC iter.                  ...        0 min,  4.038 sec
     gradient                   ...        0 min,  1.056 sec
 * total energy  :  -426.9996092 Eh     change       -0.2150587E+00 Eh
   gradient norm :     0.3327568 Eh/α   predicted    -0.2708209E+00 (  25.93%)
   displ. norm   :     0.6698396 α      lambda       -0.1466312E+00
   maximum displ.:     0.1561766 α      in ANC's #216, #228, #212, ...

........................................................................
.............................. CYCLE    4 ..............................
........................................................................
   1   -434.3158203 -0.434316E+03  0.780E-02    0.73       0.0  T
   2   -434.3164670 -0.646694E-03  0.529E-02    0.72       1.0  T
   3   -434.3172361 -0.769122E-03  0.250E-02    0.73       1.0  T
   4   -434.3173325 -0.963489E-04  0.221E-02    0.73       1.0  T
   5   -434.3175466 -0.214121E-03  0.708E-03    0.73       1.0  T
   6   -434.3175743 -0.276660E-04  0.346E-03    0.73       1.9  T
   7   -434.3175882 -0.139188E-04  0.677E-04    0.73       9.5  T
   8   -434.3175885 -0.302573E-06  0.326E-04    0.73      19.7  T
   9   -434.3175885 -0.585874E-07  0.180E-04    0.73      35.7  T
  10   -434.3175886 -0.289520E-07  0.518E-05    0.73     124.2  T
     SCC iter.                  ...        0 min,  3.492 sec
     gradient                   ...        0 min,  1.052 sec
 * total energy  :  -427.1109862 Eh     change       -0.1113770E+00 Eh
   gradient norm :     0.1724740 Eh/α   predicted    -0.1062118E+00 (  -4.64%)
   displ. norm   :     0.7520847 α      lambda       -0.1014228E+00
   maximum displ.:     0.1630083 α      in ANC's #216, #89, #175, ...

........................................................................
.............................. CYCLE    5 ..............................
........................................................................
   1   -434.4306964 -0.434431E+03  0.716E-02    0.81       0.0  T
   2   -434.4308719 -0.175473E-03  0.550E-02    0.80       1.0  T
   3   -434.4317979 -0.926006E-03  0.231E-02    0.80       1.0  T
   4   -434.4317870  0.109192E-04  0.219E-02    0.80       1.0  T
   5   -434.4320184 -0.231384E-03  0.592E-03    0.80       1.1  T
   6   -434.4320304 -0.120199E-04  0.238E-03    0.80       2.7  T
   7   -434.4320374 -0.699250E-05  0.529E-04    0.80      12.2  T
   8   -434.4320376 -0.228698E-06  0.206E-04    0.80      31.3  T
   9   -434.4320376 -0.769745E-08  0.123E-04    0.80      52.4  T
  10   -434.4320376 -0.130244E-07  0.476E-05    0.80     135.0  T
     SCC iter.                  ...        0 min,  3.569 sec
     gradient                   ...        0 min,  1.080 sec
 * total energy  :  -427.1883222 Eh     change       -0.7733599E-01 Eh
   gradient norm :     0.1313232 Eh/α   predicted    -0.7939537E-01 (   2.66%)
   displ. norm   :     0.7159531 α      lambda       -0.5965016E-01
   maximum displ.:     0.2187076 α      in ANC's #89, #175, #154, ...

........................................................................
.............................. CYCLE    6 ..............................
........................................................................
   1   -434.4950813 -0.434495E+03  0.411E-02    0.84       0.0  T
   2   -434.4950517  0.295789E-04  0.362E-02    0.84       1.0  T
   3   -434.4954979 -0.446189E-03  0.138E-02    0.84       1.0  T
   4   -434.4954528  0.450531E-04  0.137E-02    0.84       1.0  T
   5   -434.4955419 -0.890513E-04  0.341E-03    0.84       1.9  T
   6   -434.4955465 -0.458397E-05  0.142E-03    0.84       4.5  T
   7   -434.4955490 -0.255852E-05  0.266E-04    0.84      24.2  T
   8   -434.4955491 -0.557387E-07  0.945E-05    0.84      68.1  T
   9   -434.4955491 -0.378111E-08  0.413E-05    0.84     155.6  T
     SCC iter.                  ...        0 min,  3.412 sec
     gradient                   ...        0 min,  0.959 sec
 * total energy  :  -427.2324898 Eh     change       -0.4416768E-01 Eh
   gradient norm :     0.1051232 Eh/α   predicted    -0.4511309E-01 (   2.14%)
   displ. norm   :     0.6746885 α      lambda       -0.3906341E-01
   maximum displ.:     0.2368983 α      in ANC's #89, #154, #62, ...

........................................................................
.............................. CYCLE    7 ..............................
........................................................................
   1   -434.5472522 -0.434547E+03  0.274E-02    0.90       0.0  T
   2   -434.5473504 -0.981993E-04  0.179E-02    0.89       1.0  T
   3   -434.5474527 -0.102381E-03  0.913E-03    0.89       1.0  T
   4   -434.5474697 -0.170180E-04  0.717E-03    0.89       1.0  T
   5   -434.5474949 -0.251458E-04  0.202E-03    0.89       3.2  T
   6   -434.5474957 -0.808068E-06  0.392E-04    0.89      16.4  T
   7   -434.5474958 -0.718283E-07  0.211E-04    0.89      30.5  T
   8   -434.5474958 -0.358130E-07  0.827E-05    0.89      77.7  T
   9   -434.5474958 -0.380328E-08  0.342E-05    0.89     188.1  T
     SCC iter.                  ...        0 min,  3.256 sec
     gradient                   ...        0 min,  1.057 sec
 * total energy  :  -427.2628350 Eh     change       -0.3034516E-01 Eh
   gradient norm :     0.0749563 Eh/α   predicted    -0.2842263E-01 (  -6.34%)
   displ. norm   :     0.7256456 α      lambda       -0.2808899E-01
   maximum displ.:     0.2375005 α      in ANC's #89, #62, #67, ...

........................................................................
.............................. CYCLE    8 ..............................
........................................................................
   1   -434.5901870 -0.434590E+03  0.208E-02    0.92       0.0  T
   2   -434.5902363 -0.493066E-04  0.162E-02    0.92       1.0  T
   3   -434.5903049 -0.686717E-04  0.676E-03    0.92       1.0  T
   4   -434.5902859  0.190514E-04  0.690E-03    0.92       1.0  T
   5   -434.5903148 -0.289563E-04  0.175E-03    0.92       3.7  T
   6   -434.5903158 -0.963687E-06  0.521E-04    0.92      12.3  T
   7   -434.5903160 -0.235291E-06  0.210E-04    0.92      30.7  T
   8   -434.5903161 -0.411442E-07  0.792E-05    0.92      81.1  T
   9   -434.5903161 -0.338463E-08  0.254E-05    0.92     253.5  T
     SCC iter.                  ...        0 min,  3.301 sec
     gradient                   ...        0 min,  1.077 sec
 * total energy  :  -427.2846083 Eh     change       -0.2177334E-01 Eh
   gradient norm :     0.0586339 Eh/α   predicted    -0.2143981E-01 (  -1.53%)
   displ. norm   :     0.7502918 α      lambda       -0.2067789E-01
   maximum displ.:     0.2716883 α      in ANC's #89, #62, #52, ...

........................................................................
.............................. CYCLE    9 ..............................
........................................................................
   1   -434.6334245 -0.434633E+03  0.168E-02    0.96       0.0  T
   2   -434.6334422 -0.176911E-04  0.131E-02    0.96       1.0  T
   3   -434.6334951 -0.529696E-04  0.490E-03    0.96       1.3  T
   4   -434.6334851  0.100860E-04  0.539E-03    0.96       1.2  T
   5   -434.6335052 -0.201120E-04  0.147E-03    0.96       4.4  T
   6   -434.6335058 -0.641307E-06  0.392E-04    0.96      16.4  T
   7   -434.6335059 -0.126444E-06  0.119E-04    0.96      54.0  T
   8   -434.6335059 -0.111535E-07  0.434E-05    0.96     148.2  T
     SCC iter.                  ...        0 min,  2.951 sec
     gradient                   ...        0 min,  1.062 sec
 * total energy  :  -427.3005726 Eh     change       -0.1596425E-01 Eh
   gradient norm :     0.0535234 Eh/α   predicted    -0.1615915E-01 (   1.22%)
   displ. norm   :     0.7658120 α      lambda       -0.1630868E-01
   maximum displ.:     0.2645829 α      in ANC's #89, #62, #74, ...

........................................................................
.............................. CYCLE   10 ..............................
........................................................................
   1   -434.6676794 -0.434668E+03  0.158E-02    0.95       0.0  T
   2   -434.6676989 -0.194491E-04  0.122E-02    0.95       1.0  T
   3   -434.6677355 -0.366760E-04  0.559E-03    0.95       1.1  T
   4   -434.6677271  0.848246E-05  0.535E-03    0.95       1.2  T
   5   -434.6677445 -0.174036E-04  0.127E-03    0.95       5.1  T
   6   -434.6677453 -0.879215E-06  0.413E-04    0.95      15.6  T
   7   -434.6677455 -0.148413E-06  0.120E-04    0.95      53.7  T
   8   -434.6677455 -0.137833E-07  0.382E-05    0.95     168.2  T
     SCC iter.                  ...        0 min,  2.819 sec
     gradient                   ...        0 min,  1.036 sec
 * total energy  :  -427.3115832 Eh     change       -0.1101057E-01 Eh
   gradient norm :     0.0494982 Eh/α   predicted    -0.1293657E-01 (  17.49%)
   displ. norm   :     0.7319855 α      lambda       -0.1283450E-01
   maximum displ.:     0.2522384 α      in ANC's #52, #89, #62, ...

........................................................................
.............................. CYCLE   11 ..............................
........................................................................
   1   -434.7168454 -0.434717E+03  0.143E-02    0.97       0.0  T
   2   -434.7168554 -0.100058E-04  0.114E-02    0.97       1.0  T
   3   -434.7169007 -0.452493E-04  0.422E-03    0.97       1.5  T
   4   -434.7168978  0.292839E-05  0.399E-03    0.98       1.6  T
   5   -434.7169062 -0.841352E-05  0.126E-03    0.97       5.1  T
   6   -434.7169065 -0.378900E-06  0.433E-04    0.98      14.9  T
   7   -434.7169067 -0.193689E-06  0.120E-04    0.98      53.7  T
   8   -434.7169068 -0.139318E-07  0.389E-05    0.98     165.2  T
     SCC iter.                  ...        0 min,  2.852 sec
     gradient                   ...        0 min,  1.056 sec
 * total energy  :  -427.3198515 Eh     change       -0.8268324E-02 Eh
   gradient norm :     0.0431104 Eh/α   predicted    -0.9855659E-02 (  19.20%)
   displ. norm   :     0.7009539 α      lambda       -0.9335321E-02
   maximum displ.:     0.1947380 α      in ANC's #62, #50, #51, ...

........................................................................
.............................. CYCLE   12 ..............................
........................................................................
   1   -434.7576106 -0.434758E+03  0.125E-02    1.00       0.0  T
   2   -434.7576331 -0.224837E-04  0.940E-03    1.00       1.0  T
   3   -434.7576516 -0.185387E-04  0.408E-03    1.00       1.6  T
   4   -434.7576429  0.870749E-05  0.414E-03    1.00       1.6  T
   5   -434.7576551 -0.122126E-04  0.936E-04    1.00       6.9  T
   6   -434.7576553 -0.153908E-06  0.333E-04    1.00      19.3  T
   7   -434.7576553 -0.852554E-07  0.119E-04    1.00      53.9  T
   8   -434.7576554 -0.130491E-07  0.285E-05    1.00     225.8  T
     SCC iter.                  ...        0 min,  2.925 sec
     gradient                   ...        0 min,  1.034 sec
 * total energy  :  -427.3239119 Eh     change       -0.4060385E-02 Eh
   gradient norm :     0.0950906 Eh/α   predicted    -0.6961061E-02 (  71.44%)
   displ. norm   :     0.5408294 α      lambda       -0.8919474E-02
   maximum displ.:     0.1939032 α      in ANC's #52, #62, #50, ...

........................................................................
.............................. CYCLE   13 ..............................
........................................................................
   1   -434.7614630 -0.434761E+03  0.138E-02    0.97       0.0  T
   2   -434.7614851 -0.221626E-04  0.123E-02    0.97       1.0  T
   3   -434.7615188 -0.337093E-04  0.445E-03    0.97       1.4  T
   4   -434.7615109  0.787444E-05  0.418E-03    0.97       1.5  T
   5   -434.7615196 -0.863812E-05  0.940E-04    0.97       6.8  T
   6   -434.7615201 -0.476044E-06  0.329E-04    0.97      19.6  T
   7   -434.7615202 -0.944607E-07  0.853E-05    0.97      75.3  T
   8   -434.7615202 -0.524591E-08  0.375E-05    0.97     171.6  T
     SCC iter.                  ...        0 min,  3.055 sec
     gradient                   ...        0 min,  1.002 sec
 * total energy  :  -427.3289621 Eh     change       -0.5050230E-02 Eh
   gradient norm :     0.0421460 Eh/α   predicted    -0.5764195E-02 (  14.14%)
   displ. norm   :     0.5357492 α      lambda       -0.5616704E-02
   maximum displ.:     0.1977388 α      in ANC's #52, #62, #51, ...

........................................................................
.............................. CYCLE   14 ..............................
........................................................................
   1   -434.7787720 -0.434779E+03  0.129E-02    0.98       0.0  T
   2   -434.7787759 -0.389874E-05  0.112E-02    0.98       1.0  T
   3   -434.7788134 -0.374704E-04  0.337E-03    0.98       1.9  T
   4   -434.7788084  0.499499E-05  0.378E-03    0.98       1.7  T
   5   -434.7788152 -0.675831E-05  0.117E-03    0.98       5.5  T
   6   -434.7788156 -0.431951E-06  0.244E-04    0.98      26.4  T
   7   -434.7788156 -0.211580E-07  0.902E-05    0.98      71.3  T
   8   -434.7788156 -0.563693E-08  0.321E-05    0.98     200.4  T
     SCC iter.                  ...        0 min,  2.865 sec
     gradient                   ...        0 min,  1.083 sec
 * total energy  :  -427.3323721 Eh     change       -0.3409972E-02 Eh
   gradient norm :     0.0377983 Eh/α   predicted    -0.3614422E-02 (   6.00%)
   displ. norm   :     0.6064527 α      lambda       -0.4419388E-02
   maximum displ.:     0.2439297 α      in ANC's #50, #52, #62, ...

........................................................................
.............................. CYCLE   15 ..............................
........................................................................
   1   -434.7894377 -0.434789E+03  0.856E-03    0.97       0.0  T
   2   -434.7894461 -0.837933E-05  0.443E-03    0.97       1.5  T
   3   -434.7894521 -0.596599E-05  0.206E-03    0.97       3.1  T
   4   -434.7894534 -0.130600E-05  0.150E-03    0.97       4.3  T
   5   -434.7894543 -0.921430E-06  0.532E-04    0.97      12.1  T
   6   -434.7894544 -0.116557E-06  0.183E-04    0.97      35.2  T
   7   -434.7894544 -0.280253E-07  0.606E-05    0.97     106.1  T
     SCC iter.                  ...        0 min,  2.583 sec
     gradient                   ...        0 min,  1.052 sec
 * total energy  :  -427.3351162 Eh     change       -0.2744099E-02 Eh
   gradient norm :     0.0272379 Eh/α   predicted    -0.3022395E-02 (  10.14%)
   displ. norm   :     0.6140987 α      lambda       -0.4334048E-02
   maximum displ.:     0.2286182 α      in ANC's #52, #51, #62, ...

........................................................................
.............................. CYCLE   16 ..............................
........................................................................
   1   -434.7964991 -0.434796E+03  0.876E-03    0.96       0.0  T
   2   -434.7965073 -0.823253E-05  0.610E-03    0.96       1.1  T
   3   -434.7965192 -0.118581E-04  0.190E-03    0.96       3.4  T
   4   -434.7965188  0.357733E-06  0.216E-03    0.96       3.0  T
   5   -434.7965210 -0.220107E-05  0.649E-04    0.96       9.9  T
   6   -434.7965212 -0.184252E-06  0.201E-04    0.96      31.9  T
   7   -434.7965212 -0.282776E-07  0.677E-05    0.96      94.9  T
   8   -434.7965212 -0.346222E-08  0.290E-05    0.96     221.4  T
     SCC iter.                  ...        0 min,  2.961 sec
     gradient                   ...        0 min,  1.068 sec
 * total energy  :  -427.3376939 Eh     change       -0.2577731E-02 Eh
   gradient norm :     0.0289246 Eh/α   predicted    -0.2984257E-02 (  15.77%)
   displ. norm   :     0.5413919 α      lambda       -0.2896612E-02
   maximum displ.:     0.2143956 α      in ANC's #50, #52, #44, ...

........................................................................
.............................. CYCLE   17 ..............................
........................................................................
   1   -434.7938198 -0.434794E+03  0.754E-03    0.97       0.0  T
   2   -434.7938253 -0.543634E-05  0.575E-03    0.97       1.1  T
   3   -434.7938346 -0.933813E-05  0.187E-03    0.97       3.4  T
   4   -434.7938334  0.121876E-05  0.193E-03    0.97       3.3  T
   5   -434.7938354 -0.203115E-05  0.486E-04    0.97      13.2  T
   6   -434.7938354 -0.448856E-07  0.144E-04    0.97      44.6  T
   7   -434.7938355 -0.158150E-07  0.471E-05    0.97     136.4  T
     SCC iter.                  ...        0 min,  2.447 sec
     gradient                   ...        0 min,  1.043 sec
 * total energy  :  -427.3389677 Eh     change       -0.1273765E-02 Eh
   gradient norm :     0.0309136 Eh/α   predicted    -0.1872823E-02 (  47.03%)
   displ. norm   :     0.4835553 α      lambda       -0.3085569E-02
   maximum displ.:     0.1782393 α      in ANC's #51, #52, #44, ...

........................................................................
.............................. CYCLE   18 ..............................
........................................................................
   1   -434.7948469 -0.434795E+03  0.505E-03    0.97       0.0  T
   2   -434.7948498 -0.290509E-05  0.382E-03    0.97       1.7  T
   3   -434.7948534 -0.364258E-05  0.153E-03    0.97       4.2  T
   4   -434.7948525  0.964503E-06  0.154E-03    0.97       4.2  T
   5   -434.7948539 -0.144777E-05  0.370E-04    0.97      17.4  T
   6   -434.7948540 -0.500233E-07  0.105E-04    0.97      61.5  T
   7   -434.7948540 -0.989485E-08  0.441E-05    0.97     145.6  T
     SCC iter.                  ...        0 min,  2.482 sec
     gradient                   ...        0 min,  1.057 sec
 * total energy  :  -427.3404890 Eh     change       -0.1521328E-02 Eh
   gradient norm :     0.0277319 Eh/α   predicted    -0.1903526E-02 (  25.12%)
   displ. norm   :     0.4044779 α      lambda       -0.2347167E-02
   maximum displ.:     0.1254303 α      in ANC's #44, #52, #18, ...

........................................................................
.............................. CYCLE   19 ..............................
........................................................................
   1   -434.7962272 -0.434796E+03  0.770E-03    0.96       0.0  T
   2   -434.7962291 -0.195185E-05  0.666E-03    0.96       1.0  T
   3   -434.7962437 -0.145991E-04  0.233E-03    0.96       2.8  T
   4   -434.7962419  0.179255E-05  0.223E-03    0.96       2.9  T
   5   -434.7962445 -0.260335E-05  0.762E-04    0.96       8.4  T
   6   -434.7962447 -0.206860E-06  0.191E-04    0.96      33.6  T
   7   -434.7962448 -0.327231E-07  0.648E-05    0.96      99.2  T
     SCC iter.                  ...        0 min,  2.565 sec
     gradient                   ...        0 min,  1.088 sec
 * total energy  :  -427.3413170 Eh     change       -0.8279978E-03 Eh
   gradient norm :     0.0226340 Eh/α   predicted    -0.1365585E-02 (  64.93%)
   displ. norm   :     0.3550533 α      lambda       -0.1744571E-02
   maximum displ.:     0.1179399 α      in ANC's #44, #18, #52, ...

........................................................................
.............................. CYCLE   20 ..............................
........................................................................
   1   -434.7998041 -0.434800E+03  0.514E-03    0.96       0.0  T
   2   -434.7998034  0.753745E-06  0.498E-03    0.96       1.3  T
   3   -434.7998121 -0.879043E-05  0.154E-03    0.96       4.2  T
   4   -434.7998107  0.139144E-05  0.173E-03    0.96       3.7  T
   5   -434.7998124 -0.168518E-05  0.435E-04    0.96      14.8  T
   6   -434.7998125 -0.669370E-07  0.977E-05    0.96      65.8  T
   7   -434.7998125 -0.664755E-08  0.294E-05    0.96     218.3  T
     SCC iter.                  ...        0 min,  2.672 sec
     gradient                   ...        0 min,  0.949 sec
 * total energy  :  -427.3423914 Eh     change       -0.1074365E-02 Eh
   gradient norm :     0.0209340 Eh/α   predicted    -0.9822408E-03 (  -8.57%)
   displ. norm   :     0.4602126 α      lambda       -0.1461074E-02
   maximum displ.:     0.1633224 α      in ANC's #44, #18, #52, ...
 * RMSD in coord.:     0.5467047 α      energy gain  -0.9088898E+00 Eh

generating ANC from model Hessian ...
Using Lindh-Hessian (1995)
 Shifting diagonal of input Hessian by    1.0028521985754043E-002
 Lowest  eigenvalues of input Hessian
    0.010000    0.010002    0.010015    0.010019    0.010021    0.010022
    0.010022    0.010023    0.010025    0.000000    0.000000    0.000000
    0.000000    0.000000    0.000000    0.010058    0.010064    0.010072
 Highest eigenvalues
    2.636453    2.636483    2.639824    2.881863    2.887230    2.888476


........................................................................
.............................. CYCLE   21 ..............................
........................................................................
   1   -434.7970933 -0.434797E+03  0.563E-03    0.97       0.0  T
   2   -434.7970966 -0.331794E-05  0.489E-03    0.97       1.3  T
   3   -434.7971014 -0.482107E-05  0.184E-03    0.97       3.5  T
   4   -434.7970996  0.185333E-05  0.192E-03    0.97       3.4  T
   5   -434.7971016 -0.204584E-05  0.451E-04    0.97      14.3  T
   6   -434.7971017 -0.766011E-07  0.991E-05    0.97      64.9  T
   7   -434.7971017 -0.511602E-08  0.419E-05    0.97     153.5  T
     SCC iter.                  ...        0 min,  2.514 sec
     gradient                   ...        0 min,  1.068 sec
 * total energy  :  -427.3432249 Eh     change       -0.8335819E-03 Eh
   gradient norm :     0.0174382 Eh/α   predicted     0.0000000E+00 (-100.00%)
   displ. norm   :     0.1759169 α      lambda       -0.7941381E-03
   maximum displ.:     0.0620199 α      in ANC's #44, #22, #16, ...

........................................................................
.............................. CYCLE   22 ..............................
........................................................................
   1   -434.7979274 -0.434798E+03  0.285E-03    0.96       0.0  T
   2   -434.7979283 -0.846417E-06  0.237E-03    0.96       2.7  T
   3   -434.7979299 -0.167040E-05  0.848E-04    0.96       7.6  T
   4   -434.7979296  0.297609E-06  0.840E-04    0.96       7.7  T
   5   -434.7979300 -0.403848E-06  0.219E-04    0.96      29.4  T
   6   -434.7979300 -0.137385E-07  0.579E-05    0.96     111.1  T
   7   -434.7979301 -0.230574E-08  0.186E-05    0.96     346.2  T
     SCC iter.                  ...        0 min,  2.591 sec
     gradient                   ...        0 min,  1.075 sec
 * total energy  :  -427.3437042 Eh     change       -0.4792811E-03 Eh
   gradient norm :     0.0091737 Eh/α   predicted    -0.4093899E-03 ( -14.58%)
   displ. norm   :     0.3661646 α      lambda       -0.1131144E-02
   maximum displ.:     0.1467038 α      in ANC's #44, #47, #22, ...

........................................................................
.............................. CYCLE   23 ..............................
........................................................................
   1   -434.7999200 -0.434800E+03  0.463E-03    0.95       0.0  T
   2   -434.7999227 -0.275193E-05  0.389E-03    0.95       1.7  T
   3   -434.7999272 -0.446352E-05  0.151E-03    0.95       4.3  T
   4   -434.7999262  0.941975E-06  0.145E-03    0.95       4.4  T
   5   -434.7999275 -0.121721E-05  0.363E-04    0.95      17.7  T
   6   -434.7999275 -0.527018E-07  0.962E-05    0.95      66.8  T
   7   -434.7999275 -0.646043E-08  0.337E-05    0.95     190.6  T
     SCC iter.                  ...        0 min,  2.577 sec
     gradient                   ...        0 min,  1.067 sec
 * total energy  :  -427.3442741 Eh     change       -0.5698813E-03 Eh
   gradient norm :     0.0166067 Eh/α   predicted    -0.6414028E-03 (  12.55%)
   displ. norm   :     0.3483454 α      lambda       -0.8261771E-03
   maximum displ.:     0.1464823 α      in ANC's #44, #22, #47, ...

........................................................................
.............................. CYCLE   24 ..............................
........................................................................
   1   -434.7998253 -0.434800E+03  0.169E-03    0.95       0.0  T
   2   -434.7998258 -0.425087E-06  0.104E-03    0.95       6.2  T
   3   -434.7998260 -0.284113E-06  0.531E-04    0.95      12.1  T
   4   -434.7998261 -0.124323E-07  0.442E-04    0.95      14.5  T
   5   -434.7998262 -0.116404E-06  0.135E-04    0.95      47.5  T
   6   -434.7998262 -0.675874E-08  0.377E-05    0.95     170.4  T
     SCC iter.                  ...        0 min,  2.174 sec
     gradient                   ...        0 min,  1.013 sec
 * total energy  :  -427.3448309 Eh     change       -0.5567828E-03 Eh
   gradient norm :     0.0153931 Eh/α   predicted    -0.4632168E-03 ( -16.80%)
   displ. norm   :     0.4961061 α      lambda       -0.1033611E-02
   maximum displ.:     0.2105232 α      in ANC's #44, #22, #28, ...

........................................................................
.............................. CYCLE   25 ..............................
........................................................................
   1   -434.7981773 -0.434798E+03  0.284E-03    0.95       0.0  T
   2   -434.7981778 -0.525664E-06  0.240E-03    0.95       2.7  T
   3   -434.7981796 -0.182165E-05  0.977E-04    0.95       6.6  T
   4   -434.7981794  0.252523E-06  0.839E-04    0.95       7.7  T
   5   -434.7981798 -0.400245E-06  0.236E-04    0.95      27.2  T
   6   -434.7981798 -0.143669E-07  0.763E-05    0.95      84.3  T
   7   -434.7981798 -0.506009E-08  0.203E-05    0.95     316.2  T
     SCC iter.                  ...        0 min,  2.474 sec
     gradient                   ...        0 min,  1.056 sec
 * total energy  :  -427.3455284 Eh     change       -0.6975358E-03 Eh
   gradient norm :     0.0113838 Eh/α   predicted    -0.6440040E-03 (  -7.67%)
   displ. norm   :     0.5434916 α      lambda       -0.8621433E-03
   maximum displ.:     0.2307854 α      in ANC's #44, #22, #16, ...

........................................................................
.............................. CYCLE   26 ..............................
........................................................................
   1   -434.7950987 -0.434795E+03  0.303E-03    0.95       0.0  T
   2   -434.7950992 -0.568112E-06  0.256E-03    0.95       2.5  T
   3   -434.7951013 -0.210285E-05  0.947E-04    0.95       6.8  T
   4   -434.7951011  0.267269E-06  0.884E-04    0.95       7.3  T
   5   -434.7951015 -0.422594E-06  0.222E-04    0.95      28.9  T
   6   -434.7951015 -0.155514E-07  0.593E-05    0.95     108.3  T
   7   -434.7951015 -0.334427E-08  0.195E-05    0.95     329.4  T
     SCC iter.                  ...        0 min,  2.512 sec
     gradient                   ...        0 min,  1.085 sec
 * total energy  :  -427.3461753 Eh     change       -0.6468356E-03 Eh
   gradient norm :     0.0122222 Eh/α   predicted    -0.5584037E-03 ( -13.67%)
   displ. norm   :     0.6152214 α      lambda       -0.8831540E-03
   maximum displ.:     0.2592202 α      in ANC's #44, #22, #16, ...

........................................................................
.............................. CYCLE   27 ..............................
........................................................................
   1   -434.7920407 -0.434792E+03  0.273E-03    0.95       0.0  T
   2   -434.7920415 -0.834157E-06  0.196E-03    0.95       3.3  T
   3   -434.7920426 -0.104417E-05  0.833E-04    0.95       7.7  T
   4   -434.7920424  0.150441E-06  0.727E-04    0.95       8.8  T
   5   -434.7920427 -0.307629E-06  0.193E-04    0.95      33.4  T
   6   -434.7920427 -0.179257E-07  0.448E-05    0.95     143.4  T
     SCC iter.                  ...        0 min,  2.256 sec
     gradient                   ...        0 min,  0.947 sec
 * total energy  :  -427.3467245 Eh     change       -0.5492256E-03 Eh
   gradient norm :     0.0105358 Eh/α   predicted    -0.6087134E-03 (  10.83%)
   displ. norm   :     0.5591088 α      lambda       -0.7976851E-03
   maximum displ.:     0.2284589 α      in ANC's #44, #22, #16, ...

........................................................................
.............................. CYCLE   28 ..............................
........................................................................
   1   -434.7905090 -0.434791E+03  0.186E-03    0.95       0.0  T
   2   -434.7905096 -0.577016E-06  0.144E-03    0.95       4.5  T
   3   -434.7905102 -0.666366E-06  0.674E-04    0.95       9.5  T
   4   -434.7905102  0.583211E-07  0.550E-04    0.95      11.7  T
   5   -434.7905103 -0.121290E-06  0.201E-04    0.95      32.0  T
   6   -434.7905103 -0.226592E-07  0.474E-05    0.95     135.6  T
   7   -434.7905103 -0.146878E-08  0.142E-05    0.95     454.0  T
     SCC iter.                  ...        0 min,  2.595 sec
     gradient                   ...        0 min,  0.984 sec
 * total energy  :  -427.3472997 Eh     change       -0.5752446E-03 Eh
   gradient norm :     0.0090479 Eh/α   predicted    -0.5235240E-03 (  -8.99%)
   displ. norm   :     0.5518267 α      lambda       -0.5679163E-03
   maximum displ.:     0.2204925 α      in ANC's #44, #22, #16, ...

........................................................................
.............................. CYCLE   29 ..............................
........................................................................
   1   -434.7895215 -0.434790E+03  0.182E-03    0.96       0.0  T
   2   -434.7895217 -0.165671E-06  0.174E-03    0.95       3.7  T
   3   -434.7895228 -0.111045E-05  0.671E-04    0.96       9.6  T
   4   -434.7895227  0.139470E-06  0.617E-04    0.96      10.4  T
   5   -434.7895228 -0.166428E-06  0.185E-04    0.95      34.8  T
   6   -434.7895229 -0.189925E-07  0.421E-05    0.96     152.8  T
     SCC iter.                  ...        0 min,  2.167 sec
     gradient                   ...        0 min,  1.080 sec
 * total energy  :  -427.3477789 Eh     change       -0.4792051E-03 Eh
   gradient norm :     0.0069431 Eh/α   predicted    -0.3704274E-03 ( -22.70%)
   displ. norm   :     0.6141564 α      lambda       -0.6310510E-03
   maximum displ.:     0.2388057 α      in ANC's #16, #22, #44, ...

........................................................................
.............................. CYCLE   30 ..............................
........................................................................
   1   -434.7912308 -0.434791E+03  0.205E-03    0.96       0.0  T
   2   -434.7912310 -0.139305E-06  0.173E-03    0.95       3.7  T
   3   -434.7912322 -0.120253E-05  0.654E-04    0.95       9.8  T
   4   -434.7912321  0.444848E-07  0.581E-04    0.95      11.1  T
   5   -434.7912323 -0.155044E-06  0.177E-04    0.95      36.4  T
   6   -434.7912323 -0.108104E-07  0.412E-05    0.95     156.0  T
     SCC iter.                  ...        0 min,  2.207 sec
     gradient                   ...        0 min,  1.058 sec
 * total energy  :  -427.3483052 Eh     change       -0.5262261E-03 Eh
   gradient norm :     0.0081073 Eh/α   predicted    -0.4345426E-03 ( -17.42%)
   displ. norm   :     0.6722014 α      lambda       -0.5975722E-03
   maximum displ.:     0.2707720 α      in ANC's #16, #22, #44, ...

........................................................................
.............................. CYCLE   31 ..............................
........................................................................
   1   -434.7902699 -0.434790E+03  0.150E-03    0.95       0.0  T
   2   -434.7902702 -0.286398E-06  0.106E-03    0.95       6.0  T
   3   -434.7902706 -0.441247E-06  0.466E-04    0.95      13.8  T
   4   -434.7902707 -0.269091E-07  0.357E-04    0.95      18.0  T
   5   -434.7902707 -0.637920E-07  0.125E-04    0.95      51.6  T
   6   -434.7902707 -0.411399E-08  0.292E-05    0.95     220.0  T
     SCC iter.                  ...        0 min,  2.220 sec
     gradient                   ...        0 min,  1.060 sec
 * total energy  :  -427.3488211 Eh     change       -0.5159604E-03 Eh
   gradient norm :     0.0086402 Eh/α   predicted    -0.4337951E-03 ( -15.92%)
   displ. norm   :     0.6852823 α      lambda       -0.6025338E-03
   maximum displ.:     0.2887477 α      in ANC's #16, #22, #44, ...

........................................................................
.............................. CYCLE   32 ..............................
........................................................................
   1   -434.7918120 -0.434792E+03  0.144E-03    0.95       0.0  T
   2   -434.7918125 -0.411337E-06  0.990E-04    0.95       6.5  T
   3   -434.7918127 -0.285785E-06  0.476E-04    0.95      13.5  T
   4   -434.7918127  0.402541E-07  0.399E-04    0.95      16.1  T
   5   -434.7918128 -0.979506E-07  0.127E-04    0.95      50.7  T
   6   -434.7918128 -0.588392E-08  0.323E-05    0.95     198.8  T
     SCC iter.                  ...        0 min,  2.123 sec
     gradient                   ...        0 min,  1.037 sec
 * total energy  :  -427.3493404 Eh     change       -0.5193038E-03 Eh
   gradient norm :     0.0075892 Eh/α   predicted    -0.4427461E-03 ( -14.74%)
   displ. norm   :     0.6975314 α      lambda       -0.5725895E-03
   maximum displ.:     0.3081350 α      in ANC's #16, #22, #44, ...

........................................................................
.............................. CYCLE   33 ..............................
........................................................................
   1   -434.7919043 -0.434792E+03  0.144E-03    0.95       0.0  T
   2   -434.7919046 -0.312718E-06  0.107E-03    0.95       6.0  T
   3   -434.7919049 -0.286586E-06  0.480E-04    0.95      13.4  T
   4   -434.7919048  0.641963E-07  0.482E-04    0.95      13.3  T
   5   -434.7919050 -0.120655E-06  0.118E-04    0.95      54.3  T
   6   -434.7919050 -0.356050E-08  0.306E-05    0.95     210.1  T
     SCC iter.                  ...        0 min,  2.134 sec
     gradient                   ...        0 min,  1.051 sec
 * total energy  :  -427.3498313 Eh     change       -0.4908282E-03 Eh
   gradient norm :     0.0061626 Eh/α   predicted    -0.4255966E-03 ( -13.29%)
   displ. norm   :     0.6829775 α      lambda       -0.5079532E-03
   maximum displ.:     0.3182752 α      in ANC's #16, #22, #25, ...

........................................................................
.............................. CYCLE   34 ..............................
........................................................................
   1   -434.7938099 -0.434794E+03  0.137E-03    0.95       0.0  T
   2   -434.7938100 -0.190108E-06  0.950E-04    0.95       6.8  T
   3   -434.7938103 -0.264558E-06  0.433E-04    0.95      14.9  T
   4   -434.7938103 -0.114609E-07  0.394E-04    0.95      16.3  T
   5   -434.7938104 -0.790943E-07  0.999E-05    0.95      64.4  T
   6   -434.7938104 -0.207740E-08  0.272E-05    0.95     236.7  T
     SCC iter.                  ...        0 min,  2.169 sec
     gradient                   ...        0 min,  1.083 sec
 * total energy  :  -427.3502624 Eh     change       -0.4311001E-03 Eh
   gradient norm :     0.0058800 Eh/α   predicted    -0.3724462E-03 ( -13.61%)
   displ. norm   :     0.6818005 α      lambda       -0.4341109E-03
   maximum displ.:     0.3285936 α      in ANC's #16, #22, #25, ...

........................................................................
.............................. CYCLE   35 ..............................
........................................................................
   1   -434.7930947 -0.434793E+03  0.124E-03    0.95       0.0  T
   2   -434.7930949 -0.194707E-06  0.816E-04    0.95       7.9  T
   3   -434.7930951 -0.268855E-06  0.395E-04    0.95      16.3  T
   4   -434.7930952 -0.554192E-07  0.279E-04    0.95      23.1  T
   5   -434.7930952 -0.369391E-07  0.102E-04    0.95      62.7  T
   6   -434.7930952 -0.272632E-08  0.318E-05    0.95     202.1  T
     SCC iter.                  ...        0 min,  2.255 sec
     gradient                   ...        0 min,  0.965 sec
 * total energy  :  -427.3506370 Eh     change       -0.3746212E-03 Eh
   gradient norm :     0.0058398 Eh/α   predicted    -0.3179551E-03 ( -15.13%)
   displ. norm   :     0.6397957 α      lambda       -0.3949518E-03
   maximum displ.:     0.3265219 α      in ANC's #16, #22, #14, ...

........................................................................
.............................. CYCLE   36 ..............................
........................................................................
   1   -434.7971695 -0.434797E+03  0.159E-03    0.95       0.0  T
   2   -434.7971699 -0.332622E-06  0.954E-04    0.95       6.7  T
   3   -434.7971701 -0.199423E-06  0.538E-04    0.95      11.9  T
   4   -434.7971701 -0.304362E-07  0.397E-04    0.95      16.2  T
   5   -434.7971702 -0.936173E-07  0.138E-04    0.95      46.5  T
   6   -434.7971702 -0.828754E-08  0.334E-05    0.95     192.5  T
     SCC iter.                  ...        0 min,  2.259 sec
     gradient                   ...        0 min,  1.016 sec
 * total energy  :  -427.3509733 Eh     change       -0.3362972E-03 Eh
   gradient norm :     0.0048446 Eh/α   predicted    -0.2783125E-03 ( -17.24%)
   displ. norm   :     0.6742077 α      lambda       -0.3721480E-03
   maximum displ.:     0.3426870 α      in ANC's #16, #22, #14, ...

........................................................................
.............................. CYCLE   37 ..............................
........................................................................
   1   -434.7928262 -0.434793E+03  0.183E-03    0.95       0.0  T
   2   -434.7928266 -0.362510E-06  0.968E-04    0.95       6.6  T
   3   -434.7928266 -0.520451E-07  0.628E-04    0.95      10.2  T
   4   -434.7928267 -0.188846E-07  0.458E-04    0.95      14.0  T
   5   -434.7928268 -0.141257E-06  0.108E-04    0.95      59.4  T
   6   -434.7928268 -0.667080E-08  0.330E-05    0.95     194.9  T
     SCC iter.                  ...        0 min,  2.155 sec
     gradient                   ...        0 min,  1.078 sec
 * total energy  :  -427.3512891 Eh     change       -0.3157863E-03 Eh
   gradient norm :     0.0046279 Eh/α   predicted    -0.2706585E-03 ( -14.29%)
   displ. norm   :     0.6283535 α      lambda       -0.3674776E-03
   maximum displ.:     0.3438314 α      in ANC's #16, #22, #14, ...

........................................................................
.............................. CYCLE   38 ..............................
........................................................................
   1   -434.7985197 -0.434799E+03  0.192E-03    0.95       0.0  T
   2   -434.7985201 -0.421155E-06  0.968E-04    0.95       6.6  T
   3   -434.7985202 -0.644431E-07  0.589E-04    0.95      10.9  T
   4   -434.7985202  0.297518E-07  0.429E-04    0.95      15.0  T
   5   -434.7985203 -0.112297E-06  0.128E-04    0.95      50.0  T
   6   -434.7985203 -0.123259E-07  0.232E-05    0.95     277.1  T
     SCC iter.                  ...        0 min,  2.211 sec
     gradient                   ...        0 min,  1.072 sec
 * total energy  :  -427.3515894 Eh     change       -0.3003510E-03 Eh
   gradient norm :     0.0050468 Eh/α   predicted    -0.2562851E-03 ( -14.67%)
   displ. norm   :     0.6713768 α      lambda       -0.3352829E-03
   maximum displ.:     0.3662106 α      in ANC's #16, #22, #14, ...

........................................................................
.............................. CYCLE   39 ..............................
........................................................................
   1   -434.7954870 -0.434795E+03  0.150E-03    0.95       0.0  T
   2   -434.7954872 -0.231453E-06  0.777E-04    0.95       8.3  T
   3   -434.7954872 -0.271732E-07  0.484E-04    0.95      13.3  T
   4   -434.7954872 -0.107987E-07  0.376E-04    0.95      17.1  T
   5   -434.7954873 -0.989685E-07  0.920E-05    0.95      69.9  T
   6   -434.7954873 -0.493702E-08  0.266E-05    0.95     241.3  T
     SCC iter.                  ...        0 min,  2.221 sec
     gradient                   ...        0 min,  1.063 sec
 * total energy  :  -427.3518776 Eh     change       -0.2881823E-03 Eh
   gradient norm :     0.0056912 Eh/α   predicted    -0.2432066E-03 ( -15.61%)
   displ. norm   :     0.6148297 α      lambda       -0.3205358E-03
   maximum displ.:     0.3497227 α      in ANC's #16, #22, #14, ...

........................................................................
.............................. CYCLE   40 ..............................
........................................................................
   1   -434.7961061 -0.434796E+03  0.115E-03    0.95       0.0  T
   2   -434.7961063 -0.178294E-06  0.729E-04    0.95       8.8  T
   3   -434.7961065 -0.185499E-06  0.370E-04    0.95      17.4  T
   4   -434.7961065 -0.402314E-07  0.283E-04    0.95      22.7  T
   5   -434.7961066 -0.449587E-07  0.866E-05    0.95      74.2  T
   6   -434.7961066 -0.250418E-08  0.257E-05    0.95     250.0  T
     SCC iter.                  ...        0 min,  2.142 sec
     gradient                   ...        0 min,  1.032 sec
 * total energy  :  -427.3521580 Eh     change       -0.2803661E-03 Eh
   gradient norm :     0.0056873 Eh/α   predicted    -0.2208535E-03 ( -21.23%)
   displ. norm   :     0.6544781 α      lambda       -0.3477300E-03
   maximum displ.:     0.3803171 α      in ANC's #16, #22, #14, ...

........................................................................
.............................. CYCLE   41 ..............................
........................................................................
   1   -434.7971173 -0.434797E+03  0.149E-03    0.95       0.0  T
   2   -434.7971176 -0.317515E-06  0.904E-04    0.95       7.1  T
   3   -434.7971179 -0.245909E-06  0.505E-04    0.95      12.7  T
   4   -434.7971179 -0.716704E-07  0.359E-04    0.95      17.9  T
   5   -434.7971180 -0.698196E-07  0.115E-04    0.95      55.8  T
   6   -434.7971180 -0.435705E-08  0.339E-05    0.95     189.7  T
     SCC iter.                  ...        0 min,  2.138 sec
     gradient                   ...        0 min,  1.050 sec
 * total energy  :  -427.3524598 Eh     change       -0.3018120E-03 Eh
   gradient norm :     0.0058911 Eh/α   predicted    -0.2483431E-03 ( -17.72%)
   displ. norm   :     0.6711315 α      lambda       -0.3660796E-03
   maximum displ.:     0.3982042 α      in ANC's #16, #22, #14, ...

........................................................................
.............................. CYCLE   42 ..............................
........................................................................
   1   -434.7991073 -0.434799E+03  0.182E-03    0.95       0.0  T
   2   -434.7991077 -0.408946E-06  0.993E-04    0.95       6.5  T
   3   -434.7991079 -0.160524E-06  0.639E-04    0.95      10.1  T
   4   -434.7991080 -0.121451E-06  0.416E-04    0.95      15.4  T
   5   -434.7991081 -0.866492E-07  0.138E-04    0.95      46.5  T
   6   -434.7991081 -0.989587E-08  0.362E-05    0.95     177.4  T
     SCC iter.                  ...        0 min,  2.147 sec
     gradient                   ...        0 min,  1.080 sec
 * total energy  :  -427.3527690 Eh     change       -0.3092562E-03 Eh
   gradient norm :     0.0065940 Eh/α   predicted    -0.2654871E-03 ( -14.15%)
   displ. norm   :     0.6914019 α      lambda       -0.3718389E-03
   maximum displ.:     0.4144869 α      in ANC's #16, #14, #22, ...
 * RMSD in coord.:     0.7463035 α      energy gain  -0.1037766E-01 Eh

generating ANC from model Hessian ...
Using Lindh-Hessian (1995)
 Shifting diagonal of input Hessian by    1.0029463127578193E-002
 Lowest  eigenvalues of input Hessian
    0.010000    0.010006    0.010018    0.010020    0.010021    0.010022
    0.010023    0.010025    0.010026    0.000000    0.000000    0.000000
    0.000000    0.000000    0.000000    0.010049    0.010059    0.010065
 Highest eigenvalues
    2.637383    2.637404    2.638614    2.880981    2.881093    2.887988


........................................................................
.............................. CYCLE   43 ..............................
........................................................................
   1   -434.7999284 -0.434800E+03  0.185E-03    0.95       0.0  T
   2   -434.7999288 -0.419293E-06  0.896E-04    0.95       7.2  T
   3   -434.7999288 -0.611170E-07  0.626E-04    0.95      10.3  T
   4   -434.7999290 -0.117573E-06  0.378E-04    0.95      17.0  T
   5   -434.7999290 -0.619441E-07  0.136E-04    0.95      47.1  T
   6   -434.7999290 -0.115287E-07  0.308E-05    0.95     208.6  T
     SCC iter.                  ...        0 min,  2.247 sec
     gradient                   ...        0 min,  0.973 sec
 * total energy  :  -427.3530828 Eh     change       -0.3137347E-03 Eh
   gradient norm :     0.0072535 Eh/α   predicted     0.0000000E+00 (-100.00%)
   displ. norm   :     0.0799658 α      lambda       -0.1402122E-03
   maximum displ.:     0.0296918 α      in ANC's #13, #84, #83, ...

........................................................................
.............................. CYCLE   44 ..............................
........................................................................
   1   -434.8021105 -0.434802E+03  0.134E-03    0.95       0.0  T
   2   -434.8021108 -0.283037E-06  0.775E-04    0.95       8.3  T
   3   -434.8021109 -0.851826E-07  0.457E-04    0.95      14.1  T
   4   -434.8021108  0.195071E-07  0.367E-04    0.95      17.5  T
   5   -434.8021109 -0.953817E-07  0.984E-05    0.95      65.3  T
   6   -434.8021109 -0.428514E-08  0.259E-05    0.95     248.2  T
     SCC iter.                  ...        0 min,  2.281 sec
     gradient                   ...        0 min,  1.016 sec
 * total energy  :  -427.3532029 Eh     change       -0.1201346E-03 Eh
   gradient norm :     0.0038509 Eh/α   predicted    -0.8004729E-04 ( -33.37%)
   displ. norm   :     0.1725190 α      lambda       -0.1954441E-03
   maximum displ.:     0.0794716 α      in ANC's #13, #83, #84, ...

........................................................................
.............................. CYCLE   45 ..............................
........................................................................
   1   -434.8038113 -0.434804E+03  0.202E-03    0.95       0.0  T
   2   -434.8038120 -0.650565E-06  0.119E-03    0.95       5.4  T
   3   -434.8038124 -0.359460E-06  0.671E-04    0.95       9.6  T
   4   -434.8038124 -0.886415E-07  0.502E-04    0.95      12.8  T
   5   -434.8038126 -0.148700E-06  0.142E-04    0.95      45.2  T
   6   -434.8038126 -0.653910E-08  0.428E-05    0.95     150.4  T
     SCC iter.                  ...        0 min,  2.157 sec
     gradient                   ...        0 min,  1.081 sec
 * total energy  :  -427.3533123 Eh     change       -0.1093802E-03 Eh
   gradient norm :     0.0039523 Eh/α   predicted    -0.1006355E-03 (  -7.99%)
   displ. norm   :     0.1905164 α      lambda       -0.1572375E-03
   maximum displ.:     0.0955613 α      in ANC's #13, #15, #35, ...

........................................................................
.............................. CYCLE   46 ..............................
........................................................................
   1   -434.8035571 -0.434804E+03  0.130E-03    0.95       0.0  T
   2   -434.8035574 -0.215061E-06  0.782E-04    0.95       8.2  T
   3   -434.8035576 -0.270940E-06  0.410E-04    0.95      15.7  T
   4   -434.8035577 -0.103829E-06  0.255E-04    0.95      25.2  T
   5   -434.8035578 -0.258484E-07  0.915E-05    0.95      70.3  T
   6   -434.8035578 -0.228846E-08  0.327E-05    0.95     196.6  T
     SCC iter.                  ...        0 min,  2.216 sec
     gradient                   ...        0 min,  1.065 sec
 * total energy  :  -427.3533672 Eh     change       -0.5488386E-04 Eh
   gradient norm :     0.0058132 Eh/α   predicted    -0.8147533E-04 (  48.45%)
   displ. norm   :     0.1042198 α      lambda       -0.1121802E-03
   maximum displ.:     0.0564511 α      in ANC's #13, #35, #36, ...

........................................................................
.............................. CYCLE   47 ..............................
........................................................................
   1   -434.8029638 -0.434803E+03  0.599E-04    0.95       0.0  T
   2   -434.8029638 -0.441945E-07  0.380E-04    0.95      16.9  T
   3   -434.8029638 -0.186010E-07  0.205E-04    0.95      31.3  T
   4   -434.8029638  0.772468E-08  0.167E-04    0.95      38.5  T
   5   -434.8029638 -0.167901E-07  0.466E-05    0.95     137.9  T
     SCC iter.                  ...        0 min,  1.852 sec
     gradient                   ...        0 min,  1.062 sec
 * total energy  :  -427.3534603 Eh     change       -0.9309862E-04 Eh
   gradient norm :     0.0042140 Eh/α   predicted    -0.5669987E-04 ( -39.10%)
   displ. norm   :     0.2977226 α      lambda       -0.2162270E-03
   maximum displ.:     0.1612440 α      in ANC's #13, #35, #15, ...

........................................................................
.............................. CYCLE   48 ..............................
........................................................................
   1   -434.8015526 -0.434802E+03  0.143E-03    0.95       0.0  T
   2   -434.8015530 -0.341633E-06  0.920E-04    0.95       7.0  T
   3   -434.8015532 -0.170861E-06  0.492E-04    0.95      13.1  T
   4   -434.8015531  0.353870E-07  0.409E-04    0.95      15.7  T
   5   -434.8015532 -0.106229E-06  0.118E-04    0.95      54.7  T
   6   -434.8015532 -0.601534E-08  0.295E-05    0.95     218.3  T
     SCC iter.                  ...        0 min,  2.171 sec
     gradient                   ...        0 min,  0.993 sec
 * total energy  :  -427.3536165 Eh     change       -0.1562066E-03 Eh
   gradient norm :     0.0029453 Eh/α   predicted    -0.1176978E-03 ( -24.65%)
   displ. norm   :     0.3530080 α      lambda       -0.1564537E-03
   maximum displ.:     0.1929682 α      in ANC's #13, #15, #35, ...

........................................................................
.............................. CYCLE   49 ..............................
........................................................................
   1   -434.8005812 -0.434801E+03  0.900E-04    0.95       0.0  T
   2   -434.8005813 -0.136838E-06  0.566E-04    0.95      11.4  T
   3   -434.8005814 -0.805629E-07  0.306E-04    0.95      21.0  T
   4   -434.8005814 -0.191784E-08  0.239E-04    0.95      26.9  T
   5   -434.8005814 -0.351884E-07  0.707E-05    0.95      90.9  T
   6   -434.8005814 -0.168899E-08  0.185E-05    0.95     347.7  T
     SCC iter.                  ...        0 min,  2.125 sec
     gradient                   ...        0 min,  1.053 sec
 * total energy  :  -427.3537329 Eh     change       -0.1164481E-03 Eh
   gradient norm :     0.0044898 Eh/α   predicted    -0.8797583E-04 ( -24.45%)
   displ. norm   :     0.4407274 α      lambda       -0.2015034E-03
   maximum displ.:     0.2391835 α      in ANC's #13, #15, #17, ...

........................................................................
.............................. CYCLE   50 ..............................
........................................................................
   1   -434.8000619 -0.434800E+03  0.820E-04    0.95       0.0  T
   2   -434.8000620 -0.978951E-07  0.538E-04    0.95      11.9  T
   3   -434.8000621 -0.110608E-06  0.275E-04    0.95      23.4  T
   4   -434.8000622 -0.192516E-07  0.198E-04    0.95      32.4  T
   5   -434.8000622 -0.200333E-07  0.680E-05    0.95      94.6  T
     SCC iter.                  ...        0 min,  1.793 sec
     gradient                   ...        0 min,  1.061 sec
 * total energy  :  -427.3538574 Eh     change       -0.1244853E-03 Eh
   gradient norm :     0.0057052 Eh/α   predicted    -0.1203235E-03 (  -3.34%)
   displ. norm   :     0.3711127 α      lambda       -0.1933746E-03
   maximum displ.:     0.2071852 α      in ANC's #13, #15, #17, ...

........................................................................
.............................. CYCLE   51 ..............................
........................................................................
   1   -434.8016320 -0.434802E+03  0.709E-04    0.95       0.0  T
   2   -434.8016320 -0.467784E-07  0.484E-04    0.95      13.3  T
   3   -434.8016321 -0.530501E-07  0.233E-04    0.95      27.6  T
   4   -434.8016321  0.773417E-08  0.183E-04    0.95      35.2  T
   5   -434.8016321 -0.191872E-07  0.647E-05    0.95      99.3  T
     SCC iter.                  ...        0 min,  1.853 sec
     gradient                   ...        0 min,  1.028 sec
 * total energy  :  -427.3540141 Eh     change       -0.1567462E-03 Eh
   gradient norm :     0.0044241 Eh/α   predicted    -0.1100071E-03 ( -29.82%)
   displ. norm   :     0.4359805 α      lambda       -0.2096193E-03
   maximum displ.:     0.2464179 α      in ANC's #13, #15, #17, ...

........................................................................
.............................. CYCLE   52 ..............................
........................................................................
   1   -434.8041214 -0.434804E+03  0.111E-03    0.95       0.0  T
   2   -434.8041216 -0.170883E-06  0.680E-04    0.95       9.4  T
   3   -434.8041216 -0.669572E-07  0.361E-04    0.95      17.8  T
   4   -434.8041216  0.155370E-07  0.250E-04    0.95      25.7  T
   5   -434.8041217 -0.275296E-07  0.967E-05    0.95      66.5  T
   6   -434.8041217 -0.833415E-08  0.213E-05    0.95     301.9  T
     SCC iter.                  ...        0 min,  2.232 sec
     gradient                   ...        0 min,  0.949 sec
 * total energy  :  -427.3541848 Eh     change       -0.1706802E-03 Eh
   gradient norm :     0.0036243 Eh/α   predicted    -0.1247325E-03 ( -26.92%)
   displ. norm   :     0.5157684 α      lambda       -0.2102382E-03
   maximum displ.:     0.2920456 α      in ANC's #13, #15, #17, ...

........................................................................
.............................. CYCLE   53 ..............................
........................................................................
   1   -434.8045860 -0.434805E+03  0.803E-04    0.95       0.0  T
   2   -434.8045861 -0.130098E-06  0.468E-04    0.95      13.7  T
   3   -434.8045861 -0.482714E-07  0.235E-04    0.95      27.3  T
   4   -434.8045861  0.487432E-08  0.178E-04    0.95      36.1  T
   5   -434.8045861 -0.148640E-07  0.751E-05    0.95      85.5  T
     SCC iter.                  ...        0 min,  1.804 sec
     gradient                   ...        0 min,  1.042 sec
 * total energy  :  -427.3543687 Eh     change       -0.1839144E-03 Eh
   gradient norm :     0.0042759 Eh/α   predicted    -0.1330832E-03 ( -27.64%)
   displ. norm   :     0.5713379 α      lambda       -0.2419149E-03
   maximum displ.:     0.3259126 α      in ANC's #13, #15, #17, ...

........................................................................
.............................. CYCLE   54 ..............................
........................................................................
   1   -434.8039486 -0.434804E+03  0.725E-04    0.95       0.0  T
   2   -434.8039487 -0.107431E-06  0.392E-04    0.95      16.4  T
   3   -434.8039487 -0.427672E-07  0.197E-04    0.95      32.6  T
   4   -434.8039487 -0.642194E-08  0.140E-04    0.95      46.1  T
     SCC iter.                  ...        0 min,  1.476 sec
     gradient                   ...        0 min,  1.082 sec
 * total energy  :  -427.3545824 Eh     change       -0.2137086E-03 Eh
   gradient norm :     0.0043914 Eh/α   predicted    -0.1604441E-03 ( -24.92%)
   displ. norm   :     0.6129441 α      lambda       -0.2580853E-03
   maximum displ.:     0.3545982 α      in ANC's #13, #15, #17, ...

........................................................................
.............................. CYCLE   55 ..............................
........................................................................
   1   -434.8020412 -0.434802E+03  0.848E-04    0.95       0.0  T
   2   -434.8020412 -0.815372E-07  0.493E-04    0.95      13.0  T
   3   -434.8020413 -0.562342E-07  0.264E-04    0.95      24.3  T
   4   -434.8020413 -0.158293E-07  0.183E-04    0.95      35.1  T
   5   -434.8020413 -0.180297E-07  0.610E-05    0.95     105.4  T
     SCC iter.                  ...        0 min,  1.841 sec
     gradient                   ...        0 min,  1.042 sec
 * total energy  :  -427.3548009 Eh     change       -0.2184134E-03 Eh
   gradient norm :     0.0035725 Eh/α   predicted    -0.1775252E-03 ( -18.72%)
   displ. norm   :     0.6021216 α      lambda       -0.2220751E-03
   maximum displ.:     0.3540173 α      in ANC's #13, #15, #17, ...

........................................................................
.............................. CYCLE   56 ..............................
........................................................................
   1   -434.7998820 -0.434800E+03  0.874E-04    0.95       0.0  T
   2   -434.7998821 -0.841124E-07  0.490E-04    0.95      13.1  T
   3   -434.7998821 -0.433131E-07  0.268E-04    0.95      24.0  T
   4   -434.7998821 -0.795598E-08  0.194E-04    0.95      33.1  T
   5   -434.7998822 -0.220230E-07  0.625E-05    0.95     102.8  T
     SCC iter.                  ...        0 min,  1.842 sec
     gradient                   ...        0 min,  1.061 sec
 * total energy  :  -427.3549820 Eh     change       -0.1811401E-03 Eh
   gradient norm :     0.0034617 Eh/α   predicted    -0.1512954E-03 ( -16.48%)
   displ. norm   :     0.5468041 α      lambda       -0.1812417E-03
   maximum displ.:     0.3272752 α      in ANC's #13, #15, #17, ...

........................................................................
.............................. CYCLE   57 ..............................
........................................................................
   1   -434.7991342 -0.434799E+03  0.698E-04    0.95       0.0  T
   2   -434.7991343 -0.603251E-07  0.388E-04    0.95      16.6  T
   3   -434.7991343 -0.390848E-07  0.206E-04    0.95      31.2  T
   4   -434.7991343 -0.135017E-07  0.144E-04    0.95      44.7  T
   5   -434.7991343 -0.114323E-07  0.492E-05    0.95     130.8  T
     SCC iter.                  ...        0 min,  1.767 sec
     gradient                   ...        0 min,  1.038 sec
 * total energy  :  -427.3551337 Eh     change       -0.1516673E-03 Eh
   gradient norm :     0.0037893 Eh/α   predicted    -0.1177186E-03 ( -22.38%)
   displ. norm   :     0.5393684 α      lambda       -0.1792856E-03
   maximum displ.:     0.3270455 α      in ANC's #13, #15, #17, ...

........................................................................
.............................. CYCLE   58 ..............................
........................................................................
   1   -434.7995502 -0.434800E+03  0.691E-04    0.95       0.0  T
   2   -434.7995503 -0.622261E-07  0.387E-04    0.95      16.6  T
   3   -434.7995503 -0.522236E-07  0.200E-04    0.95      32.1  T
   4   -434.7995504 -0.190811E-07  0.124E-04    0.95      52.0  T
   5   -434.7995504 -0.726413E-08  0.503E-05    0.95     127.7  T
     SCC iter.                  ...        0 min,  1.783 sec
     gradient                   ...        0 min,  1.052 sec
 * total energy  :  -427.3552914 Eh     change       -0.1577028E-03 Eh
   gradient norm :     0.0039411 Eh/α   predicted    -0.1157254E-03 ( -26.62%)
   displ. norm   :     0.5880942 α      lambda       -0.2117899E-03
   maximum displ.:     0.3603964 α      in ANC's #13, #15, #17, ...

........................................................................
.............................. CYCLE   59 ..............................
........................................................................
   1   -434.8012283 -0.434801E+03  0.821E-04    0.95       0.0  T
   2   -434.8012284 -0.752870E-07  0.449E-04    0.95      14.3  T
   3   -434.8012284 -0.704391E-07  0.242E-04    0.95      26.6  T
   4   -434.8012285 -0.319615E-07  0.135E-04    0.95      47.5  T
   5   -434.8012285 -0.764533E-08  0.575E-05    0.95     111.7  T
     SCC iter.                  ...        0 min,  1.782 sec
     gradient                   ...        0 min,  1.058 sec
 * total energy  :  -427.3554757 Eh     change       -0.1843568E-03 Eh
   gradient norm :     0.0036556 Eh/α   predicted    -0.1425236E-03 ( -22.69%)
   displ. norm   :     0.6411734 α      lambda       -0.2185267E-03
   maximum displ.:     0.3962335 α      in ANC's #13, #15, #17, ...

........................................................................
.............................. CYCLE   60 ..............................
........................................................................
   1   -434.8024149 -0.434802E+03  0.761E-04    0.95       0.0  T
   2   -434.8024149 -0.477046E-07  0.442E-04    0.95      14.5  T
   3   -434.8024150 -0.762749E-07  0.228E-04    0.95      28.2  T
   4   -434.8024150 -0.321510E-07  0.127E-04    0.95      50.8  T
   5   -434.8024150 -0.660634E-08  0.527E-05    0.95     122.1  T
     SCC iter.                  ...        0 min,  1.856 sec
     gradient                   ...        0 min,  1.029 sec
 * total energy  :  -427.3556608 Eh     change       -0.1851156E-03 Eh
   gradient norm :     0.0031547 Eh/α   predicted    -0.1541839E-03 ( -16.71%)
   displ. norm   :     0.6411484 α      lambda       -0.1927542E-03
   maximum displ.:     0.4025412 α      in ANC's #13, #15, #17, ...

........................................................................
.............................. CYCLE   61 ..............................
........................................................................
   1   -434.8043729 -0.434804E+03  0.814E-04    0.95       0.0  T
   2   -434.8043730 -0.355634E-07  0.471E-04    0.95      13.7  T
   3   -434.8043730 -0.305601E-07  0.304E-04    0.95      21.2  T
   4   -434.8043730 -0.338633E-07  0.189E-04    0.95      34.1  T
   5   -434.8043731 -0.190560E-07  0.580E-05    0.95     110.8  T
     SCC iter.                  ...        0 min,  1.929 sec
[...]
           -------------------------------------------------

      molecular mass/u    :     2441.7850099
   center of mass at/Å    :       68.6519095      -0.5118717      -0.3360915
  moments of inertia/u·Å² :        0.6378659E+05   0.5787141E+06   0.5866155E+06
rotational constants/cm⁻¹ :        0.2642818E-03   0.2912946E-04   0.2873710E-04

 * 240 selected distances

     #   Z          #   Z                                           value/Å
     2   6 C        3   6 C                                       1.3894884
     3   6 C        4   6 C                                       1.4362429
     4   6 C        5   6 C                                       1.3573690
     5   6 C        6   6 C                                       1.4362570
     3   6 C        7   7 N                                       1.3678362
     6   6 C        7   7 N                                       1.3589544
     6   6 C        8   6 C                                       1.4075083
     9   6 C       10   6 C                                       1.2136494
    11   6 C       12   6 C                                       1.3999731
    12   6 C       13   6 C                                       1.3833749
    13   6 C       14   7 N                                       1.3307575
    14   7 N       15   6 C                                       1.3308091
    11   6 C       16   6 C                                       1.4001061
    15   6 C       16   6 C                                       1.3832898
     8   6 C       17   6 C                                       1.4067700
    17   6 C       18   6 C                                       1.4340929
    18   6 C       19   6 C                                       1.3583906
    17   6 C       20   7 N                                       1.3635441
    19   6 C       21   6 C                                       1.4337132
    20   7 N       21   6 C                                       1.3632399
    21   6 C       22   6 C                                       1.4072739
    22   6 C       23   6 C                                       1.4076692
    23   6 C       24   6 C                                       1.4337551
    24   6 C       25   6 C                                       1.3582891
    25   6 C       26   6 C                                       1.4339729
    23   6 C       27   7 N                                       1.3631248
    26   6 C       27   7 N                                       1.3636182
    26   6 C       28   6 C                                       1.4067667
    29   6 C       30   6 C                                       1.2136470
    31   6 C       32   6 C                                       1.4000978
    32   6 C       33   6 C                                       1.3832872
    33   6 C       34   7 N                                       1.3308071
    34   7 N       35   6 C                                       1.3307578
    31   6 C       36   6 C                                       1.3999519
    35   6 C       36   6 C                                       1.3833641
    28   6 C       37   6 C                                       1.4072865
    37   6 C       38   6 C                                       1.4361941
    38   6 C       39   6 C                                       1.3573979
     2   6 C       40   6 C                                       1.3894819
    39   6 C       40   6 C                                       1.4362848 (max)
    37   6 C       41   7 N                                       1.3589332
    40   6 C       41   7 N                                       1.3677753
     2   6 C       42   1 H                                       1.0857207
     4   6 C       43   1 H                                       1.0787545
     5   6 C       44   1 H                                       1.0786190
    12   6 C       45   1 H                                       1.0833469
    13   6 C       46   1 H                                       1.0862858
    15   6 C       47   1 H                                       1.0862915
    16   6 C       48   1 H                                       1.0833712
    18   6 C       49   1 H                                       1.0784931
    19   6 C       50   1 H                                       1.0784294
    24   6 C       51   1 H                                       1.0783700
    25   6 C       52   1 H                                       1.0784615
    32   6 C       53   1 H                                       1.0833651
    33   6 C       54   1 H                                       1.0862847
    35   6 C       55   1 H                                       1.0862838
    36   6 C       56   1 H                                       1.0833519
    38   6 C       57   1 H                                       1.0786294
    39   6 C       58   1 H                                       1.0787551
    60   6 C       61   6 C                                       1.3894904
    61   6 C       62   6 C                                       1.4362768
    62   6 C       63   6 C                                       1.3574149
    63   6 C       64   6 C                                       1.4361642
    61   6 C       65   7 N                                       1.3677454
    64   6 C       65   7 N                                       1.3589455
    64   6 C       66   6 C                                       1.4072881
    67   6 C       68   6 C                                       1.2136521
    69   6 C       70   6 C                                       1.4001296
    70   6 C       71   6 C                                       1.3832571
    71   6 C       72   7 N                                       1.3307925
    72   7 N       73   6 C                                       1.3307618
    69   6 C       74   6 C                                       1.3999280
    73   6 C       74   6 C                                       1.3834034
    66   6 C       75   6 C                                       1.4067702
    75   6 C       76   6 C                                       1.4339225
    76   6 C       77   6 C                                       1.3583256
    75   6 C       78   7 N                                       1.3637253
    77   6 C       79   6 C                                       1.4337073
    78   7 N       79   6 C                                       1.3629865
    79   6 C       80   6 C                                       1.4080062
    80   6 C       81   6 C                                       1.4075341
    81   6 C       82   6 C                                       1.4336701
    82   6 C       83   6 C                                       1.3584670
    83   6 C       84   6 C                                       1.4340176
    81   6 C       85   7 N                                       1.3630535
    84   6 C       85   7 N                                       1.3637439
    84   6 C       86   6 C                                       1.4066603
    87   6 C       88   6 C                                       1.2137044
    89   6 C       90   6 C                                       1.3999419
    90   6 C       91   6 C                                       1.3833957
    91   6 C       92   7 N                                       1.3307796
    92   7 N       93   6 C                                       1.3307843
    89   6 C       94   6 C                                       1.4001490
    93   6 C       94   6 C                                       1.3832833
    86   6 C       95   6 C                                       1.4076447
    95   6 C       96   6 C                                       1.4362459
    96   6 C       97   6 C                                       1.3573665
    60   6 C       98   6 C                                       1.3894669
    97   6 C       98   6 C                                       1.4361995
    95   6 C       99   7 N                                       1.3589181
    98   6 C       99   7 N                                       1.3678572
    60   6 C      100   1 H                                       1.0857174
    62   6 C      101   1 H                                       1.0787508
    63   6 C      102   1 H                                       1.0786292
    70   6 C      103   1 H                                       1.0833701
    71   6 C      104   1 H                                       1.0862820
    73   6 C      105   1 H                                       1.0862855
    74   6 C      106   1 H                                       1.0833450
    76   6 C      107   1 H                                       1.0784637
    77   6 C      108   1 H                                       1.0783651 (min)
    82   6 C      109   1 H                                       1.0784409
    83   6 C      110   1 H                                       1.0784997
    90   6 C      111   1 H                                       1.0833317
    91   6 C      112   1 H                                       1.0862812
    93   6 C      113   1 H                                       1.0862985
    94   6 C      114   1 H                                       1.0833885
    96   6 C      115   1 H                                       1.0786155
    97   6 C      116   1 H                                       1.0787474
   117   6 C      118   6 C                                       1.2209262
   119   6 C      120   6 C                                       1.2210049
   121   6 C      122   6 C                                       1.2224650
   123   6 C      124   6 C                                       1.2224586
   125   6 C      126   6 C                                       1.2211926
   127   6 C      128   6 C                                       1.2210994
   130   6 C      131   6 C                                       1.4075661
   131   6 C      132   6 C                                       1.4332176
   132   6 C      133   6 C                                       1.3585725
   133   6 C      134   6 C                                       1.4334640
   131   6 C      135   7 N                                       1.3632568
   134   6 C      135   7 N                                       1.3632644
   134   6 C      136   6 C                                       1.4070491
   137   6 C      138   6 C                                       1.2136455
   139   6 C      140   6 C                                       1.3998908
   140   6 C      141   6 C                                       1.3834057
   141   6 C      142   7 N                                       1.3307142
   142   7 N      143   6 C                                       1.3307475
   139   6 C      144   6 C                                       1.4000650
   143   6 C      144   6 C                                       1.3833231
   136   6 C      145   6 C                                       1.4062633
   145   6 C      146   6 C                                       1.4331475
   146   6 C      147   6 C                                       1.3589060
   145   6 C      148   7 N                                       1.3642132
   147   6 C      149   6 C                                       1.4329506
   148   7 N      149   6 C                                       1.3622453
   149   6 C      150   6 C                                       1.4094890
   150   6 C      151   6 C                                       1.4096002
   151   6 C      152   6 C                                       1.4328964
   152   6 C      153   6 C                                       1.3588430
   153   6 C      154   6 C                                       1.4331082
   151   6 C      155   7 N                                       1.3622741
   154   6 C      155   7 N                                       1.3642582
   154   6 C      156   6 C                                       1.4063975
   157   6 C      158   6 C                                       1.2136309
   159   6 C      160   6 C                                       1.3998738
   160   6 C      161   6 C                                       1.3834257
   161   6 C      162   7 N                                       1.3307097
   162   7 N      163   6 C                                       1.3307463
   159   6 C      164   6 C                                       1.4000611
   163   6 C      164   6 C                                       1.3832854
   156   6 C      165   6 C                                       1.4068466
   165   6 C      166   6 C                                       1.4334610
   166   6 C      167   6 C                                       1.3586110
   130   6 C      168   6 C                                       1.4075197
   167   6 C      168   6 C                                       1.4332953
   165   6 C      169   7 N                                       1.3632104
   168   6 C      169   7 N                                       1.3631543
   132   6 C      170   1 H                                       1.0783689
   133   6 C      171   1 H                                       1.0784339
   140   6 C      172   1 H                                       1.0833313
   141   6 C      173   1 H                                       1.0862512
   143   6 C      174   1 H                                       1.0862651
   144   6 C      175   1 H                                       1.0833741
   146   6 C      176   1 H                                       1.0784670
   147   6 C      177   1 H                                       1.0784118
   152   6 C      178   1 H                                       1.0783792
   153   6 C      179   1 H                                       1.0784474
   160   6 C      180   1 H                                       1.0833409
   161   6 C      181   1 H                                       1.0862461
   163   6 C      182   1 H                                       1.0862625
   164   6 C      183   1 H                                       1.0833391
   166   6 C      184   1 H                                       1.0784482
   167   6 C      185   1 H                                       1.0783830
   187   6 C      188   6 C                                       1.4096433
   188   6 C      189   6 C                                       1.4329719
   189   6 C      190   6 C                                       1.3588753
   190   6 C      191   6 C                                       1.4331199
   188   6 C      192   7 N                                       1.3622004
   191   6 C      192   7 N                                       1.3642650
   191   6 C      193   6 C                                       1.4063518
   194   6 C      195   6 C                                       1.2136249
   196   6 C      197   6 C                                       1.3999854
   197   6 C      198   6 C                                       1.3833708
   198   6 C      199   7 N                                       1.3307459
   199   7 N      200   6 C                                       1.3306921
   196   6 C      201   6 C                                       1.3999424
   200   6 C      201   6 C                                       1.3833561
   193   6 C      202   6 C                                       1.4068992
   202   6 C      203   6 C                                       1.4333736
   203   6 C      204   6 C                                       1.3586423
   202   6 C      205   7 N                                       1.3633218
   204   6 C      206   6 C                                       1.4331569
   205   7 N      206   6 C                                       1.3630862
   206   6 C      207   6 C                                       1.4077193
   207   6 C      208   6 C                                       1.4078091
   208   6 C      209   6 C                                       1.4331321
   209   6 C      210   6 C                                       1.3586231
   210   6 C      211   6 C                                       1.4333731
   208   6 C      212   7 N                                       1.3630938
   211   6 C      212   7 N                                       1.3633752
   211   6 C      213   6 C                                       1.4069764
   214   6 C      215   6 C                                       1.2136552
   216   6 C      217   6 C                                       1.3998732
   217   6 C      218   6 C                                       1.3833954
   218   6 C      219   7 N                                       1.3306902
   219   7 N      220   6 C                                       1.3307582
   216   6 C      221   6 C                                       1.4000692
   220   6 C      221   6 C                                       1.3833155
   213   6 C      222   6 C                                       1.4063008
   222   6 C      223   6 C                                       1.4331444
   223   6 C      224   6 C                                       1.3589078
   187   6 C      225   6 C                                       1.4095669
   224   6 C      225   6 C                                       1.4329499
   222   6 C      226   7 N                                       1.3642527
   225   6 C      226   7 N                                       1.3622406
   189   6 C      227   1 H                                       1.0783876
   190   6 C      228   1 H                                       1.0784534
   197   6 C      229   1 H                                       1.0833553
   198   6 C      230   1 H                                       1.0862390
   200   6 C      231   1 H                                       1.0862704
   201   6 C      232   1 H                                       1.0833231
   203   6 C      233   1 H                                       1.0784410
   204   6 C      234   1 H                                       1.0783775
   209   6 C      235   1 H                                       1.0783689
   210   6 C      236   1 H                                       1.0784385
   217   6 C      237   1 H                                       1.0833114
   218   6 C      238   1 H                                       1.0862593
   220   6 C      239   1 H                                       1.0862581
   221   6 C      240   1 H                                       1.0833697
   223   6 C      241   1 H                                       1.0784633
   224   6 C      242   1 H                                       1.0784077

 * 3 distinct bonds (by element types)

   Z      Z             #   av. dist./Å        max./Å        min./Å
   1 H    6 C          66     1.0817742     1.0862985     1.0783651
   6 C    6 C         126     1.3822501     1.4362848     1.2136249
   6 C    7 N          48     1.3524535     1.3678572     1.3306902


optimized geometry written to: xtbopt.xyz


           -------------------------------------------------
          | TOTAL ENERGY             -427.357261741659 Eh   |
          | GRADIENT NORM               0.000872282504 Eh/α |
          | HOMO-LUMO GAP               0.951610460734 eV   |
           -------------------------------------------------

------------------------------------------------------------------------
 * finished run on 2022/07/30 at 10:54:20.028     
------------------------------------------------------------------------
 total:
 * wall-time:     0 d,  0 h,  6 min,  9.411 sec
 *  cpu-time:     0 d,  0 h,  6 min,  6.969 sec
 * ratio c/w:     0.993 speedup
 SCF:
 * wall-time:     0 d,  0 h,  0 min, 11.523 sec
 *  cpu-time:     0 d,  0 h,  0 min, 11.452 sec
 * ratio c/w:     0.994 speedup
 ANC optimizer:
 * wall-time:     0 d,  0 h,  5 min, 57.478 sec
 *  cpu-time:     0 d,  0 h,  5 min, 55.114 sec
 * ratio c/w:     0.993 speedup

