142
 energy: -227.756351234727 gnorm: 0.000596980701 xtb: 6.5.1 (b24c23e)
Ni          14.21229492302003        0.07391774347425       -0.11581958252124
C           10.86686968014878        0.28342135609268       -0.65059042662881
C           11.51069939938314        1.39230864209069       -0.14221211079061
C           10.83476783709707        2.60260785576441        0.21237875876536
C           11.78002925886798        3.45349974954140        0.67547394354792
C           13.03714415298603        2.77129900401853        0.57690939749441
N           12.85712295856651        1.49591572015302        0.10146724870637
C           14.25956186066556        3.35552588850277        0.88076630538160
C           15.46621510796145        2.68223135941174        0.74671881236362
C           16.74226134654532        3.30098204766722        0.94173611880640
C           17.67836768862072        2.35057180113658        0.70745075930634
N           15.62109613573985        1.36305328367213        0.38446421273070
C           16.97296232834962        1.15314204688705        0.37812783422075
C           17.61275750041438       -0.06631218338840        0.14204874753057
C           16.91305443751026       -1.24858480796865       -0.11275800197790
C           17.55407511810038       -2.51630444864404       -0.26115661723669
C           16.57572276763420       -3.41992109254090       -0.50759756310049
C           15.33944730135664       -2.69809935049570       -0.52081561109127
C           14.12258689482001       -3.27201654962218       -0.86095253653611
C           14.08560028954323       -4.72511828110239       -1.16449211771565
C           13.81362445227791       -5.16370623046912       -2.45837774323711
C           13.78582483354130       -6.52386312623587       -2.75172667922241
C           13.47796746793485       -6.98860132353723       -4.14958136736032
C           14.02651060828604       -7.44411429204143       -1.73733003649907
C           14.29810899864823       -7.02042800618456       -0.43867011180527
C           14.57084771875057       -8.03242346242518        0.64120462719513
C           14.32989473629629       -5.65927595044966       -0.15862987310644
C           12.94956554652559       -2.53724577974333       -0.96910188633886
C           11.69133427896994       -3.09758651773979       -1.36686626591434
C           10.78701613539347       -2.09107677794972       -1.33886371571913
C           11.48728828842414       -0.92282163745986       -0.89974528625373
N           12.81430838612679       -1.20072337697308       -0.68639739179809
N           15.55851098990399       -1.36332059860558       -0.26235553093895
C           14.28547508251555        4.77157128456288        1.32332353619409
C           13.84499467489966        5.78157730951714        0.46905171558156
C           13.87459772064956        7.11158766483718        0.87377755537234
C           13.42227039870504        8.20124986709487       -0.06043771517704
C           14.34835410033252        7.42728694507090        2.14385195353458
C           14.79202440946511        6.43045522528994        3.00751577560341
C           15.28293080836588        6.78209989130967        4.38590614829487
C           14.75934346178433        5.10357325437240        2.59131833979511
H            9.80051439929772        0.35335086117104       -0.83148988011336
H            9.77112898715667        2.75693392336509        0.12335952122655
H           11.65100609419988        4.45497809534383        1.05259958223223
H           16.89184066202321        4.33416469543817        1.20932301239345
H           18.75197150869944        2.43564317479439        0.75530495684501
H           18.61717170068722       -2.67728664505275       -0.18265834844603
H           16.67254173863398       -4.47853965486248       -0.68508244586351
H           13.63971736708638       -4.43591532013195       -3.24341373047187
H           13.88904422114398       -7.98203081529270       -4.32937172726653
H           12.39630800582391       -7.03549935285416       -4.29526063727860
H           13.88833166316838       -6.29754803169590       -4.88639719184326
H           14.00454257368140       -8.50612895430577       -1.95945240840093
H           14.52392123744174       -7.57317657588469        1.62844204902433
H           13.84617422681258       -8.84647182277772        0.59648029440327
H           15.56674837955314       -8.46051939451471        0.50780108233747
H           14.53250449109669       -5.31548810964455        0.84976403353130
H           11.53275808058555       -4.13167559620334       -1.62636161990059
H            9.73450114613706       -2.12069480099194       -1.57213951663575
H           13.49327548278684        5.52428017937405       -0.52406996864123
H           12.94627255409021        9.01205294706802        0.49173360195789
H           12.71834325330162        7.81465201519709       -0.79751635098410
H           14.28191542404603        8.61364881694740       -0.59364020352430
H           14.37352797258397        8.46396771561174        2.46374439608712
H           14.44445195582838        6.79715912803778        5.08599307884126
H           15.74729868654373        7.76849767314524        4.39232152989883
H           16.00718821071224        6.04805313902391        4.73947626196469
H           15.09230953300588        4.31657537262432        3.25910379543132
Ni          30.18760621557166        0.09193211822557       -0.10426542206031
C           33.53217734030544        0.55063840148275       -0.45604622401338
C           32.88884430437475       -0.24809901998478       -1.37840748512979
C           33.56515635502840       -0.92655702152968       -2.44129002762096
C           32.62039330063945       -1.61023362096555       -3.12831680893687
C           31.36310428251844       -1.32568381958142       -2.50083795521557
N           31.54266901465458       -0.51239332198147       -1.40933051412660
C           30.14089424886093       -1.78098150774256       -2.97720817360874
C           28.93395752313010       -1.46357834351740       -2.36900990386344
C           27.65800648916865       -1.82241978582382       -2.90973878364084
C           26.72162531668161       -1.33047485910152       -2.06376606030995
N           28.77875233937053       -0.74685473649856       -1.20387025248209
C           27.42677175891398       -0.68078558215497       -1.00521015865801
C           26.78711565382055       -0.11474450436308        0.10045652245233
C           27.48711202182284        0.45713404281160        1.16600922656952
C           26.84611599207642        0.95019349516243        2.34333025416407
C           27.82457375914242        1.43574304508569        3.14413563476342
C           29.06086474423788        1.24892470838990        2.44682773467333
C           30.27753588201665        1.73572925815312        2.90357964004364
C           30.31434907206384        2.43127275123747        4.21496809394400
C           30.58694808901312        3.79602741919643        4.27577093825869
C           30.61438205931073        4.45690406099328        5.50022285101849
C           30.92271910669338        5.92879928949581        5.55669708136184
C           30.37269881129937        3.73933773261070        6.66661666887064
C           30.10050480195000        2.37415958311328        6.62151554150478
C           29.82685783854524        1.61936334655777        7.89434000733265
C           30.06906272207691        1.72577348680517        5.39235255397132
C           31.45013750017229        1.63768714426139        2.16662132697531
C           32.70798235601265        2.17720383671662        2.59335846177483
C           33.61181943759057        1.87250667138224        1.63319867310784
C           32.91179299997387        1.12517790584797        0.63348180709406
N           31.58527201616412        0.99539092006542        0.96095281865082
N           28.84168267219919        0.63195194391908        1.23525380817479
C           30.11543335850709       -2.60087020016775       -4.21366280236816
C           30.55673293347166       -2.06171984316689       -5.42135689833090
C           30.52744238363386       -2.82063286655367       -6.58614893445793
C           30.98058053930233       -2.22675137542346       -7.89254478637705
C           30.05315480591137       -4.12819752162658       -6.53603839539202
C           29.60871417396611       -4.68007510860446       -5.33839513832772
C           29.11729123840610       -6.10171352255947       -5.29292666583998
C           29.64106722843504       -3.91098944325386       -4.17977314162135
H           34.59825147900959        0.70623555526430       -0.57436564848811
H           34.62872641011155       -0.88335257642070       -2.61454599080422
H           32.74990372090150       -2.25250754364056       -3.98419823158825
H           27.50869641589070       -2.36829306722722       -3.82689564565573
H           25.64800262853905       -1.39877738526812       -2.13322890523600
H           25.78295959410207        0.91985594439534        2.51945631360510
H           27.72773108585742        1.89821936611462        4.11278670621907
H           30.76139841527894        4.34706489805592        3.35809206008030
H           30.51352170316803        6.37830774224110        6.46151347428855
H           32.00441785601866        6.08149021514749        5.55896284321467
H           30.51077158704845        6.44402790671412        4.68853493544573
H           30.39431392176185        4.24865823951197        7.62464868010361
H           29.87313202716336        0.54320192027631        7.72856663529216
H           30.55146582615090        1.88880130333495        8.66387324454901
H           28.83101583704375        1.86750361095030        8.26797087746507
H           29.86611818575870        0.66157729199144        5.34328397403725
H           32.86677957272531        2.71356457347733        3.51472713090511
H           34.66393679169828        2.10647471217317        1.59595592370406
H           30.90880211934396       -1.03634366146720       -5.45049431925919
H           31.45640910190910       -2.98296601324041       -8.51751671768374
H           31.68487398836499       -1.41158263146852       -7.72602225500427
H           30.12134077082008       -1.82888483202190       -8.43731811729596
H           30.02814973148378       -4.72400470709425       -7.44271240390111
H           29.95560448041152       -6.77874854628936       -5.11333351992788
H           28.65238465947712       -6.38173184727690       -6.23850789279324
H           28.39334864856825       -6.23718540214527       -4.48922839220800
H           29.30746616770099       -4.33320885757936       -3.23817136183950
C           22.81372707777166       -0.15630169951891        0.19906710724521
C           21.58620340010267       -0.15100971997435        0.20323929649282
C           20.24043090636824       -0.13082940827984        0.19958949959536
C           19.01767726234524       -0.10765238144374        0.18301642181966
C           24.15953149678798       -0.15132444896195        0.18133115651648
C           25.38226480195251       -0.14365951699967        0.15269822269016
