183
 energy: -364.962129140491 gnorm: 0.000963928329 xtb: 6.5.1 (b24c23e)
Cu          34.84205267764828       -0.01670678059037       -0.07773288316651
C           31.43598918104503       -0.02946625322373       -0.14118857738505
C           32.06802762818333       -1.25167438431898       -0.31157938379105
C           31.38991756947173       -2.50816722406680       -0.45618459817839
C           32.34591198818527       -3.45789641993078       -0.60326828495005
C           33.61740759466858       -2.78654821396122       -0.56546213581744
N           33.41811880640908       -1.45009049389949       -0.37549143015305
C           34.86201419146879       -3.40890049837000       -0.69227220877227
C           34.87387451017599       -4.86864835471875       -0.94605113318672
C           35.49255422720658       -5.73603320908471       -0.04023284730120
C           35.50016794622537       -7.10037669242398       -0.26568973238379
C           34.88824663800145       -7.60243289609361       -1.41070044863995
N           34.89217036307009       -9.03461132869992       -1.65228610468552
O           34.34565842619656       -9.43328426643739       -2.64850332482296
O           35.44126130460730       -9.73495922554785       -0.84118842325503
C           34.27158083339305       -6.75615050188899       -2.32776594287404
C           34.26512343984669       -5.39380682096071       -2.09009597405636
C           36.09717316003842       -2.76252141600797       -0.59886695953084
C           37.36933041009389       -3.38704032347362       -0.82691973077382
C           38.31712330714450       -2.43229421747757       -0.64976759012126
N           36.28950479033573       -1.43971702553455       -0.30280212939385
C           37.63333944273893       -1.21989527250349       -0.31407097630089
C           38.27280377583380       -0.00164017002763       -0.02657669239179
C           37.61529419485147        1.21071026968366        0.24427108132751
C           38.27832993062706        2.42755461825517        0.60443591211522
C           37.31704402675364        3.37198583608614        0.76326146386090
C           36.05742929818839        2.73732044554240        0.49691307521034
N           36.27029479498241        1.41855119331110        0.19684400514458
C           34.81383154188177        3.37055636315976        0.56132879679159
C           34.80019548213760        4.82514861246244        0.84411893847719
C           34.15129046658318        5.31508378756005        1.98178634506398
C           34.13010588324784        6.67135006671077        2.25050414703714
C           34.75931167228832        7.54733757226510        1.37060917399553
N           34.73360524102193        8.97349768740454        1.64420937042493
O           34.15698334265199        9.34019474993237        2.63580642914338
O           35.28981264127950        9.70125179864213        0.86261319460706
C           35.41087870546909        7.08069967120558        0.23255540358802
C           35.43097020413834        5.72178271452766       -0.02379227289415
C           33.57967132701288        2.73943312689495        0.38468460056890
C           32.30256286552085        3.40112816117946        0.38327540666620
C           31.35999755829752        2.44654899232053        0.18866400229163
C           32.05238258485883        1.19641957486905        0.05716871310909
N           33.39772172327088        1.40386788364108        0.17296909130132
H           30.35120908281157       -0.03328535870776       -0.16187598857493
H           30.31910753530178       -2.63411080637712       -0.43399165414730
H           32.20939725944497       -4.52141587490891       -0.71469541894044
H           35.95425791903067       -5.33369246964060        0.85394483404582
H           35.97050874489994       -7.78073805344578        0.43400154763804
H           33.80709111190045       -7.17174440002273       -3.21387623946477
H           33.79939072338093       -4.72341472112605       -2.80298259565878
H           37.51486175943383       -4.41761854448364       -1.10724316744207
H           39.38565129220099       -2.53049510702935       -0.75027609395496
H           39.34299800745031        2.53512684137245        0.73282088199937
H           37.44528518718990        4.40212080738156        1.05341022325606
H           33.67508597007200        4.62153259502584        2.66501333912443
H           33.63411501498454        7.05949893139590        3.13194163011577
H           35.88993702922140        7.78392300601054       -0.43802454786895
H           35.92364964331329        5.34736918853767       -0.91351818997794
H           32.15390236820134        4.46220734906431        0.50222501593091
H           30.28985918008368        2.56515405510453        0.12782373030497
Cu          56.68514469201756        0.06915435349484       -0.02100849681732
C           60.09316763081396        0.11021644059428       -0.13388138119413
C           59.46345704233045        1.30531349600168        0.17765341229505
C           60.14380120130546        2.52668969101325        0.50148955862498
C           59.18907965071590        3.46054442999947        0.73360556779349
C           57.91613917500939        2.82017944731908        0.53793980832684
N           58.11316715600295        1.50952368792987        0.21428204643791
C           56.67184278327824        3.44112584602325        0.66979929329280
C           56.66105960019929        4.89078155919021        0.97744335410444
C           56.05973677937590        5.35804535236458        2.15036563326006
C           56.04993046047648        6.70885656585329        2.44613156910242
C           56.64349911987574        7.60227854376191        1.55895359973289
N           56.63595770061551        9.02212059014350        1.86455356834003
O           57.17436807674883        9.76340515887500        1.08319500154669
O           56.09137539380161        9.37037033044166        2.88058444053923
C           57.24476408858411        7.15863320917976        0.38460051189682
C           57.25254984876207        5.80518432447065        0.10036796753894
C           55.43552292795547        2.80449588262746        0.53336542270163
C           54.16574277561463        3.47049946072165        0.58247712402328
C           53.21448574446327        2.51998279435212        0.40583445898968
N           55.23652037764458        1.46759202124304        0.31235173390162
C           53.88972833713444        1.26921981651896        0.24249761457386
C           53.24207158989623        0.03208911681422        0.06886351218336
C           53.90648263022491       -1.19326326415928       -0.12400795194128
C           53.25108093584989       -2.46059991520700       -0.23169987182026
C           54.21246661155188       -3.39287991939665       -0.44738011241324
C           55.46748504411863       -2.69852014095147       -0.48053365926186
N           55.25137778481707       -1.36350607860631       -0.26416616520692
C           56.70775737030393       -3.30730258280914       -0.68766385859779
C           56.71491043940992       -4.76002204609424       -0.98093682429798
C           57.38384045956383       -5.64897598790816       -0.13396031521257
C           57.39947622368793       -7.00446701806691       -0.40772451609307
C           56.74410539632121       -7.47552182596709       -1.54175132998377
N           56.76484100427010       -8.89704413353520       -1.83905124788631
O           57.36499803042840       -9.61602421043291       -1.08211390318197
O           56.18182721584647       -9.26875389489668       -2.82495160420995
C           56.07125885389100       -6.60788521634456       -2.39734023496203
C           56.05751625799363       -5.25490847824083       -2.11157376362609
C           57.94251092375528       -2.65542703956181       -0.64374980041771
C           59.21460934178574       -3.26662945263550       -0.92101066216287
C           60.15954206492870       -2.30782346902137       -0.76194117325705
C           59.47300343147845       -1.10081860823928       -0.39967658775274
N           58.12874364999001       -1.33775172067290       -0.34312736678917
H           61.17738218370815        0.12344542935225       -0.17118339276636
H           61.21526921366091        2.63772510134625        0.55245316358465
H           59.32744632731773        4.48946435373430        1.02394633267185
H           55.61247906843352        4.65106325211104        2.83938932608842
H           55.59169783235432        7.07945693342690        3.35517002542762
H           57.69567977488569        7.87500691130868       -0.29156322020464
H           57.70554085443681        5.44887953191955       -0.81745320442801
H           54.02239452011471        4.53033935486643        0.71602966608304
H           52.14660078163732        2.65135275298244        0.38147380835556
H           52.18955343476224       -2.61457755420852       -0.14086279089361
H           54.08660768016767       -4.45769514862522       -0.55667594655249
H           57.88037208596666       -5.27111263345873        0.75215392267825
H           57.91119732404766       -7.70133354991160        0.24505505933087
H           55.57146977906939       -6.99963588017579       -3.27510283993501
H           55.54850207281209       -4.56749363073378       -2.77716632982276
H           59.35828071172687       -4.29449093783628       -1.21250651041959
H           61.22746119889540       -2.39343120573301       -0.88522635279718
C           39.68267033591133        0.00307258983910       -0.00696156634152
C           40.89939110778527        0.00429233031765        0.00868633599470
C           50.61136603900863        0.00875997522151        0.08527628321877
C           51.82978366401596        0.01869328843496        0.08525538445642
Cu          45.74913862199345        0.00357750288706        0.04192363103212
C           42.30866737184633        0.00476789696907        0.02135132344638
C           42.95924220352916       -1.23440430905390        0.15674046167997
C           42.29045564257010       -2.48321247502004        0.36515924238537
C           43.24689306769588       -3.44575238589267        0.39307085897443
C           44.50804586865038       -2.78837682651017        0.19911931469571
N           44.30227297627768       -1.44124582661841        0.07799922374202
C           45.74808718724941       -3.43035169345795        0.14694859160756
C           45.74421587542117       -4.91169354855667        0.17663720775077
C           46.41060796572724       -5.60396547615453        1.19244765799353
C           46.40721410280334       -6.98662846288525        1.22046853458667
C           45.73564039707404       -7.68464414626634        0.22100273946328
N           45.73251091948753       -9.13712774050108        0.24356765213422
O           45.13660801896240       -9.70646025138919       -0.63367052049914
O           46.32777576063722       -9.68145209053046        1.13751070014480
C           45.06675846073585       -7.01529598966031       -0.79964518674966
C           45.07171051919023       -5.63258114035002       -0.81530862819277
C           46.98876282161337       -2.79247078765757        0.06481945026734
C           48.24939110308860       -3.46378106512720       -0.07278423853432
C           49.20753321571402       -2.50348588874434       -0.09282373145792
N           47.19881452984734       -1.44019215118224        0.10297504454374
C           48.54385093333678       -1.24079560596216        0.02247594809865
C           49.19934588211802        0.00385742136798        0.07897048142711
C           48.53993740872944        1.24713388446598        0.12017758915131
C           49.19962900154185        2.51097080024807        0.24211713233991
C           48.24273435443298        3.47085061796489        0.18488180168349
C           46.98664402595149        2.79753471838226        0.02159919560252
N           47.19723904751881        1.44509024413740        0.00501896737021
C           45.74994823054839        3.43643136980345       -0.10078944066631
C           45.75741502376703        4.91580370105704       -0.18230206735629
C           46.44696039224899        5.55926777750997       -1.21497349481796
C           46.45506345191003        6.93919821550281       -1.30267545557227
C           45.77213956692300        7.68399136543517       -0.34539276743880
N           45.77843353774040        9.13401222728531       -0.43231459318524
O           46.38711451517986        9.63457790482634       -1.34284861596951
O           45.17335704947062        9.74520562909521        0.41008365293540
C           45.08302853244341        7.06379867529228        0.69281049380759
C           45.07641835716404        5.68284912838485        0.76796929964257
C           44.50945677251431        2.79676329873033       -0.15759478071930
C           43.25045966008467        3.45233873348769       -0.37081869771133
C           42.29316117011646        2.49089745069920       -0.33684675519232
C           42.95990256209318        1.24401308440205       -0.10995558273009
N           44.30190545020213        1.45137335458974       -0.02026345389814
H           41.22633244296949       -2.60017157910055        0.48961020583301
H           43.11438048310973       -4.50369638626859        0.55146949924456
H           46.91913903067037       -5.04940322535189        1.97237665189700
H           46.91622081632881       -7.53169438159335        2.00619832969860
H           44.55400025525944       -7.58203379840567       -1.56746921338571
H           44.56505473402182       -5.09971643919891       -1.61151605157160
H           48.38215089008857       -4.52978822661898       -0.16042813188808
H           50.27185135166708       -2.63416065124261       -0.18815203438491
H           50.26036882369274        2.64287764755721        0.36690100606626
H           48.37244179198233        4.53772791888134        0.26554184115400
H           46.96473631028320        4.96758342990952       -1.96090563296296
H           46.98084672771888        7.44614809676128       -2.10277499819668
H           44.56374466270940        7.66686300211875        1.42787696045176
H           44.55407684057019        5.18859479072808        1.57882537530946
H           43.11966200660897        4.50833445224211       -0.54298534081576
H           41.22983193674858        2.60704825384360       -0.46917785055710
