228
 energy: -376.673420126322 gnorm: 0.663224576749 xtb: 6.5.1 (b24c23e)
Zn          46.45168899999999        0.07351100000000        0.01996700000000
C           43.11512600000000       -0.08255900000000        0.00955500000000
C           43.77923500000000       -1.23476300000000       -0.11827400000000
C           43.12955600000000       -2.53150400000000       -0.26866400000000
C           44.07138500000000       -3.45521700000000       -0.31605600000000
C           45.37621500000000       -2.79079600000000       -0.19658800000000
N           45.19792800000000       -1.37921700000000       -0.07615200000000
C           46.56641800000000       -3.42252200000000       -0.15140800000000
C           47.86005100000000       -2.70648500000000       -0.00094000000000
C           49.15059400000000       -3.38128300000000        0.18397100000000
C           50.08531000000000       -2.45480700000000        0.24176500000000
N           48.00066900000000       -1.41743000000000       -0.06090800000000
C           49.40017400000000       -1.17739400000000        0.08636400000000
C           49.99474800000000        0.02503500000000        0.01567500000000
C           49.23373400000000        1.28261800000000       -0.16323500000000
C           49.77070200000000        2.42768900000000       -0.56543900000000
C           48.72696600000000        3.43244000000000       -0.52338100000000
C           47.62094900000000        2.83599400000000       -0.09408800000000
C           46.33584000000000        3.53800800000000        0.15711500000000
C           46.35495999999999        5.01280900000000        0.31507600000000
C           45.69569700000000        5.83876100000000       -0.61117200000000
C           45.73439900000000        7.22887400000000       -0.46607500000000
C           46.43595500000000        7.80283400000000        0.59790100000000
C           47.10199800000000        6.98760000000000        1.51739900000000
C           47.06520299999999        5.59694700000000        1.37647600000000
C           45.17079300000000        2.86800500000000        0.24581800000000
C           43.85843300000000        3.44894200000000        0.52460100000000
C           42.99684100000000        2.45187000000000        0.47211700000000
C           43.74982300000000        1.23492100000000        0.17383400000000
N           45.01797300000000        1.46502900000000        0.04040100000000
N           47.85070800000000        1.44736800000000        0.15293600000000
C           46.60519899999999       -4.89743200000000       -0.24331600000000
C           46.50420999999999       -5.52958300000000       -1.49221100000000
C           46.54230300000000       -6.92483200000000       -1.57680400000000
C           46.68221900000000       -7.69336500000000       -0.41720400000000
C           46.78406699999999       -7.06778300000000        0.82904700000000
C           46.74568600000000       -5.67283200000000        0.91789900000000
H           42.03172400000000       -0.11115900000000        0.00656600000000
H           42.06523000000000       -2.72122100000000       -0.32318800000000
H           43.88595200000000       -4.51708300000000       -0.41384100000000
H           49.32801300000000       -4.44613300000000        0.25607600000000
H           51.14398000000000       -2.63929100000000        0.36661700000000
H           50.80004099999999        2.59537100000000       -0.85260000000000
H           48.83981700000000        4.47908200000000       -0.77480000000000
H           45.15683800000000        5.40545000000000       -1.44485300000000
H           45.22312700000000        7.86131300000000       -1.18022800000000
H           46.46585499999999        8.87910300000000        0.70819500000000
H           47.64779900000000        7.43336100000000        2.33887100000000
H           47.58629300000000        4.97505400000000        2.09409500000000
H           43.61358900000000        4.48115100000000        0.73753900000000
H           41.92956500000000        2.53333800000000        0.63099200000000
H           46.39613599999999       -4.94203400000000       -2.39567100000000
H           46.46373899999999       -7.41029500000000       -2.54092600000000
H           46.71185699999999       -8.77318400000000       -0.48434200000000
H           46.89266400000000       -7.66379200000000        1.72590400000000
H           46.82532300000000       -5.19654700000000        1.88740900000000
Zn          80.48595299999998       -0.02358300000000        0.01785800000000
C           83.82251599999998        0.13279200000000        0.01423200000000
C           83.15840699999998        1.28946000000000       -0.06344500000000
C           83.80808500000001        2.59150800000000       -0.15738600000000
C           82.86625599999999        3.51640800000000       -0.16462400000000
C           81.56142699999999        2.84742600000000       -0.07411900000000
N           81.73971299999998        1.43194900000000       -0.01509000000000
C           80.37122400000000        3.47659500000000       -0.00155100000000
C           79.07759100000000        2.75469900000000        0.11768300000000
C           77.78704799999998        3.42083100000000        0.33172100000000
C           76.85233199999999        2.49272000000000        0.34923100000000
N           78.93697299999999        1.46946400000000        0.00179800000000
C           77.53746800000000        1.22325900000000        0.13850900000000
C           76.94289400000000        0.02503500000000        0.01567500000000
C           77.70390800000000       -1.22359400000000       -0.21767300000000
C           77.16694000000000       -2.35012100000000       -0.66921900000000
C           78.21067499999998       -3.35575000000000       -0.67082900000000
C           79.31669300000000       -2.77850800000000       -0.21604100000000
C           80.60180099999999       -3.49076700000000        0.00444200000000
C           80.58268099999998       -4.97103600000000        0.09821500000000
C           81.24194400000000       -5.75599000000000       -0.86302400000000
C           81.20324200000000       -7.15109200000000       -0.77842400000000
C           80.50168700000000       -7.77071000000000        0.25962500000000
C           79.83564400000000       -6.99617100000000        1.21365500000000
C           79.87243799999999       -5.60071100000000        1.13324900000000
C           81.76684899999999       -2.82524800000000        0.12215400000000
C           83.07920799999999       -3.41774200000000        0.37544900000000
C           83.94080099999999       -2.41933100000000        0.36630900000000
C           83.18781900000000       -1.19057800000000        0.12114900000000
N           81.91966800000000       -1.41467500000000       -0.02214900000000
N           79.08693400000000       -1.40191800000000        0.09104600000000
C           80.33244299999998        4.95410400000000       -0.02932900000000
C           80.43343100000000        5.63988900000000       -1.24959700000000
C           80.39533900000001        7.03749500000000       -1.27352500000000
C           80.25542299999999        7.75495100000000       -0.08164800000000
C           80.15357500000000        7.07584400000000        1.13626300000000
C           80.19195600000000        5.67835100000000        1.16446000000000
H           84.90591700000000        0.16149500000000        0.01248800000000
H           84.87241099999999        2.78341400000000       -0.20362000000000
H           83.05168900000000        4.58151900000000       -0.21620800000000
H           77.60962800000000        4.48154700000000        0.44999600000000
H           75.79366199999998        2.67160900000000        0.48197600000000
H           76.13759999999999       -2.50517600000000       -0.96339000000000
H           78.09782500000000       -4.39048800000000       -0.96745700000000
H           81.78080399999999       -5.28688700000000       -1.67710300000000
H           81.71451399999999       -7.75192500000000       -1.51936600000000
H           80.47178700000001       -8.85075300000000        0.32308200000000
H           79.28984199999999       -7.47718200000000        2.01499600000000
H           79.35134900000000       -5.01056400000000        1.87719500000000
H           83.32405299999999       -4.45822400000000        0.54336500000000
H           85.00807700000000       -2.50762100000000        0.52149700000000
H           80.54150600000000        5.09212400000000       -2.17771700000000
H           80.47390300000001        7.56436400000000       -2.21565900000000
H           80.22578500000000        8.83666600000000       -0.10183500000000
H           80.04497700000000        7.63234800000000        2.05815400000000
H           80.11231900000000        5.16041700000000        2.11237400000000
C           52.09998100000000        0.02503500000000        0.01567500000000
C           53.32189899999999        0.02503500000000        0.01567500000000
C           62.85786199999999        0.02503500000000        0.01567500000000
C           64.07978000000000        0.02503500000000        0.01567500000000
C           73.61574299999999        0.02503500000000        0.01567500000000
C           74.83766000000000        0.02503500000000        0.01567500000000
Zn          58.02189199999999        0.07010300000000        0.02474100000000
C           54.64768400000000       -0.02685500000000       -0.01681500000000
C           55.30650499999999       -1.19992700000000       -0.02162400000000
C           54.66105700000000       -2.51461600000000       -0.00970200000000
C           55.60080300000000       -3.43729900000000       -0.01798200000000
C           56.90446700000000       -2.76738100000000       -0.03937100000000
N           56.72853099999999       -1.34886000000000       -0.03845100000000
C           58.09099799999999       -3.40662900000000       -0.05781500000000
C           59.40011999999999       -2.71053800000000       -0.08349400000000
C           60.68508199999999       -3.41413000000000       -0.18152300000000
C           61.63972800000000       -2.50993500000000       -0.17581800000000
N           59.56103800000000       -1.42379000000000       -0.01952800000000
C           60.97358900000000       -1.21656600000000       -0.07202800000000
C           61.59565500000000       -0.02685500000000       -0.01681500000000
C           60.87132699999999        1.26150100000000        0.09731700000000
C           61.47207299999999        2.43391700000000        0.25172900000000
C           60.44150400000000        3.44674500000000        0.29132400000000
C           59.27209999999999        2.83315900000000        0.15155100000000
C           57.96528900000000        3.54256200000000        0.11548800000000
C           57.97445200000000        5.02473100000000        0.13813600000000
C           57.60681800000000        5.71723200000000        1.30319200000000
C           57.63086799999999        7.11503800000000        1.32665000000000
C           58.02758400000000        7.82714400000000        0.19054400000000
C           58.39798600000000        7.14278300000000       -0.97101500000000
C           58.37378499999999        5.74467500000000       -0.99900300000000
C           56.78318900000000        2.89750400000000        0.06289000000000
C           55.47452999999999        3.54121200000000       -0.00240900000000
C           54.58884200000000        2.56984400000000       -0.04364200000000
C           55.31713900000000        1.29697700000000       -0.00665500000000
N           56.60190399999999        1.48001300000000        0.05429400000000
N           59.45109800000000        1.42020000000000        0.02711300000000
C           58.11277900000000       -4.88527400000000       -0.06392200000000
C           57.97211500000000       -5.58879500000000       -1.27031700000000
C           58.00977500000000       -6.98648600000000       -1.27464400000000
C           58.18893199999999       -7.68614600000000       -0.07752800000000
C           58.32933899999999       -6.98891900000000        1.12646900000000
C           58.29390200000000       -5.59131700000000        1.13475100000000
H           53.60077999999999       -2.72864900000000        0.00664700000000
H           55.41449600000000       -4.50362000000000       -0.00720500000000
H           60.84158700000000       -4.48211800000000       -0.25185600000000
H           62.69887099999999       -2.72010000000000       -0.23860900000000
H           62.53483200000000        2.61782800000000        0.32936900000000
H           60.60726000000000        4.50877500000000        0.40552200000000
H           57.30648800000000        5.17445000000000        2.19047000000000
H           57.34524700000000        7.64682200000000        2.22585900000000
H           58.04806700000000        8.90879900000000        0.21206900000000
H           58.70741599999999        7.69514300000000       -1.84889000000000
H           58.66746400000000        5.22327500000000       -1.90184700000000
H           55.24728300000000        4.59977000000000       -0.02041000000000
H           53.51870499999999        2.71518000000000       -0.09834200000000
H           57.83684999999999       -5.05472900000000       -2.20251000000000
H           57.90258599999999       -7.52752700000000       -2.20585200000000
H           58.21972200000000       -8.76761800000000       -0.08240200000000
H           58.46807900000000       -7.53239100000000        2.05237900000000
H           58.40732999999999       -5.05873200000000        2.07070200000000
Zn          68.77977199999998        0.07010300000000        0.02474100000000
C           65.40556500000000       -0.02685500000000       -0.01681500000000
C           66.06438600000000       -1.19992700000000       -0.02162400000000
C           65.41893800000000       -2.51461600000000       -0.00970200000000
C           66.35868400000000       -3.43729900000000       -0.01798200000000
C           67.66234700000000       -2.76738100000000       -0.03937100000000
N           67.48641200000000       -1.34886000000000       -0.03845100000000
C           68.84887799999998       -3.40662900000000       -0.05781500000000
C           70.15800100000000       -2.71053800000000       -0.08349400000000
C           71.44296299999999       -3.41413000000000       -0.18152300000000
C           72.39760900000000       -2.50993500000000       -0.17581800000000
N           70.31891800000000       -1.42379000000000       -0.01952800000000
C           71.73147000000000       -1.21656600000000       -0.07202800000000
C           72.35353600000001       -0.02685500000000       -0.01681500000000
C           71.62920699999999        1.26150100000000        0.09731700000000
C           72.22995400000001        2.43391700000000        0.25172900000000
C           71.19938499999999        3.44674500000000        0.29132400000000
C           70.02998100000001        2.83315900000000        0.15155100000000
C           68.72317000000000        3.54256200000000        0.11548800000000
C           68.73233300000000        5.02473100000000        0.13813600000000
C           68.36469900000000        5.71723200000000        1.30319200000000
C           68.38874799999999        7.11503800000000        1.32665000000000
C           68.78546400000000        7.82714400000000        0.19054400000000
C           69.15586699999999        7.14278300000000       -0.97101500000000
C           69.13166600000000        5.74467500000000       -0.99900300000000
C           67.54107000000000        2.89750400000000        0.06289000000000
C           66.23241100000000        3.54121200000000       -0.00240900000000
C           65.34672300000000        2.56984400000000       -0.04364200000000
C           66.07501999999999        1.29697700000000       -0.00665500000000
N           67.35978500000000        1.48001300000000        0.05429400000000
N           70.20897800000000        1.42020000000000        0.02711300000000
C           68.87065900000000       -4.88527400000000       -0.06392200000000
C           68.72999500000000       -5.58879500000000       -1.27031700000000
C           68.76765500000000       -6.98648600000000       -1.27464400000000
C           68.94681199999998       -7.68614600000000       -0.07752800000000
C           69.08721999999999       -6.98891900000000        1.12646900000000
C           69.05178300000000       -5.59131700000000        1.13475100000000
H           64.35866100000000       -2.72864900000000        0.00664700000000
H           66.17237700000000       -4.50362000000000       -0.00720500000000
H           71.59946700000000       -4.48211800000000       -0.25185600000000
H           73.45675199999998       -2.72010000000000       -0.23860900000000
H           73.29271199999999        2.61782800000000        0.32936900000000
H           71.36514099999999        4.50877500000000        0.40552200000000
H           68.06436900000000        5.17445000000000        2.19047000000000
H           68.10312799999998        7.64682200000000        2.22585900000000
H           68.80594799999999        8.90879900000000        0.21206900000000
H           69.46529699999999        7.69514300000000       -1.84889000000000
H           69.42534499999999        5.22327500000000       -1.90184700000000
H           66.00516399999999        4.59977000000000       -0.02041000000000
H           64.27658599999999        2.71518000000000       -0.09834200000000
H           68.59473100000000       -5.05472900000000       -2.20251000000000
H           68.66046699999998       -7.52752700000000       -2.20585200000000
H           68.97760300000000       -8.76761800000000       -0.08240200000000
H           69.22595899999999       -7.53239100000000        2.05237900000000
H           69.16521099999999       -5.05873200000000        2.07070200000000
228
 energy: -376.887249610817 gnorm: 0.374383414285 xtb: 6.5.1 (b24c23e)
Zn          46.45647746864231        0.06822342590633        0.01908374942935
C           43.11465579280175       -0.06414927777155        0.01197313647070
C           43.78383406590098       -1.23564794930195       -0.11811123173646
C           43.12948965005953       -2.52485789988726       -0.26790468255732
C           44.08245488147556       -3.45764996893574       -0.31569622715941
C           45.37604849620081       -2.78538255465502       -0.19669725375057
N           45.17505931157306       -1.40078918564153       -0.08066442982619
C           46.58482383599184       -3.41705213904108       -0.14990787403102
C           47.85762886065478       -2.72142755880148       -0.00188930557557
C           49.13896455488953       -3.39370920248368        0.18224206008314
C           50.08720967040760       -2.45063332451399        0.24074736376085
N           48.02525458418297       -1.41406983761063       -0.05397182676914
C           49.42389065227615       -1.17142531739767        0.08605781342802
C           50.03117086411309        0.04189753196887        0.00995315775730
C           49.24529983933967        1.27015846806600       -0.15065837921676
C           49.77815083914513        2.45410662562110       -0.56857105768399
C           48.75270629125304        3.43545466316142       -0.52557999635064
C           47.61610023159574        2.82181609734865       -0.08338713789620
C           46.35243747356876        3.52731998781744        0.15696071252600
C           46.36526800615275        5.01017505038025        0.31002984462357
C           45.69816166493501        5.83846853357093       -0.60554415806549
C           45.73680777736460        7.22404395802162       -0.46167343493598
C           46.43582198000047        7.79779728730154        0.59739846181430
C           47.09847894894877        6.98436598882454        1.51321812033887
C           47.06527802933913        5.59908625946149        1.37132930425559
C           45.16964061708889        2.86728640902294        0.24672835984416
C           43.86550258918474        3.44783472270809        0.52252829460538
C           42.98470051139422        2.44032246104626        0.47071846991750
C           43.72716286528248        1.22745653319044        0.17269740787896
N           45.01307770425073        1.47774114192124        0.04793012786083
N           47.86788326996876        1.44938633784972        0.14506344351551
C           46.61173075357672       -4.90022837119718       -0.24312906495530
C           46.50452455139828       -5.53291093519617       -1.48718234864744
C           46.54224793573212       -6.92255938091143       -1.57152168924390
C           46.68213133641589       -7.68888811976918       -0.41692094315532
C           46.78338949287767       -7.06527360589197        0.82434374911401
C           46.74722117874899       -5.67615401318267        0.91316620483891
H           42.03160539887700       -0.10335890881968        0.00832731379577
H           42.06555014802770       -2.71089011698301       -0.32249896136285
H           43.89947903446284       -4.51839444096677       -0.41370196125197
H           49.31708187654675       -4.45360546437989        0.25528324773689
H           51.14444106377758       -2.62932594709763        0.36637860590767
H           50.80368403548707        2.60621898437850       -0.85626452916231
H           48.84772090133305        4.47972582527819       -0.77791684991681
H           45.15918664593347        5.40448225067744       -1.44184996412010
H           45.22453125724637        7.85843123413337       -1.17837982316323
H           46.46582270632961        8.87671239006833        0.70782510055225
H           47.64608481618227        7.43139443391468        2.33682073177191
H           47.58480498656621        4.97529425805590        2.09139086112060
H           43.62587711033257        4.48040452937105        0.73578740503374
H           41.92292612607447        2.52467277107437        0.63016832957543
H           46.39679589061610       -4.94240531886725       -2.39180436572114
H           46.46388176656037       -7.40876577551048       -2.53855199233564
H           46.71182955889735       -8.77113821214156       -0.48425619564348
H           46.89219106359211       -7.66228088653475        1.72386144973500
H           46.82510704451079       -5.19680002096325        1.88395582396682
Zn          80.48134951864903       -0.01828319128055        0.01719735501049
C           83.82294554283347        0.11433989886187        0.01584574190981
C           83.15384749382007        1.29034312519985       -0.06324555677515
C           83.80816003474622        2.58485644310917       -0.15691330093590
C           82.85519887635043        3.51879640733711       -0.16416086775287
C           81.56160251961197        2.84192396309055       -0.07446283187330
N           81.76252308441590        1.45373911767423       -0.01865989905474
C           80.35268033248829        3.47105927982037       -0.00026446127204
C           79.08015444330734        2.76973004847601        0.11736429666348
C           77.79854798569180        3.43330990025881        0.33051907967489
C           76.85037738937403        2.48872856303971        0.34811123488705
N           78.91263034563559        1.46576053920030        0.00850677849507
C           77.51413189643489        1.21741007090329        0.13792429579347
C           76.90899841304632        0.00791311424665        0.00939021598225
C           77.69258479319859       -1.21226712431111       -0.20473040551880
C           77.15944825683103       -2.37666164433486       -0.67361992053641
C           78.18495631487572       -3.35875986678131       -0.67315651815956
C           79.32153001872472       -2.76483848714907       -0.20475940247627
C           80.58526372913327       -3.48011436132146        0.00473399394630
C           80.57236129168436       -4.96822393794796        0.09328289575451
C           81.23950317459585       -5.75594268667929       -0.85739890465741
C           81.20083019964457       -7.14645669264109       -0.77381667333959
C           80.50181889991646       -7.76564522476282        0.25934042016384
C           79.83916585545688       -6.99276329795609        1.20961963692940
C           79.87232753931598       -5.60262498252262        1.12801631272667
C           81.76798482902159       -2.82457158814086        0.12309677446681
C           83.07216685329283       -3.41654440309992        0.37342858164182
C           83.95292479004669       -2.40777120689908        0.36541477453905
C           83.21043333630539       -1.18309899927588        0.12033367585097
N           81.92454155374654       -1.42767303054330       -0.01518090636752
N           79.06983491779029       -1.40369786271452        0.08328977982447
C           80.32586575441519        4.95694039252097       -0.02901668431342
C           80.43311905931606        5.64298698271660       -1.24444689375478
C           80.39539541549148        7.03499333689559       -1.26834075197317
C           80.25551224218256        7.75045236467294       -0.08155867947255
C           80.15426105382838        7.07354454047672        1.13145279172802
C           80.19041408128109        5.68187439786611        1.15990046780260
H           84.90599648623750        0.15363594333173        0.01390239917693
H           84.87207632178999        2.77306888985369       -0.20338056348650
H           83.03814063710782        4.58279065321612       -0.21600991116837
H           77.62049506828131        4.48900005521365        0.44951776778143
H           75.79317463847622        2.66167503428628        0.48128865441909
H           76.13389168809708       -2.51595497131409       -0.96756188299572
H           78.08993286506117       -4.39102223579998       -0.97060371453314
H           81.77845541091446       -5.28604534463465       -1.67407105069133
H           81.71310455139889       -7.74910733156447       -1.51738828697471
H           80.47181945952153       -8.84832596347151        0.32281530724709
H           79.29156381442989       -7.47511438664060        2.01302987449051
H           79.35283952464528       -5.01068266544906        1.87450150195400
H           83.31176643094169       -4.45738771003337        0.54164334224473
H           85.01468610888614       -2.49892892107494        0.52104952510067
H           80.54084141437048        5.09231792676835       -2.17384812653076
H           80.47375896979042        7.56271111109508       -2.21334324091078
H           80.22581150117429        8.83459355660530       -0.10183801133088
H           80.04545093848826        7.63090742481010        2.05603897995011
H           80.11253466048464        5.16081322361298        2.10894790332837
C           52.01543030269760        0.02264592112426        0.01377397407929
C           53.24674328654839        0.02869405793438        0.01602947575303
C           62.87754677259475        0.03759296321868        0.01324825848771
C           64.08262695417464        0.03067371421868        0.01731882838208
C           73.70236910445503        0.03728048754305        0.01395729613894
C           74.93355995104839        0.02487509459468        0.01486643762797
Zn          58.02425513983972        0.06584768178905        0.02376018466913
C           54.63902493223003       -0.00726046282110       -0.01478810542354
C           55.31126794734040       -1.20362427440040       -0.02096993816634
C           54.65959769578946       -2.50492739133473       -0.00969555740521
C           55.61169613173649       -3.43960804938004       -0.01808468676142
C           56.90248323879698       -2.76316178441386       -0.03924008030323
N           56.70370579237176       -1.37068955285879       -0.03797145121878
C           58.10592062405308       -3.40532387688206       -0.05868565404231
C           59.38998150641751       -2.73665599522278       -0.08348694180707
C           60.66695166830200       -3.43118456445316       -0.18138930992811
C           61.63006085126936       -2.50243390091083       -0.17558139321919
N           59.56577633431577       -1.43305228596245       -0.02268708383711
C           60.94899571629135       -1.22926330724957       -0.07326150691675
C           61.54734847961362       -0.01040221703547       -0.01182050589521
C           60.84152022349787        1.25990267792981        0.09455535027355
C           61.46931622771540        2.45942687628643        0.25367512307189
C           60.46316733078822        3.45387421034978        0.29158346539450
C           59.25909551234075        2.82538813288346        0.14824513893551
C           57.98064748941626        3.53232678734075        0.11590447450832
C           57.98440744049966        5.02318106560838        0.14015312835128
C           57.60825808054788        5.71849251948895        1.29762673406037
C           57.63215045033976        7.11139474534930        1.32118612403132
C           58.02725635174522        7.82216748668141        0.19038889544182
C           58.39601101043579        7.13932843585004       -0.96618220305993
C           58.37490059990139        5.74656733857642       -0.99353269552973
C           56.78254506376300        2.89714418916546        0.06310869358407
C           55.48242257629595        3.53995685882921       -0.00190726651533
C           54.57625967726941        2.55697577361074       -0.04396358550678
C           55.29745996311708        1.29332250584017       -0.00673972776682
N           56.59669100888274        1.49487165123594        0.05288513130645
N           59.45126339463539        1.43411681072617        0.02884303217579
C           58.11840259438787       -4.88988439128953       -0.06468571247018
C           57.97276374233872       -5.59261884741994       -1.26567363968105
C           58.01004114357224       -6.98439153171980       -1.26972070589911
C           58.18869629119688       -7.68176347565252       -0.07741797784056
C           58.32851633399086       -6.98693783687313        1.12168168159265