128
 energy: -233.314046007654 gnorm: 0.990222808909 xtb: 6.5.1 (b24c23e)
C           13.63323300000000       -0.18927000000000       -0.39129200000000
C           14.34502600000000        1.16206200000000       -0.69920900000000
C           13.70965300000000        2.35386500000000       -0.96400300000000
C           14.72051000000000        3.32580300000000       -1.17241600000000
C           15.94216600000000        2.69351800000000       -1.02965100000000
N           15.70034600000000        1.37525000000000       -0.73219200000000
C           17.37030700000000        3.37192100000000       -1.15474700000000
C           17.40739200000000        4.79061900000000       -1.58600600000000
C           17.56476400000000        5.82472900000000       -0.65479400000000
C           17.55576800000000        7.15547300000000       -1.08459500000000
C           17.74441000000000        8.22914200000000       -0.08182700000000
O           17.33411900000000        9.43411000000000       -0.53167700000000
O           18.20666200000000        8.12116700000000        1.03771100000000
C           17.38924700000000        7.45330200000000       -2.44605800000000
C           17.23831700000000        6.42334300000000       -3.37535300000000
C           17.24771100000000        5.09699200000000       -2.94515900000000
C           18.50423800000000        2.66921900000000       -0.89124600000000
C           19.81296200000000        3.28903000000000       -0.94404200000000
C           20.71891100000000        2.38298200000000       -0.59585600000000
N           18.70414100000000        1.35916500000000       -0.53952800000000
C           20.04209300000000        1.12527200000000       -0.34449600000000
C           20.72414500000000        0.00000000000000        0.00000000000000
C           19.97565100000000       -1.39224600000000        0.17366200000000
C           20.58212000000000       -2.63406000000000        0.19540800000000
C           19.56697300000000       -3.60531700000000        0.36596000000000
C           18.36346600000000       -2.93512000000000        0.43049900000000
N           18.61907700000000       -1.58796500000000        0.29706500000000
C           16.93787300000000       -3.60915600000000        0.60261800000000
C           16.88913100000000       -5.03335200000000        1.00306400000000
C           16.90510500000000       -6.04017200000000        0.02834100000000
C           16.87039400000000       -7.38453900000000        0.39856900000000
C           16.81372000000000       -7.72872700000000        1.74985000000000
C           16.79543600000000       -6.72749500000000        2.73332200000000
C           16.72560300000000       -7.14319500000000        4.15343800000000
O           16.90602100000000       -6.12303900000000        5.01069100000000
O           16.54495600000000       -8.28041900000000        4.55565100000000
C           16.83618700000000       -5.38077500000000        2.35873500000000
C           15.80771300000000       -2.88947400000000        0.38370300000000
C           14.47957100000000       -3.46751500000000        0.50071000000000
C           13.58822600000000       -2.52395000000000        0.21767500000000
C           14.30970600000000       -1.31053200000000       -0.08038800000000
N           15.63871300000000       -1.57963500000000        0.03176300000000
H           12.54961300000000       -0.20934500000000       -0.42407000000000
H           12.64138600000000        2.50780800000000       -0.99842700000000
H           14.57292700000000        4.37088100000000       -1.39878400000000
H           16.41338300000000        0.66888200000000       -0.56775000000000
H           17.69017100000000        5.57485500000000        0.39708900000000
H           17.50928200000000       10.01023700000000        0.24006700000000
H           17.38586700000000        8.48362100000000       -2.78982700000000
H           17.11487100000000        6.64489300000000       -4.43109300000000
H           17.12899400000000        4.28314800000000       -3.66015900000000
H           20.03085500000000        4.30975900000000       -1.20097500000000
H           21.77617300000000        2.56857500000000       -0.54311300000000
H           21.63995400000000       -2.82870100000000        0.09794300000000
H           19.70216700000000       -4.67540600000000        0.42410700000000
H           17.90585900000000       -0.86382700000000        0.24348900000000
H           16.94419100000000       -5.75637800000000       -1.02167100000000
H           16.88707000000000       -8.15559700000000       -0.36688500000000
H           16.78389600000000       -8.77727100000000        2.03629500000000
H           16.83426100000000       -6.52174900000000        5.89876700000000
H           16.81943300000000       -4.58406100000000        3.10097300000000
H           14.24970900000000       -4.48421000000000        0.76590700000000
H           12.51959400000000       -2.63712100000000        0.21422000000000
C           31.26784500000000        0.01250400000000       -0.43448400000000
C           30.55605200000000       -1.34646200000000       -0.16223600000000
C           31.19142500000000       -2.54222700000000        0.08405200000000
C           30.18056800000000       -3.51431200000000        0.29177600000000
C           28.95891200000000       -2.87899100000000        0.16319700000000
N           29.20073200000000       -1.55447100000000       -0.10505800000000
C           27.53077200000000       -3.54915600000000        0.32677500000000
C           27.49368600000000       -5.02007700000000        0.51406700000000
C           27.33631400000000       -5.58236900000000        1.78700300000000
C           27.34531000000000       -6.97244700000000        1.93962000000000
C           27.15666800000000       -7.54153800000000        3.29403700000000
O           27.56695900000000       -8.82506900000000        3.37687300000000
O           26.69441600000000       -6.98472900000000        4.27127100000000
C           27.51183100000000       -7.80150800000000        0.81937800000000
C           27.66276100000000       -7.24221900000000       -0.45010900000000
C           27.65336700000000       -5.85598900000000       -0.60056900000000
C           26.39684000000000       -2.80016400000000        0.27952700000000
C           25.08811600000000       -3.38727400000000        0.48508400000000
C           24.18216700000000       -2.41808700000000        0.43185800000000
N           26.19693700000000       -1.46092600000000        0.06413900000000
C           24.85898500000000       -1.16769000000000        0.14633500000000
C           24.17693300000000        0.00000000000000        0.00000000000000
C           24.92542700000000        1.34133700000000       -0.41148700000000
C           24.31895800000000        2.48323600000000       -0.89999800000000
C           25.33410500000000        3.43920100000000       -1.14198600000000
C           26.53761200000000        2.85415200000000       -0.80874900000000
N           26.28200100000000        1.57042300000000       -0.37901800000000
C           27.96320500000000        3.53958300000000       -0.92763700000000
C           28.01194700000000        5.00290700000000       -1.14529200000000
C           27.99597300000000        5.52248700000000       -2.44675600000000
C           28.03068400000000        6.90060700000000       -2.65930200000000
C           28.08735799999999        7.76779800000000       -1.56732900000000
C           28.10564200000000        7.25689700000000       -0.26017000000000
C           28.17547500000000        8.21751100000000        0.86533300000000
O           27.99505700000000        7.63767500000000        2.06508000000000
O           28.35612200000000        9.41973300000000        0.76676600000000
C           28.06489100000000        5.87484600000000       -0.05063700000000
C           29.09336500000000        2.79334900000000       -0.83275900000000
C           30.42150700000000        3.36863600000000       -0.96263300000000
C           31.31285200000000        2.39188900000000       -0.83460700000000
C           30.59137200000000        1.16278500000000       -0.60982500000000
N           29.26236500000000        1.45421800000000       -0.61766200000000
H           32.35146500000000        0.01740300000000       -0.47260800000000
H           32.25969200000000       -2.69677200000000        0.11566300000000
H           30.32815099999999       -4.56047900000000        0.51305900000000
H           28.48769500000000       -0.84268400000000       -0.24418500000000
H           27.21090700000000       -4.92379000000000        2.64442300000000
H           27.39179600000000       -9.03478900000000        4.31683500000000
H           27.51521100000000       -8.88226800000000        0.92750700000000
H           27.78620700000000       -7.87653500000000       -1.32264400000000
H           27.77208400000000       -5.40615400000000       -1.58607200000000
H           24.87022300000000       -4.42373700000000        0.66851300000000
H           23.12490500000000       -2.56582600000000        0.55595400000000
H           23.26112400000000        2.62092300000000       -1.06860000000000
H           25.19891200000000        4.43932400000000       -1.52698800000000
H           26.99521900000000        0.88780700000000       -0.13146500000000
H           27.95688700000000        4.83372700000000       -3.28858400000000
H           28.01400800000000        7.29075300000000       -3.67332200000000
H           28.11718200000000        8.84171900000000       -1.73521700000000
H           28.06681700000000        8.36499100000000        2.71211900000000
H           28.08164500000000        5.45178900000000        0.95270400000000
H           30.65136900000000        4.40480200000000       -1.13687000000000
H           32.38148400000000        2.49373000000000       -0.88408700000000
C           21.83958000000000        0.00000000000000        0.00000000000000
C           23.06149800000000        0.00000000000000        0.00000000000000
128
 energy: -233.552236321667 gnorm: 0.322094705922 xtb: 6.5.1 (b24c23e)
C           13.65655388630464       -0.15892629456647       -0.39804634485263
C           14.34167236548730        1.14657058792531       -0.69478442384092
C           13.71442217895740        2.35794064279554       -0.96515303139326
C           14.71972535662176        3.32332303576385       -1.17264529226019
C           15.95808249689783        2.69784285181121       -1.03059225024049
N           15.70101329484171        1.37544463660640       -0.73251456656727
C           17.33865994309906        3.35381304000120       -1.15179483949783
C           17.39594516285592        4.78311205295324       -1.58375647739299
C           17.56517791687438        5.81960986365269       -0.65861609086043
C           17.55784864076025        7.15131790328521       -1.08614900398706
C           17.74452600810585        8.22917346552027       -0.08223243914471
O           17.33685416009069        9.43338086061900       -0.52598702829401
O           18.20296586180112        8.11391632203318        1.02947071251437
C           17.38896862208900        7.45004830886094       -2.44517306568716
C           17.23971128775927        6.42131835069762       -3.37016313963128
C           17.24586703620841        5.09624165248173       -2.94164706228557
C           18.49881972266336        2.67238690841377       -0.89313961415107
C           19.80952895772226        3.30077774074047       -0.94689301570573
C           20.71279101381569        2.38212686286614       -0.59569813604601
N           18.67560218078748        1.35932653555223       -0.53882334609103
C           19.97791664791669        1.14921848599209       -0.34814112708386
C           20.59436260165274       -0.03097038491391        0.00324807680114
C           19.95057839390402       -1.39432349609578        0.17266695965929
C           20.57168808571726       -2.63563094233863        0.19732947532675
C           19.56495389912384       -3.60481824013745        0.36748832736718
C           18.34267630742676       -2.94432151099230        0.43238666019688
N           18.60647837282611       -1.59616290390454        0.29826547283198
C           16.96649033558980       -3.58981940336582        0.59907569557491
C           16.89880203856395       -5.02677446617401        1.00082619396462
C           16.90627585590613       -6.03787194740939        0.03066864673204
C           16.86993192334662       -7.38049444122636        0.40119630274226
C           16.81320181986403       -7.72649459444345        1.74700217546215
C           16.79434386133382       -6.72790699649202        2.72917735687819
C           16.72732996345734       -7.14419481356353        4.15301779412203
O           16.90382988678133       -6.12704987372476        5.01173867149642
O           16.54587667557147       -8.27299966703207        4.54875280518657
C           16.83721246419796       -5.38003254284822        2.35421569816126
C           15.80665907999339       -2.88318612742128        0.38382095971867
C           14.47847268706044       -3.47578676895589        0.50290136682556
C           13.58252179078981       -2.52760365143406        0.21844593642796
C           14.31705925679353       -1.31169731390817       -0.08005739874430
N           15.64912412711331       -1.57210563120926        0.03038832147296
H           12.56472000008242       -0.19566141181814       -0.42666041809061
H           12.64520501501061        2.51070243084432       -0.99926423730846
H           14.57160262421182        4.36880747021705       -1.39857927675142
H           16.41265279448931        0.67022364493583       -0.56788698071991
H           17.68982393251912        5.57751984047656        0.39428224534369
H           17.50734829471619       10.01668820136746        0.23633574433434
H           17.38592510853924        8.48129234415780       -2.78702253667618
H           17.11562368867843        6.64480899784211       -4.42693989985124
H           17.12891558147819        4.28610412724725       -3.65840702767096
H           20.02785955629227        4.31867314504090       -1.20331144156703
H           21.77247021785268        2.55968031105310       -0.53763012251763
H           21.62945816972375       -2.82820695331737        0.09665145860538
H           19.70375881461292       -4.67369209066301        0.42432612010647
H           17.90322009414662       -0.86705671868251        0.24416124180136
H           16.94446815883573       -5.75777452833406       -1.01915243039217
H           16.88672595002044       -8.15298187137729       -0.36389665281876
H           16.78380357199741       -8.77384722797716        2.03721570045402
H           16.83495469692341       -6.51859724062341        5.90032804423423
H           16.81989409261641       -4.58840015198200        3.09994530907815
H           14.25317779694103       -4.49177143257434        0.76799930495520
H           12.51358697561295       -2.63534361993658        0.21351873453499
C           31.24452401479997       -0.01794548514769       -0.42822497060520
C           30.55940566492222       -1.33051696516783       -0.16454069248091
C           31.18665582504184       -2.54641622739070        0.08467116128216
C           30.18135272364034       -3.51214335900830        0.29055154977698
C           28.94299552693586       -2.88332192535302        0.16410868429089
N           29.20006471928227       -1.55478068392664       -0.10527260305974
C           27.56241868836410       -3.53142624629017        0.32205579446113
C           27.50513291992753       -5.01230723745455        0.51304620267841
C           27.33590008049919       -5.57926299487625        1.78142040932742
C           27.34322935206836       -6.96929203687545        1.93650128733610
C           27.15655198266330       -7.54173272721348        3.29367974465173
O           27.56422383972910       -8.82207443546219        3.38176592185268
O           26.69811211732678       -6.98148691076261        4.26078478528506
C           27.51210936751983       -7.79817723915938        0.81885381601409
C           27.66136672464463       -7.23824748147749       -0.44620312778015
C           27.65521099300327       -5.85386659253329       -0.59767219358341
C           26.40225827786211       -2.80382919451146        0.27909612236109
C           25.09154904862499       -3.39915942335838        0.48729188686430
C           24.18828701043823       -2.41724218802895        0.43165206410942
N           26.22547588218878       -1.46078507238204        0.06484812215430
C           24.92316145309218       -1.19103037415829        0.15281187950241
C           24.30671541594751        0.02958622138128       -0.00971459588404
C           24.95049969889866        1.34282528940270       -0.41324539929665
C           24.32938997872881        2.48545590983495       -0.89888791506028
C           25.33612408710786        3.43937176029359       -1.14038743670353
C           26.55840181154850        2.86331999163424       -0.81079361957196
N           26.29459968255230        1.57839370610471       -0.38127849851975
C           27.93458762794244        3.52049062070407       -0.92295321356453
C           28.00227596281801        4.99598961599680       -1.14464122497030
C           27.99480214556482        5.52134132966589       -2.44369072403129
C           28.03114607613218        6.89799253885694       -2.65524929690908
C           28.08787617897703        7.76459516636750       -1.56901309420859
C           28.10673413157332        7.25557623574571       -0.26412003714065
C           28.17374803349804        8.21825112052937        0.86454039822920
O           27.99724811213086        7.64176325359715        2.06439379517227
O           28.35520132706686        9.41014000726048        0.76350941945552
C           28.06386553320055        5.87231837272757       -0.05445646719110
C           29.09441894430165        2.78766045073405       -0.83007737999792
C           30.42260536590163        3.37707990563982       -0.96401974660428
C           31.31855616774360        2.39553835395569       -0.83539931354815
C           30.58401868622958        1.16398363645172       -0.61000044330504
N           29.25195385819220        1.44678561982916       -0.61583396418380
H           32.33635793793223        0.00385799810578       -0.46936987344013
H           32.25587298981244       -2.69975551454844        0.11608400056401
H           30.32947536834007       -4.55850324740374        0.51239693918658
H           28.48842523067445       -0.84396421636702       -0.24376077402937
H           27.21125406404569       -4.92737036493402        2.64295315111228
H           27.39372970817892       -9.04220235419914        4.31607160260748
H           27.51515289117206       -8.87899548683384        0.92911241269648
H           27.78545429492365       -7.87475806955802       -1.31888903880474
H           27.77216242820964       -5.40813381163152       -1.58326342685659
H           24.87321841188114       -4.43282659430359        0.67003038155287
H           23.12860779990225       -2.55546625948445        0.55731529471009
H           23.27161982930268        2.61994350918086       -1.06957617123383
H           25.19732009236221        4.43784993306288       -1.52608643716893
H           26.99785784887195        0.89102888517818       -0.13217376122246
H           27.95660984525804        4.83603217664336       -3.28685766997035
H           28.01435204785742        7.28959023605999       -3.66952508298841
H           28.11727443426565        8.83897243094707       -1.73297551341564
H           28.06612330886617        8.36275449261191        2.71483349334552
H           28.08118390583081        5.45532727820827        0.94999009885886
H           30.64790022745337        4.41255721116280       -1.13805638639720
H           32.38749098225686        2.49182126685236       -0.88399923227147
C           21.86074603795639       -0.01267885361333        0.00258649908594
C           23.04033197203976        0.01262668637713       -0.00283038731464
128
 energy: -233.640131076229 gnorm: 0.151736768459 xtb: 6.5.1 (b24c23e)
C           13.70071145761411       -0.11944648214149       -0.40595525358959
C           14.34596436906752        1.13117784422243       -0.68954237106269
C           13.72495885209348        2.36338826977754       -0.96722914074439
C           14.71824200786008        3.31791125916143       -1.17371990299521
C           15.97582719267375        2.69974525955442       -1.03152423004489
N           15.70661373904856        1.37549736181794       -0.73227284681513
C           17.28879023517913        3.32870652670991       -1.14718506216590
C           17.36737319414156        4.76913896357614       -1.57852282075858
C           17.56104404371591        5.80937907695565       -0.66319585892792
C           17.56069979166879        7.14238613626142       -1.08855230631736
C           17.74454050060228        8.22509728838803       -0.08441070693215
O           17.34058571829317        9.43087715554181       -0.52130931693949
O           18.19878122645305        8.09604144173631        1.02286034191075
C           17.38902553660370        7.44390912455229       -2.44306393804222
C           17.24202515503959        6.41552786213573       -3.36257577218654
C           17.23778715047011        5.09153154534715       -2.93514243368545
C           18.48176204100057        2.67402918081857       -0.89401076452416
C           19.79600936155380        3.30761822515988       -0.94764636004630
C           20.69707359961605        2.37649057401849       -0.59151727137039
N           18.63930123221096        1.36140599946024       -0.53339070421707
C           19.93299254027808        1.15284039306643       -0.34669051390980
C           20.51590992132159       -0.07609340226171       -0.00526197487201
C           19.92320771845943       -1.38020997652295        0.16635209401615
C           20.54976937371234       -2.63493832812244        0.20239934284576
C           19.55915209610290       -3.59996748148254        0.37281264285422
C           18.31286347670682       -2.95234407520842        0.43543518600971
N           18.58336788260555       -1.60343788824560        0.29579135724927
C           17.00318593608158       -3.56168625308803        0.59447075993321
C           16.91947976572745       -5.01265225782202        0.99600164198820
C           16.91198935144367       -6.02967509904611        0.03268488996597
C           16.86883764061402       -7.37108460768407        0.40338755049467
C           16.81240769926531       -7.72065823658446        1.74365085896186
C           16.79345997294758       -6.72293691619913        2.72203748522992
C           16.72840564104743       -7.14136063273958        4.14906036808178
O           16.90097615533504       -6.12875084654383        5.01233254335222
O           16.54732428533460       -8.26781622108182        4.53502609841951
C           16.84257075564190       -5.37514846560211        2.34574373845983
C           15.80994817279903       -2.87408330797748        0.38631686527813
C           14.48276489455385       -3.48124363038431        0.50521478321982
C           13.58225137751492       -2.52687379960713        0.21827631467859
C           14.33138925381185       -1.30966817718850       -0.08032682119347
N           15.66282471353085       -1.56476762578915        0.03086480008104
H           12.60486016938166       -0.16285051369801       -0.43235407960080
H           12.65518017688128        2.51611334490953       -1.00092445004397
H           14.56846602483141        4.36362835178931       -1.39841771903459
H           16.41661562209724        0.67111011240291       -0.56724878537718
H           17.68846228546345        5.58031872513744        0.39073620533652
H           17.50396869956702       10.02817901610906        0.22898381222169
H           17.38560955402262        8.47601954811706       -2.78088087569044
H           17.11821363367807        6.64239410157845       -4.41864969727564
H           17.12606357916339        4.28826790544448       -3.65661038043832
H           20.01479118319450        4.32806779227659       -1.20673281035884
H           21.75806839084929        2.54233655610416       -0.52581500844021
H           21.60524777934616       -2.82783388725429        0.09404307084175
H           19.70565694300959       -4.66836246452304        0.42564183470595
H           17.88758079369979       -0.87130960472247        0.24403665523310
H           16.94665305497692       -5.75804168833365       -1.01736473036238
H           16.88519990164848       -8.14539235474009       -0.35946781075174
H           16.78357531227257       -8.76617032445632        2.03895003702523
H           16.83644768958197       -6.51237125760799        5.90306678124244
H           16.82223620839527       -4.59364187782709        3.09885149169975
H           14.26409478521703       -4.50101043232577        0.77076858509640
H           12.50954384071038       -2.62809959939717        0.21106815866186
C           31.20036647547171       -0.05720301158157       -0.41927937005354
C           30.55511365992708       -1.31432733208603       -0.16605911228791
C           31.17611917499771       -2.55223633029118        0.08500703851657
C           30.18283609475342       -3.50764584542384        0.28735565838375
C           28.92525086818397       -2.88543896081266        0.16403713605701
N           29.19446428858062       -1.55472991700196       -0.10503042035293
C           27.61228794249448       -3.50663290982399        0.31598346091401
C           27.53370490582611       -4.99741643847194        0.51210097567620
C           27.34003397400877       -5.57180335127920        1.77305400418930
C           27.34037819804711       -6.96212658871912        1.93065234993419
C           27.15653747915368       -7.53890544075080        3.29002355521989
O           27.56049226149958       -8.81787513396571        3.38500889672679
O           26.70229676828811       -6.96788441477148        4.24743650050213
C           27.51205245787144       -7.79171265612655        0.81826533345089
C           27.65905286268088       -7.22985867452389       -0.44165130544165
C           27.66329089708855       -5.84690644354190       -0.59366592887865
C           26.41931593938849       -2.80568391909315        0.27897345218374
C           25.10506865166021       -3.40570893895414        0.48940482908342
C           24.20400443950252       -2.41038831994749        0.43315943289340
N           26.26177688130562       -1.46045858634065        0.07065607082449
C           24.96808562848235       -1.19374118182443        0.15561777616581
C           24.38516815214165        0.06727157665418       -0.03595048586303
C           24.97787039742090        1.32736360752407       -0.41322950710330
C           24.35130872069996        2.48689944381823       -0.89397865015757
C           25.34192594757168        3.43712580233608       -1.13354397093539
C           26.58821467854495        2.87188750527067       -0.81129655191574
N           26.31771017434571        1.58401815678515       -0.38651376792426
C           27.89789203105621        3.49293748215510       -0.91563802625821
C           27.98159824593660        4.98112983319267       -1.14326203636811
C           27.98908864309376        5.51468825267471       -2.43849561123658
C           28.03224035453864        6.89030450836912       -2.64939811306526
C           28.08867029911406        7.75789816977180       -1.56968125095281
C           28.10761801983330        7.24811886221941       -0.26859960883751
C           28.17267236271979        8.21404521266606        0.86209001267803
O           28.00010185801474        7.64355828290740        2.06423913133276
O           28.35375371471992        9.39979160204621        0.75310732788414
C           28.05850724153913        5.86439397437031       -0.06018681140641
C           29.09112985369428        2.78037713900168       -0.82407379816041
C           30.41831317375740        3.38300562944758       -0.96414280898159
C           31.31882657835934        2.39480331304109       -0.83525533300272
C           30.56968867501138        1.16202217790290       -0.60941556071231
N           29.23825326453724        1.44028570907372       -0.61239470855802
H           32.29621777583690       -0.02840855888138       -0.46113309905341
H           32.24589785725416       -2.70537189577329        0.11678430612357
H           30.33261194322657       -4.55371175498232        0.51042419169803
H           28.48446244075593       -0.84451186118189       -0.24281565457297
H           27.21261570009056       -4.93137562293749        2.64086373950678
H           27.39710929692281       -9.05569583953360        4.31406787588891
H           27.51546844349982       -8.87167071584124        0.93255732800256
H           27.78286434436857       -7.86916103800919       -1.31231371092617
H           27.77501445207835       -5.40937241426520       -1.58073853049331
H           24.88628674218623       -4.44279874953426        0.67075456373150
H           23.14300963912536       -2.53480563909349        0.56099526421235
H           23.29583023101976        2.61853529922874       -1.07180337564115
H           25.19542183064925        4.43352595125689       -1.52270423577600
H           27.01349712745139        0.89485805452059       -0.13402833845107
H           27.95442495513765        4.83700779589214       -3.28533576318730
H           28.01587809343591        7.28447856224488       -3.66237767412630
H           28.11750269919488        8.83267845027768       -1.72825065516831
H           28.06463032252254        8.35819523951452        2.71988089927826
H           28.07884178921717        5.45966198298792        0.94684638298121
H           30.63698325300191        4.42212016347526       -1.13931190647878