      -----------------------------------------------------------      
     |                   =====================                   |     
     |                           x T B                           |     
     |                   =====================                   |     
     |                         S. Grimme                         |     
     |          Mulliken Center for Theoretical Chemistry        |     
     |                    University of Bonn                     |     
      -----------------------------------------------------------      

   * xtb version 6.5.1 (b24c23e) compiled by 'conda@728c89f4b128' on 2022-07-12

   xtb is free software: you can redistribute it and/or modify it under
   the terms of the GNU Lesser General Public License as published by
   the Free Software Foundation, either version 3 of the License, or
   (at your option) any later version.
   
   xtb is distributed in the hope that it will be useful,
   but WITHOUT ANY WARRANTY; without even the implied warranty of
   MERCHANTABILITY or FITNESS FOR A PARTICULAR PURPOSE.  See the
   GNU Lesser General Public License for more details.
   
   Cite this work as:
   * C. Bannwarth, E. Caldeweyher, S. Ehlert, A. Hansen, P. Pracht,
     J. Seibert, S. Spicher, S. Grimme, WIREs Comput. Mol. Sci., 2020, 11,
     e01493. DOI: 10.1002/wcms.1493
   
   for GFN2-xTB:
   * C. Bannwarth, S. Ehlert and S. Grimme., J. Chem. Theory Comput., 2019,
     15, 1652-1671. DOI: 10.1021/acs.jctc.8b01176
   for GFN1-xTB:
   * S. Grimme, C. Bannwarth, P. Shushkov, J. Chem. Theory Comput., 2017,
     13, 1989-2009. DOI: 10.1021/acs.jctc.7b00118
   for GFN0-xTB:
   * P. Pracht, E. Caldeweyher, S. Ehlert, S. Grimme, ChemRxiv, 2019, preprint.
     DOI: 10.26434/chemrxiv.8326202.v1
   for GFN-FF:
   * S. Spicher and S. Grimme, Angew. Chem. Int. Ed., 2020, 59, 15665-15673.
     DOI: 10.1002/anie.202004239
   
   for ALPB and GBSA implicit solvation:
   * S. Ehlert, M. Stahn, S. Spicher, S. Grimme, J. Chem. Theory Comput.,
     2021, 17, 4250-4261. DOI: 10.1021/acs.jctc.1c00471
   
   for DFT-D4:
   * E. Caldeweyher, C. Bannwarth and S. Grimme, J. Chem. Phys., 2017,
     147, 034112. DOI: 10.1063/1.4993215
   * E. Caldeweyher, S. Ehlert, A. Hansen, H. Neugebauer, S. Spicher,
     C. Bannwarth and S. Grimme, J. Chem. Phys., 2019, 150, 154122.
     DOI: 10.1063/1.5090222
   * E. Caldeweyher, J.-M. Mewes, S. Ehlert and S. Grimme, Phys. Chem. Chem. Phys.
     2020, 22, 8499-8512. DOI: 10.1039/D0CP00502A
   
   for sTDA-xTB:
   * S. Grimme and C. Bannwarth, J. Chem. Phys., 2016, 145, 054103.
     DOI: 10.1063/1.4959605
   
   in the mass-spec context:
   * V. Asgeirsson, C. Bauer and S. Grimme, Chem. Sci., 2017, 8, 4879.
     DOI: 10.1039/c7sc00601b
   * J. Koopman and S. Grimme, ACS Omega 2019, 4, 12, 15120-15133.
     DOI: 10.1021/acsomega.9b02011
   
   for metadynamics refer to:
   * S. Grimme, J. Chem. Theory Comput., 2019, 155, 2847-2862
     DOI: 10.1021/acs.jctc.9b00143
   
   for SPH calculations refer to:
   * S. Spicher and S. Grimme, J. Chem. Theory Comput., 2021, 17, 1701-1714
     DOI: 10.1021/acs.jctc.0c01306
   
   with help from (in alphabetical order)
   P. Atkinson, C. Bannwarth, F. Bohle, G. Brandenburg, E. Caldeweyher
   M. Checinski, S. Dohm, S. Ehlert, S. Ehrlich, I. Gerasimov, C. Hölzer
   A. Katbashev, J. Koopman, C. Lavigne, S. Lehtola, F. März, M. Müller,
   F. Musil, H. Neugebauer, J. Pisarek, C. Plett, P. Pracht, F. Pultar,
   J. Seibert, P. Shushkov, S. Spicher, M. Stahn, M. Steiner, T. Strunk,
   J. Stückrath, T. Rose, and J. Unsleber
   
 * started run on 2022/07/27 at 13:54:17.161     

           -------------------------------------------------
          |                Calculation Setup                |
           -------------------------------------------------

          program call               : xtb m-CP_C2_3.xyz --gfn 1 --opt -T 48
          hostname                   : cx3-5-14.cx3.hpc.ic.ac.uk
          coordinate file            : m-CP_C2_3.xyz
          omp threads                :                     1

   ID    Z sym.   atoms
    1    6 C      1-5, 7-11, 14-19, 21-26, 28-34, 37-41, 64-68, 70-74, 77-82,
                  84-89, 91-97, 100-104, 127-135, 137-141, 144-149, 151-156,
                  158-164, 167-171
    2    7 N      6, 20, 27, 42, 69, 83, 90, 105, 136, 150, 157, 172
    3    8 O      12, 13, 35, 36, 75, 76, 98, 99, 142, 143, 165, 166
    4    1 H      43-63, 106-126, 173-192
########################################################################
[WARNING] Please study the warnings concerning your input carefully
-1- prog_main_parseArguments: Unknown option '-T' provided
########################################################################

           -------------------------------------------------
          |                 G F N 1 - x T B                 |
           -------------------------------------------------

        Reference                      10.1021/acs.jctc.7b00118
      * Hamiltonian:
        H0-scaling (s, p, d)           1.850000    2.250000    2.000000
        zeta-weighting                 0.000000
      * Dispersion:
        s8                             2.400000
        a1                             0.630000
        a2                             5.000000
        s9                             0.000000
      * Repulsion:
        kExp                           1.500000
        rExp                           1.000000
      * Coulomb:
        alpha                          2.000000
        third order                    atomic
        anisotropic                    false
      * Halogen bond correction:
        rad-scale                      1.300000
        damping                        0.440000


          ...................................................
          :                      SETUP                      :
          :.................................................:
          :  # basis functions                 644          :
          :  # atomic orbitals                 644          :
          :  # shells                          384          :
          :  # electrons                       618          :
          :  # halogen bonds                     0          :
          :  max. iterations                   250          :
          :  Hamiltonian                  GFN1-xTB          :
          :  restarted?                      false          :
          :  GBSA solvation                  false          :
          :  PC potential                    false          :
          :  electronic temp.          300.0000000     K    :
          :  accuracy                    1.0000000          :
          :  -> integral cutoff          0.2500000E+02      :
          :  -> integral neglect         0.1000000E-07      :
          :  -> SCF convergence          0.1000000E-05 Eh   :
          :  -> wf. convergence          0.2000000E-04 e    :
          :  Broyden damping             0.4000000          :
          ...................................................

 iter      E             dE          RMSdq      gap      omega  full diag
   1   -355.8080402 -0.355808E+03  0.102E+01    0.21       0.0  T
   2   -356.6023933 -0.794353E+00  0.606E+00    0.24       1.0  T
   3   -354.8760921  0.172630E+01  0.195E+00    0.06       1.0  T
   4   -354.0437706  0.832322E+00  0.163E+00    0.13       1.0  T
   5   -356.5509411 -0.250717E+01  0.682E-01    0.16       1.0  T
   6   -356.6598887 -0.108948E+00  0.362E-01    0.26       1.0  T
   7   -356.6466156  0.132731E-01  0.354E-01    0.30       1.0  T
   8   -356.6670519 -0.204362E-01  0.255E-01    0.30       1.0  T
   9   -356.6858484 -0.187965E-01  0.196E-01    0.28       1.0  T
  10   -356.7032657 -0.174174E-01  0.859E-02    0.26       1.0  T
  11   -356.7059649 -0.269914E-02  0.403E-02    0.25       1.0  T
  12   -356.7065664 -0.601552E-03  0.219E-02    0.25       1.0  T
  13   -356.7067897 -0.223264E-03  0.119E-02    0.25       1.0  T
  14   -356.7068363 -0.466175E-04  0.622E-03    0.25       1.2  T
  15   -356.7068551 -0.188078E-04  0.238E-03    0.25       3.0  T
  16   -356.7068569 -0.174418E-05  0.131E-03    0.25       5.5  T
  17   -356.7068576 -0.705921E-06  0.575E-04    0.25      12.5  T
  18   -356.7068577 -0.105839E-06  0.174E-04    0.25      41.5  T
  19   -356.7068577 -0.245785E-08  0.120E-04    0.25      60.1  T

   *** convergence criteria satisfied after 19 iterations ***

         #    Occupation            Energy/Eh            Energy/eV
      -------------------------------------------------------------
         1        2.0000           -0.8344586             -22.7068
       ...           ...                  ...                  ...
       303        2.0000           -0.4168704             -11.3436
       304        2.0000           -0.4144601             -11.2780
       305        2.0000           -0.4134560             -11.2507
       306        2.0000           -0.4129966             -11.2382
       307        2.0000           -0.3911895             -10.6448
       308        2.0000           -0.3875730             -10.5464
       309        1.9848           -0.3759944             -10.2313 (HOMO)
       310        0.0152           -0.3667353              -9.9794 (LUMO)
       311        0.0000           -0.3574988              -9.7280
       312                         -0.3546379              -9.6502
       313                         -0.3315465              -9.0218
       314                         -0.3240940              -8.8190
       ...                                ...                  ...
       644                          4.6804524             127.3616
      -------------------------------------------------------------
                  HL-Gap            0.0092591 Eh            0.2520 eV
             Fermi-level           -0.3713649 Eh          -10.1054 eV

 SCC (total)                   0 d,  0 h,  0 min,  2.729 sec
 SCC setup                      ...        0 min,  0.010 sec (  0.357%)
 Dispersion                     ...        0 min,  0.007 sec (  0.253%)
 classical contributions        ...        0 min,  0.002 sec (  0.090%)
 integral evaluation            ...        0 min,  0.185 sec (  6.790%)
 iterations                     ...        0 min,  2.034 sec ( 74.511%)
 molecular gradient             ...        0 min,  0.469 sec ( 17.182%)
 printout                       ...        0 min,  0.022 sec (  0.816%)

         :::::::::::::::::::::::::::::::::::::::::::::::::::::
         ::                     SUMMARY                     ::
         :::::::::::::::::::::::::::::::::::::::::::::::::::::
         :: total energy            -351.183925796552 Eh    ::
         :: gradient norm              2.276957658048 Eh/a0 ::
         :: HOMO-LUMO gap              0.251952880546 eV    ::
         ::.................................................::
         :: SCC energy              -356.706857690013 Eh    ::
         :: -> electrostatic           0.721190283194 Eh    ::
         :: repulsion energy           5.685458697561 Eh    ::
         :: dispersion energy         -0.162526804100 Eh    ::
         :: halogen bond corr.         0.000000000000 Eh    ::
         :: add. restraining           0.000000000000 Eh    ::
         :: total charge               0.000000000000 e     ::
         :::::::::::::::::::::::::::::::::::::::::::::::::::::

      ----------------------------------------------------------- 
     |                   =====================                   |
     |                        A N C O P T                        |
     |                   =====================                   |
     |               Approximate Normal Coordinate               |
     |                Rational Function Optimizer                |
      ----------------------------------------------------------- 

          ...................................................
          :                      SETUP                      :
          :.................................................:
          :   optimization level            normal          :
          :   max. optcycles                   576          :
          :   ANC micro-cycles                  20          :
          :   degrees of freedom               570          :
          :.................................................:
          :   RF solver                   davidson          :
          :   write xtbopt.log                true          :
          :   linear?                        false          :
          :   energy convergence         0.5000000E-05 Eh   :
          :   grad. convergence          0.1000000E-02 Eh/α :
          :   maximium RF displ.         1.0000000          :
          :   Hlow (freq-cutoff)         0.1000000E-01      :
          :   Hmax (freq-cutoff)         5.0000000          :
          :   S6 in model hess.         20.0000000          :
          ...................................................

generating ANC from model Hessian ...
Using Lindh-Hessian (1995)
 Shifting diagonal of input Hessian by    1.0005150252606709E-002
 Lowest  eigenvalues of input Hessian
    0.010000    0.010004    0.000000    0.000000    0.000000    0.000000
    0.000000    0.000000    0.010006    0.010013    0.010021    0.010026
    0.010054    0.010095    0.010103    0.010152    0.010169    0.010184
 Highest eigenvalues
    2.333740    2.334562    2.334568    2.604835    3.299749    4.209731


........................................................................
.............................. CYCLE    1 ..............................
........................................................................
   1   -356.7068577 -0.356707E+03  0.431E-05    0.25       0.0  T
   2   -356.7068577  0.183277E-07  0.170E-04    0.25      42.4  T
   3   -356.7068577 -0.176003E-07  0.512E-05    0.25     140.9  T
     SCC iter.                  ...        0 min,  0.318 sec
     gradient                   ...        0 min,  0.456 sec
 * total energy  :  -351.1839258 Eh     change       -0.8582902E-08 Eh
   gradient norm :     2.2769621 Eh/α   predicted     0.0000000E+00 (-100.00%)
   displ. norm   :     0.5650385 α      lambda       -0.1184197E+01
   maximum displ.:     0.3668834 α      in ANC's #570, #464, #569, ...

........................................................................
.............................. CYCLE    2 ..............................
........................................................................
   1   -356.7802947 -0.356780E+03  0.184E-01    0.45       0.0  T
   2   -356.7727988  0.749587E-02  0.188E-01    0.45       1.0  T
   3   -356.7770527 -0.425393E-02  0.147E-01    0.46       1.0  T
   4   -356.7893538 -0.123011E-01  0.359E-02    0.44       1.0  T
   5   -356.7894310 -0.772428E-04  0.273E-02    0.44       1.0  T
   6   -356.7894304  0.592559E-06  0.209E-02    0.44       1.0  T
   7   -356.7896304 -0.199972E-03  0.390E-03    0.44       1.9  T
   8   -356.7896360 -0.562506E-05  0.154E-03    0.44       4.7  T
   9   -356.7896369 -0.876568E-06  0.560E-04    0.44      12.9  T
  10   -356.7896370 -0.108771E-06  0.239E-04    0.44      30.2  T
  11   -356.7896370  0.180387E-08  0.225E-04    0.44      32.0  T
  12   -356.7896370 -0.257187E-07  0.522E-05    0.44     138.3  T
  13   -356.7896370 -0.991065E-09  0.180E-05    0.44     399.9  T
     SCC iter.                  ...        0 min,  1.333 sec
     gradient                   ...        0 min,  0.469 sec
 * total energy  :  -351.7636728 Eh     change       -0.5797470E+00 Eh
   gradient norm :     0.5171388 Eh/α   predicted    -0.7811466E+00 (  34.74%)
   displ. norm   :     0.5189827 α      lambda       -0.2155751E+00
   maximum displ.:     0.0917138 α      in ANC's #376, #349, #276, ...

........................................................................
.............................. CYCLE    3 ..............................
........................................................................
   1   -356.8032654 -0.356803E+03  0.817E-02    0.52       0.0  T
   2   -356.8044165 -0.115111E-02  0.758E-02    0.51       1.0  T
   3   -356.8053375 -0.920943E-03  0.308E-02    0.51       1.0  T
   4   -356.8046813  0.656213E-03  0.368E-02    0.51       1.0  T
   5   -356.8052753 -0.594024E-03  0.154E-02    0.51       1.0  T
   6   -356.8053741 -0.988562E-04  0.398E-03    0.51       1.8  T
   7   -356.8053823 -0.814492E-05  0.171E-03    0.51       4.2  T
   8   -356.8053839 -0.158186E-05  0.437E-04    0.51      16.5  T
   9   -356.8053839 -0.682373E-07  0.195E-04    0.51      37.1  T
  10   -356.8053840 -0.164165E-07  0.738E-05    0.51      97.8  T
     SCC iter.                  ...        0 min,  1.102 sec
     gradient                   ...        0 min,  0.457 sec
 * total energy  :  -351.9274452 Eh     change       -0.1637725E+00 Eh
   gradient norm :     0.2874309 Eh/α   predicted    -0.1368195E+00 ( -16.46%)
   displ. norm   :     0.5950584 α      lambda       -0.1250990E+00
   maximum displ.:     0.1168847 α      in ANC's #53, #276, #247, ...

........................................................................
.............................. CYCLE    4 ..............................
........................................................................
   1   -356.8603159 -0.356860E+03  0.882E-02    0.63       0.0  T
   2   -356.8616705 -0.135461E-02  0.798E-02    0.62       1.0  T
   3   -356.8628268 -0.115631E-02  0.285E-02    0.62       1.0  T
   4   -356.8626958  0.130940E-03  0.225E-02    0.62       1.0  T
   5   -356.8628184 -0.122568E-03  0.687E-03    0.62       1.1  T
   6   -356.8628410 -0.225983E-04  0.271E-03    0.62       2.7  T
   7   -356.8628455 -0.450604E-05  0.880E-04    0.62       8.2  T
   8   -356.8628460 -0.492422E-06  0.374E-04    0.62      19.3  T
   9   -356.8628461 -0.725091E-07  0.134E-04    0.62      53.9  T
  10   -356.8628461 -0.620838E-08  0.702E-05    0.62     102.9  T
     SCC iter.                  ...        0 min,  1.015 sec
     gradient                   ...        0 min,  0.449 sec
 * total energy  :  -352.0091408 Eh     change       -0.8169552E-01 Eh
   gradient norm :     0.1097798 Eh/α   predicted    -0.8469830E-01 (   3.68%)
   displ. norm   :     0.6383648 α      lambda       -0.3640660E-01
   maximum displ.:     0.2433328 α      in ANC's #53, #106, #54, ...

........................................................................
.............................. CYCLE    5 ..............................
........................................................................
   1   -356.9380066 -0.356938E+03  0.336E-02    0.69       0.0  T
   2   -356.9381971 -0.190436E-03  0.293E-02    0.69       1.0  T
   3   -356.9383915 -0.194425E-03  0.983E-03    0.69       1.0  T
   4   -356.9383754  0.160930E-04  0.748E-03    0.69       1.0  T
   5   -356.9383909 -0.155445E-04  0.273E-03    0.69       2.6  T
   6   -356.9383946 -0.365468E-05  0.963E-04    0.69       7.5  T
   7   -356.9383951 -0.517401E-06  0.369E-04    0.69      19.5  T
   8   -356.9383952 -0.685898E-07  0.205E-04    0.69      35.3  T
   9   -356.9383952 -0.248383E-07  0.653E-05    0.69     110.5  T
  10   -356.9383952 -0.215101E-08  0.254E-05    0.69     283.9  T
     SCC iter.                  ...        0 min,  0.978 sec
     gradient                   ...        0 min,  0.445 sec
 * total energy  :  -352.0373042 Eh     change       -0.2816342E-01 Eh
   gradient norm :     0.0755117 Eh/α   predicted    -0.2562136E-01 (  -9.03%)
   displ. norm   :     0.7139910 α      lambda       -0.2390055E-01
   maximum displ.:     0.3262975 α      in ANC's #53, #54, #106, ...

........................................................................
.............................. CYCLE    6 ..............................
........................................................................
   1   -357.0130884 -0.357013E+03  0.260E-02    0.75       0.0  T
   2   -357.0132121 -0.123715E-03  0.163E-02    0.75       1.0  T
   3   -357.0132632 -0.510929E-04  0.721E-03    0.75       1.0  T
   4   -357.0132612  0.201375E-05  0.537E-03    0.75       1.3  T
   5   -357.0132660 -0.482974E-05  0.276E-03    0.75       2.6  T
   6   -357.0132705 -0.448636E-05  0.866E-04    0.75       8.3  T
   7   -357.0132710 -0.484812E-06  0.325E-04    0.75      22.2  T
   8   -357.0132710 -0.673255E-07  0.122E-04    0.75      59.2  T
   9   -357.0132711 -0.539700E-08  0.466E-05    0.75     154.9  T
     SCC iter.                  ...        0 min,  0.896 sec
     gradient                   ...        0 min,  0.444 sec
 * total energy  :  -352.0563927 Eh     change       -0.1908849E-01 Eh
   gradient norm :     0.0446406 Eh/α   predicted    -0.1804235E-01 (  -5.48%)
   displ. norm   :     0.7596882 α      lambda       -0.1600811E-01
   maximum displ.:     0.3800635 α      in ANC's #53, #54, #48, ...

........................................................................
.............................. CYCLE    7 ..............................
........................................................................
   1   -357.0735643 -0.357074E+03  0.187E-02    0.78       0.0  T
   2   -357.0736143 -0.499357E-04  0.108E-02    0.78       1.0  T
   3   -357.0736271 -0.128336E-04  0.532E-03    0.78       1.4  T
   4   -357.0736239  0.319405E-05  0.428E-03    0.78       1.7  T
   5   -357.0736286 -0.472253E-05  0.192E-03    0.78       3.8  T
   6   -357.0736314 -0.275027E-05  0.491E-04    0.78      14.7  T
   7   -357.0736315 -0.158525E-06  0.177E-04    0.78      40.8  T
   8   -357.0736316 -0.167126E-07  0.662E-05    0.78     109.0  T
     SCC iter.                  ...        0 min,  0.818 sec
     gradient                   ...        0 min,  0.451 sec
 * total energy  :  -352.0697860 Eh     change       -0.1339332E-01 Eh
   gradient norm :     0.0301644 Eh/α   predicted    -0.1262341E-01 (  -5.75%)
   displ. norm   :     0.7773639 α      lambda       -0.1187470E-01
   maximum displ.:     0.4002835 α      in ANC's #53, #54, #48, ...

........................................................................
.............................. CYCLE    8 ..............................
........................................................................
   1   -357.1243463 -0.357124E+03  0.131E-02    0.81       0.0  T
   2   -357.1243637 -0.174371E-04  0.761E-03    0.81       1.0  T
   3   -357.1243651 -0.135815E-05  0.433E-03    0.81       1.7  T
   4   -357.1243603  0.480638E-05  0.377E-03    0.81       1.9  T
   5   -357.1243687 -0.843802E-05  0.111E-03    0.81       6.5  T
   6   -357.1243695 -0.855715E-06  0.252E-04    0.81      28.6  T
   7   -357.1243696 -0.335994E-07  0.924E-05    0.81      78.1  T
   8   -357.1243696 -0.275833E-08  0.456E-05    0.81     158.2  T
     SCC iter.                  ...        0 min,  0.794 sec
     gradient                   ...        0 min,  0.449 sec
 * total energy  :  -352.0798050 Eh     change       -0.1001900E-01 Eh
   gradient norm :     0.0250133 Eh/α   predicted    -0.9525291E-02 (  -4.93%)
   displ. norm   :     0.7758370 α      lambda       -0.8772849E-02
   maximum displ.:     0.3903087 α      in ANC's #53, #54, #40, ...

........................................................................
.............................. CYCLE    9 ..............................
........................................................................
   1   -357.1638121 -0.357164E+03  0.962E-03    0.82       0.0  T
   2   -357.1638163 -0.420868E-05  0.577E-03    0.82       1.3  T
   3   -357.1638127  0.367831E-05  0.360E-03    0.82       2.0  T
   4   -357.1638141 -0.142735E-05  0.268E-03    0.82       2.7  T
   5   -357.1638189 -0.481766E-05  0.611E-04    0.82      11.8  T
   6   -357.1638192 -0.250823E-06  0.198E-04    0.82      36.5  T
   7   -357.1638192 -0.201744E-07  0.708E-05    0.82     102.0  T
     SCC iter.                  ...        0 min,  0.689 sec
     gradient                   ...        0 min,  0.449 sec
 * total energy  :  -352.0871624 Eh     change       -0.7357362E-02 Eh
   gradient norm :     0.0243025 Eh/α   predicted    -0.7026731E-02 (  -4.49%)
   displ. norm   :     0.7535289 α      lambda       -0.6290019E-02
   maximum displ.:     0.3561649 α      in ANC's #53, #40, #54, ...

........................................................................
.............................. CYCLE   10 ..............................
........................................................................
   1   -357.1949719 -0.357195E+03  0.856E-03    0.83       0.0  T
   2   -357.1949748 -0.283165E-05  0.551E-03    0.83       1.3  T
   3   -357.1949753 -0.571013E-06  0.334E-03    0.83       2.2  T
   4   -357.1949764 -0.105692E-05  0.229E-03    0.83       3.1  T
   5   -357.1949794 -0.295664E-05  0.724E-04    0.83      10.0  T
   6   -357.1949797 -0.343915E-06  0.211E-04    0.83      34.2  T
   7   -357.1949797 -0.292558E-07  0.717E-05    0.83     100.7  T
   8   -357.1949797 -0.182240E-08  0.293E-05    0.83     246.5  T
     SCC iter.                  ...        0 min,  0.787 sec
     gradient                   ...        0 min,  0.450 sec
 * total energy  :  -352.0923307 Eh     change       -0.5168326E-02 Eh
   gradient norm :     0.0235033 Eh/α   predicted    -0.4930772E-02 (  -4.60%)
   displ. norm   :     0.7156803 α      lambda       -0.4290830E-02
   maximum displ.:     0.2958648 α      in ANC's #53, #40, #31, ...

........................................................................
.............................. CYCLE   11 ..............................
........................................................................
   1   -357.2176338 -0.357218E+03  0.715E-03    0.83       0.0  T
   2   -357.2176357 -0.197223E-05  0.455E-03    0.83       1.6  T
   3   -357.2176348  0.991344E-06  0.301E-03    0.83       2.4  T
   4   -357.2176371 -0.236841E-05  0.186E-03    0.83       3.9  T
   5   -357.2176390 -0.188757E-05  0.509E-04    0.83      14.2  T
   6   -357.2176392 -0.173030E-06  0.206E-04    0.83      35.0  T
   7   -357.2176392 -0.286210E-07  0.642E-05    0.83     112.4  T
   8   -357.2176392 -0.120838E-08  0.281E-05    0.83     256.6  T
     SCC iter.                  ...        0 min,  0.792 sec
     gradient                   ...        0 min,  0.450 sec
 * total energy  :  -352.0957520 Eh     change       -0.3421330E-02 Eh
   gradient norm :     0.0213117 Eh/α   predicted    -0.3244297E-02 (  -5.17%)
   displ. norm   :     0.6638558 α      lambda       -0.2841683E-02
   maximum displ.:     0.2870777 α      in ANC's #40, #53, #31, ...

........................................................................
.............................. CYCLE   12 ..............................
........................................................................
   1   -357.2349789 -0.357235E+03  0.649E-03    0.83       0.0  T
   2   -357.2349821 -0.318160E-05  0.431E-03    0.83       1.7  T
   3   -357.2349846 -0.244009E-05  0.249E-03    0.83       2.9  T
   4   -357.2349843  0.229291E-06  0.179E-03    0.83       4.0  T
   5   -357.2349861 -0.181894E-05  0.526E-04    0.83      13.7  T
   6   -357.2349863 -0.161193E-06  0.193E-04    0.83      37.3  T
   7   -357.2349863 -0.283310E-07  0.612E-05    0.83     117.9  T
     SCC iter.                  ...        0 min,  0.703 sec
     gradient                   ...        0 min,  0.477 sec
 * total energy  :  -352.0979551 Eh     change       -0.2203083E-02 Eh
   gradient norm :     0.0184120 Eh/α   predicted    -0.2047019E-02 (  -7.08%)
   displ. norm   :     0.6192028 α      lambda       -0.1983808E-02
   maximum displ.:     0.2621533 α      in ANC's #40, #31, #34, ...

........................................................................
.............................. CYCLE   13 ..............................
........................................................................
   1   -357.2471186 -0.357247E+03  0.554E-03    0.83       0.0  T
   2   -357.2471221 -0.355799E-05  0.354E-03    0.83       2.0  T
   3   -357.2471237 -0.162608E-05  0.180E-03    0.83       4.0  T
   4   -357.2471230  0.752555E-06  0.149E-03    0.83       4.8  T
   5   -357.2471242 -0.124060E-05  0.398E-04    0.83      18.1  T
   6   -357.2471243 -0.746128E-07  0.174E-04    0.83      41.6  T
   7   -357.2471243 -0.246119E-07  0.461E-05    0.83     156.6  T
     SCC iter.                  ...        0 min,  0.783 sec
     gradient                   ...        0 min,  0.481 sec
 * total energy  :  -352.0994936 Eh     change       -0.1538512E-02 Eh
   gradient norm :     0.0140419 Eh/α   predicted    -0.1372216E-02 ( -10.81%)
   displ. norm   :     0.6048679 α      lambda       -0.1572435E-02
   maximum displ.:     0.2675454 α      in ANC's #31, #40, #34, ...

........................................................................
.............................. CYCLE   14 ..............................
........................................................................
   1   -357.2544738 -0.357254E+03  0.432E-03    0.82       0.0  T
   2   -357.2544765 -0.275628E-05  0.253E-03    0.82       2.9  T
   3   -357.2544773 -0.750944E-06  0.147E-03    0.82       4.9  T
   4   -357.2544772  0.121071E-06  0.105E-03    0.82       6.9  T
   5   -357.2544777 -0.550599E-06  0.315E-04    0.82      22.9  T
   6   -357.2544778 -0.339953E-07  0.130E-04    0.82      55.6  T
   7   -357.2544778 -0.150540E-07  0.403E-05    0.82     179.1  T
     SCC iter.                  ...        0 min,  0.760 sec
     gradient                   ...        0 min,  0.485 sec
 * total energy  :  -352.1007580 Eh     change       -0.1264373E-02 Eh
   gradient norm :     0.0115610 Eh/α   predicted    -0.1073879E-02 ( -15.07%)
   displ. norm   :     0.6226527 α      lambda       -0.1403674E-02
   maximum displ.:     0.2967803 α      in ANC's #31, #40, #34, ...

........................................................................
.............................. CYCLE   15 ..............................
........................................................................
   1   -357.2575187 -0.357258E+03  0.407E-03    0.81       0.0  T
   2   -357.2575209 -0.212790E-05  0.262E-03    0.81       2.8  T
   3   -357.2575219 -0.100508E-05  0.107E-03    0.81       6.7  T
   4   -357.2575217  0.159098E-06  0.914E-04    0.81       7.9  T
   5   -357.2575219 -0.224873E-06  0.270E-04    0.81      26.7  T
   6   -357.2575220 -0.483172E-07  0.107E-04    0.81      67.3  T
   7   -357.2575220 -0.708923E-08  0.362E-05    0.81     199.6  T
     SCC iter.                  ...        0 min,  0.903 sec
     gradient                   ...        0 min,  0.510 sec
 * total energy  :  -352.1019058 Eh     change       -0.1147800E-02 Eh
   gradient norm :     0.0132759 Eh/α   predicted    -0.9739377E-03 ( -15.15%)
   displ. norm   :     0.6379157 α      lambda       -0.1230653E-02
   maximum displ.:     0.3171934 α      in ANC's #31, #18, #11, ...

........................................................................
.............................. CYCLE   16 ..............................
........................................................................
   1   -357.2546213 -0.357255E+03  0.322E-03    0.81       0.0  T
   2   -357.2546223 -0.988938E-06  0.217E-03    0.81       3.3  T
   3   -357.2546228 -0.566465E-06  0.103E-03    0.81       7.0  T
   4   -357.2546226  0.207778E-06  0.937E-04    0.81       7.7  T
   5   -357.2546230 -0.367454E-06  0.297E-04    0.81      24.3  T
   6   -357.2546231 -0.746975E-07  0.103E-04    0.81      70.3  T
   7   -357.2546231 -0.588051E-08  0.330E-05    0.81     218.4  T
     SCC iter.                  ...        0 min,  0.893 sec
     gradient                   ...        0 min,  0.464 sec
 * total energy  :  -352.1029127 Eh     change       -0.1006947E-02 Eh
   gradient norm :     0.0165036 Eh/α   predicted    -0.8657262E-03 ( -14.02%)
   displ. norm   :     0.6426565 α      lambda       -0.1077349E-02
   maximum displ.:     0.3252991 α      in ANC's #31, #18, #11, ...

........................................................................
.............................. CYCLE   17 ..............................
........................................................................
   1   -357.2521422 -0.357252E+03  0.402E-03    0.82       0.0  T
   2   -357.2521446 -0.231397E-05  0.235E-03    0.82       3.1  T
   3   -357.2521454 -0.875432E-06  0.136E-03    0.82       5.3  T
   4   -357.2521458 -0.347428E-06  0.893E-04    0.82       8.1  T
   5   -357.2521460 -0.194838E-06  0.365E-04    0.82      19.8  T
   6   -357.2521461 -0.854288E-07  0.124E-04    0.82      58.4  T
   7   -357.2521461 -0.802146E-08  0.553E-05    0.82     130.4  T
     SCC iter.                  ...        0 min,  0.988 sec
     gradient                   ...        0 min,  0.479 sec
 * total energy  :  -352.1037837 Eh     change       -0.8709444E-03 Eh
   gradient norm :     0.0171499 Eh/α   predicted    -0.7611564E-03 ( -12.61%)
   displ. norm   :     0.6554474 α      lambda       -0.9835617E-03
   maximum displ.:     0.3423252 α      in ANC's #31, #18, #11, ...

........................................................................
.............................. CYCLE   18 ..............................
........................................................................
   1   -357.2457376 -0.357246E+03  0.497E-03    0.82       0.0  T
   2   -357.2457430 -0.539399E-05  0.250E-03    0.82       2.9  T
   3   -357.2457435 -0.569969E-06  0.161E-03    0.82       4.5  T
   4   -357.2457438 -0.264196E-06  0.112E-03    0.82       6.5  T
   5   -357.2457442 -0.401341E-06  0.366E-04    0.82      19.7  T
   6   -357.2457443 -0.690275E-07  0.146E-04    0.82      49.5  T
   7   -357.2457443 -0.149747E-07  0.520E-05    0.82     138.8  T
     SCC iter.                  ...        0 min,  0.816 sec
     gradient                   ...        0 min,  0.456 sec
 * total energy  :  -352.1045348 Eh     change       -0.7511347E-03 Eh
   gradient norm :     0.0164092 Eh/α   predicted    -0.7030562E-03 (  -6.40%)
   displ. norm   :     0.6306368 α      lambda       -0.9437655E-03
   maximum displ.:     0.3256120 α      in ANC's #31, #11, #18, ...

........................................................................
.............................. CYCLE   19 ..............................
........................................................................
   1   -357.2478637 -0.357248E+03  0.680E-03    0.83       0.0  T
   2   -357.2478735 -0.975542E-05  0.354E-03    0.83       2.0  T
   3   -357.2478748 -0.136843E-05  0.215E-03    0.83       3.4  T
   4   -357.2478749 -0.906957E-07  0.147E-03    0.83       4.9  T
   5   -357.2478757 -0.723536E-06  0.487E-04    0.83      14.8  T
   6   -357.2478758 -0.116749E-06  0.184E-04    0.83      39.1  T
   7   -357.2478758 -0.212376E-07  0.767E-05    0.83      94.1  T
     SCC iter.                  ...        0 min,  0.705 sec
     gradient                   ...        0 min,  0.458 sec
 * total energy  :  -352.1051882 Eh     change       -0.6534066E-03 Eh
   gradient norm :     0.0131259 Eh/α   predicted    -0.6595613E-03 (   0.94%)
   displ. norm   :     0.5931690 α      lambda       -0.7365898E-03
   maximum displ.:     0.3075132 α      in ANC's #31, #11, #18, ...

........................................................................
.............................. CYCLE   20 ..............................
........................................................................
   1   -357.2460169 -0.357246E+03  0.461E-03    0.84       0.0  T
   2   -357.2460196 -0.276827E-05  0.292E-03    0.84       2.5  T
   3   -357.2460209 -0.126592E-05  0.158E-03    0.84       4.6  T
   4   -357.2460209  0.297117E-07  0.124E-03    0.84       5.8  T
   5   -357.2460215 -0.609450E-06  0.211E-04    0.84      34.2  T
   6   -357.2460215 -0.155430E-07  0.120E-04    0.84      60.3  T
   7   -357.2460215 -0.878867E-08  0.335E-05    0.84     215.3  T
     SCC iter.                  ...        0 min,  0.690 sec
     gradient                   ...        0 min,  0.446 sec
 * total energy  :  -352.1057261 Eh     change       -0.5379302E-03 Eh
   gradient norm :     0.0102206 Eh/α   predicted    -0.4978820E-03 (  -7.44%)
   displ. norm   :     0.5521476 α      lambda       -0.6300489E-03
   maximum displ.:     0.2687812 α      in ANC's #31, #11, #18, ...
 * RMSD in coord.:     0.6636866 α      energy gain  -0.9218003E+00 Eh

generating ANC from model Hessian ...
Using Lindh-Hessian (1995)
 Shifting diagonal of input Hessian by    1.0000353876837398E-002
 Lowest  eigenvalues of input Hessian
    0.010000    0.010000    0.000000    0.000000    0.000000    0.000000
    0.000000    0.000000    0.010006    0.010010    0.010021    0.010044
    0.010071    0.010105    0.010109    0.010177    0.010187    0.010211
 Highest eigenvalues
    2.398072    2.399426    2.400308    2.401285    2.615782    2.621763


........................................................................
.............................. CYCLE   21 ..............................
........................................................................
   1   -357.2523635 -0.357252E+03  0.495E-03    0.84       0.0  T
   2   -357.2523674 -0.386397E-05  0.253E-03    0.84       2.9  T
   3   -357.2523680 -0.687342E-06  0.148E-03    0.84       4.9  T
   4   -357.2523684 -0.319517E-06  0.988E-04    0.84       7.3  T
   5   -357.2523687 -0.321711E-06  0.322E-04    0.84      22.4  T
   6   -357.2523687 -0.470628E-07  0.124E-04    0.84      58.3  T
   7   -357.2523687 -0.933045E-08  0.371E-05    0.84     194.8  T
     SCC iter.                  ...        0 min,  0.678 sec
     gradient                   ...        0 min,  0.445 sec
 * total energy  :  -352.1061589 Eh     change       -0.4327331E-03 Eh
   gradient norm :     0.0114759 Eh/α   predicted     0.0000000E+00 (-100.00%)
   displ. norm   :     0.0964655 α      lambda       -0.2756384E-03
   maximum displ.:     0.0350499 α      in ANC's #11, #29, #53, ...

........................................................................
.............................. CYCLE   22 ..............................
........................................................................
   1   -357.2533124 -0.357253E+03  0.249E-03    0.84       0.0  T
   2   -357.2533133 -0.809998E-06  0.139E-03    0.84       5.2  T
   3   -357.2533134 -0.166816E-06  0.812E-04    0.84       8.9  T
   4   -357.2533135 -0.335803E-07  0.622E-04    0.84      11.6  T
   5   -357.2533136 -0.161035E-06  0.127E-04    0.84      56.8  T
   6   -357.2533136 -0.576915E-08  0.483E-05    0.84     149.5  T
     SCC iter.                  ...        0 min,  0.583 sec
     gradient                   ...        0 min,  0.447 sec
 * total energy  :  -352.1063730 Eh     change       -0.2140774E-03 Eh
   gradient norm :     0.0057556 Eh/α   predicted    -0.1391038E-03 ( -35.02%)
   displ. norm   :     0.2373442 α      lambda       -0.3594040E-03
   maximum displ.:     0.0921315 α      in ANC's #11, #29, #40, ...

........................................................................
.............................. CYCLE   23 ..............................
........................................................................
   1   -357.2549651 -0.357255E+03  0.368E-03    0.83       0.0  T
   2   -357.2549671 -0.196361E-05  0.206E-03    0.83       3.5  T
   3   -357.2549678 -0.688418E-06  0.116E-03    0.83       6.2  T
   4   -357.2549680 -0.239202E-06  0.851E-04    0.83       8.5  T
   5   -357.2549683 -0.259345E-06  0.221E-04    0.83      32.7  T
   6   -357.2549683 -0.132976E-07  0.987E-05    0.83      73.1  T
   7   -357.2549683 -0.808836E-08  0.319E-05    0.83     226.1  T
     SCC iter.                  ...        0 min,  0.687 sec
     gradient                   ...        0 min,  0.446 sec
 * total energy  :  -352.1066025 Eh     change       -0.2295715E-03 Eh
   gradient norm :     0.0053522 Eh/α   predicted    -0.1898296E-03 ( -17.31%)
   displ. norm   :     0.2109930 α      lambda       -0.1694341E-03
   maximum displ.:     0.0888878 α      in ANC's #11, #29, #22, ...

........................................................................
.............................. CYCLE   24 ..............................
........................................................................
   1   -357.2559154 -0.357256E+03  0.150E-03    0.83       0.0  T
   2   -357.2559156 -0.195191E-06  0.107E-03    0.83       6.8  T
   3   -357.2559161 -0.488328E-06  0.430E-04    0.83      16.8  T
   4   -357.2559161 -0.662665E-07  0.290E-04    0.83      24.9  T
   5   -357.2559162 -0.205518E-07  0.109E-04    0.83      66.3  T
   6   -357.2559162 -0.346159E-08  0.388E-05    0.83     186.1  T
     SCC iter.                  ...        0 min,  0.583 sec
     gradient                   ...        0 min,  0.446 sec
 * total energy  :  -352.1067325 Eh     change       -0.1299697E-03 Eh
   gradient norm :     0.0068611 Eh/α   predicted    -0.8849520E-04 ( -31.91%)
   displ. norm   :     0.3377383 α      lambda       -0.2322271E-03
   maximum displ.:     0.1456354 α      in ANC's #11, #29, #22, ...

........................................................................
.............................. CYCLE   25 ..............................
........................................................................
   1   -357.2567193 -0.357257E+03  0.169E-03    0.83       0.0  T
   2   -357.2567195 -0.199376E-06  0.119E-03    0.83       6.1  T
   3   -357.2567201 -0.544578E-06  0.539E-04    0.83      13.4  T
   4   -357.2567202 -0.807278E-07  0.331E-04    0.83      21.8  T
   5   -357.2567202 -0.238987E-07  0.136E-04    0.83      52.9  T
   6   -357.2567202 -0.883216E-08  0.315E-05    0.83     228.9  T
     SCC iter.                  ...        0 min,  0.580 sec
     gradient                   ...        0 min,  0.445 sec
 * total energy  :  -352.1069125 Eh     change       -0.1800450E-03 Eh
   gradient norm :     0.0065764 Eh/α   predicted    -0.1293621E-03 ( -28.15%)
   displ. norm   :     0.3794120 α      lambda       -0.2295608E-03
   maximum displ.:     0.1714284 α      in ANC's #11, #29, #12, ...

........................................................................
.............................. CYCLE   26 ..............................
........................................................................
   1   -357.2569138 -0.357257E+03  0.199E-03    0.83       0.0  T
   2   -357.2569144 -0.574119E-06  0.101E-03    0.83       7.1  T
   3   -357.2569146 -0.177204E-06  0.655E-04    0.83      11.0  T
   4   -357.2569147 -0.986519E-07  0.364E-04    0.83      19.8  T
   5   -357.2569147 -0.352404E-07  0.145E-04    0.83      49.7  T
   6   -357.2569147 -0.976092E-08  0.462E-05    0.83     156.1  T
     SCC iter.                  ...        0 min,  0.584 sec
     gradient                   ...        0 min,  0.447 sec
 * total energy  :  -352.1070907 Eh     change       -0.1781892E-03 Eh
   gradient norm :     0.0048589 Eh/α   predicted    -0.1313044E-03 ( -26.31%)
   displ. norm   :     0.3924206 α      lambda       -0.2080775E-03
   maximum displ.:     0.1836175 α      in ANC's #11, #29, #12, ...

........................................................................
.............................. CYCLE   27 ..............................
........................................................................
   1   -357.2567057 -0.357257E+03  0.186E-03    0.83       0.0  T
   2   -357.2567063 -0.631666E-06  0.821E-04    0.83       8.8  T
   3   -357.2567064 -0.117334E-06  0.506E-04    0.83      14.3  T
   4   -357.2567065 -0.390218E-07  0.316E-04    0.83      22.8  T
   5   -357.2567065 -0.371903E-07  0.146E-04    0.83      49.5  T
   6   -357.2567065 -0.983215E-08  0.582E-05    0.83     124.1  T
     SCC iter.                  ...        0 min,  0.587 sec
     gradient                   ...        0 min,  0.445 sec
 * total energy  :  -352.1072565 Eh     change       -0.1657705E-03 Eh
   gradient norm :     0.0045883 Eh/α   predicted    -0.1200602E-03 ( -27.57%)
   displ. norm   :     0.4188332 α      lambda       -0.2095889E-03
   maximum displ.:     0.2002253 α      in ANC's #11, #29, #12, ...

........................................................................
.............................. CYCLE   28 ..............................
........................................................................
   1   -357.2562053 -0.357256E+03  0.188E-03    0.84       0.0  T
   2   -357.2562058 -0.571044E-06  0.985E-04    0.84       7.3  T
   3   -357.2562061 -0.257546E-06  0.496E-04    0.84      14.6  T
   4   -357.2562062 -0.721346E-07  0.316E-04    0.84      22.9  T
   5   -357.2562062 -0.300785E-07  0.134E-04    0.84      54.0  T
   6   -357.2562062 -0.503599E-08  0.663E-05    0.84     108.9  T
     SCC iter.                  ...        0 min,  0.612 sec
     gradient                   ...        0 min,  0.450 sec
 * total energy  :  -352.1074255 Eh     change       -0.1689620E-03 Eh
   gradient norm :     0.0054751 Eh/α   predicted    -0.1231810E-03 ( -27.10%)
   displ. norm   :     0.4486710 α      lambda       -0.2098349E-03
   maximum displ.:     0.2170664 α      in ANC's #11, #29, #16, ...

........................................................................
.............................. CYCLE   29 ..............................
........................................................................
   1   -357.2553876 -0.357255E+03  0.180E-03    0.84       0.0  T
   2   -357.2553880 -0.340945E-06  0.112E-03    0.84       6.4  T
   3   -357.2553884 -0.425854E-06  0.529E-04    0.84      13.7  T
   4   -357.2553885 -0.768806E-07  0.317E-04    0.84      22.8  T
   5   -357.2553885 -0.248937E-07  0.127E-04    0.84      57.0  T
   6   -357.2553885 -0.635117E-08  0.409E-05    0.84     176.3  T
     SCC iter.                  ...        0 min,  0.588 sec
     gradient                   ...        0 min,  0.448 sec
 * total energy  :  -352.1075938 Eh     change       -0.1683546E-03 Eh
   gradient norm :     0.0056423 Eh/α   predicted    -0.1260467E-03 ( -25.13%)
   displ. norm   :     0.4583103 α      lambda       -0.1928434E-03
   maximum displ.:     0.2238686 α      in ANC's #11, #29, #16, ...

........................................................................
.............................. CYCLE   30 ..............................
........................................................................
   1   -357.2546171 -0.357255E+03  0.162E-03    0.84       0.0  T
   2   -357.2546174 -0.267228E-06  0.107E-03    0.84       6.7  T
   3   -357.2546178 -0.425589E-06  0.509E-04    0.84      14.2  T
   4   -357.2546178 -0.619011E-07  0.291E-04    0.84      24.8  T
   5   -357.2546179 -0.182985E-07  0.125E-04    0.84      57.7  T
   6   -357.2546179 -0.626221E-08  0.359E-05    0.84     201.2  T
     SCC iter.                  ...        0 min,  0.604 sec
     gradient                   ...        0 min,  0.453 sec
 * total energy  :  -352.1077482 Eh     change       -0.1543932E-03 Eh
   gradient norm :     0.0047964 Eh/α   predicted    -0.1166763E-03 ( -24.43%)
   displ. norm   :     0.4558583 α      lambda       -0.1754113E-03
   maximum displ.:     0.2244676 α      in ANC's #11, #16, #15, ...

........................................................................
.............................. CYCLE   31 ..............................
........................................................................
   1   -357.2544600 -0.357254E+03  0.149E-03    0.84       0.0  T
   2   -357.2544603 -0.325793E-06  0.953E-04    0.84       7.6  T
   3   -357.2544607 -0.345124E-06  0.452E-04    0.84      16.0  T
   4   -357.2544607 -0.554397E-07  0.273E-04    0.84      26.5  T
   5   -357.2544608 -0.147106E-07  0.145E-04    0.84      49.7  T
   6   -357.2544608 -0.811849E-08  0.557E-05    0.84     129.5  T
     SCC iter.                  ...        0 min,  0.584 sec
     gradient                   ...        0 min,  0.448 sec
 * total energy  :  -352.1078906 Eh     change       -0.1423554E-03 Eh
   gradient norm :     0.0039300 Eh/α   predicted    -0.1059331E-03 ( -25.59%)
   displ. norm   :     0.4650607 α      lambda       -0.1749256E-03
   maximum displ.:     0.2293103 α      in ANC's #11, #16, #15, ...

........................................................................
.............................. CYCLE   32 ..............................
........................................................................
   1   -357.2552394 -0.357255E+03  0.153E-03    0.84       0.0  T
   2   -357.2552398 -0.356227E-06  0.963E-04    0.84       7.5  T
   3   -357.2552401 -0.338291E-06  0.440E-04    0.84      16.4  T
   4   -357.2552402 -0.644328E-07  0.291E-04    0.84      24.8  T
   5   -357.2552402 -0.238713E-07  0.143E-04    0.84      50.6  T
   6   -357.2552402 -0.595884E-08  0.607E-05    0.84     118.9  T
     SCC iter.                  ...        0 min,  0.584 sec
     gradient                   ...        0 min,  0.450 sec
 * total energy  :  -352.1080341 Eh     change       -0.1435580E-03 Eh
   gradient norm :     0.0040285 Eh/α   predicted    -0.1063886E-03 ( -25.89%)
   displ. norm   :     0.4888572 α      lambda       -0.1826400E-03
   maximum displ.:     0.2388013 α      in ANC's #11, #15, #16, ...

........................................................................
.............................. CYCLE   33 ..............................
........................................................................
   1   -357.2566444 -0.357257E+03  0.166E-03    0.84       0.0  T
   2   -357.2566447 -0.275026E-06  0.111E-03    0.84       6.5  T
   3   -357.2566451 -0.455413E-06  0.515E-04    0.84      14.0  T
   4   -357.2566452 -0.935943E-07  0.337E-04    0.84      21.4  T
   5   -357.2566452 -0.281650E-07  0.147E-04    0.84      49.1  T
   6   -357.2566453 -0.977440E-08  0.592E-05    0.84     122.0  T
     SCC iter.                  ...        0 min,  0.588 sec
     gradient                   ...        0 min,  0.456 sec
 * total energy  :  -352.1081833 Eh     change       -0.1492131E-03 Eh
   gradient norm :     0.0045591 Eh/α   predicted    -0.1131437E-03 ( -24.17%)
   displ. norm   :     0.5019447 α      lambda       -0.1808181E-03
   maximum displ.:     0.2404145 α      in ANC's #11, #15, #16, ...

........................................................................
.............................. CYCLE   34 ..............................
........................................................................
   1   -357.2583333 -0.357258E+03  0.164E-03    0.84       0.0  T
   2   -357.2583334 -0.148483E-06  0.118E-03    0.84       6.1  T
   3   -357.2583340 -0.556345E-06  0.547E-04    0.84      13.2  T
   4   -357.2583341 -0.962681E-07  0.330E-04    0.84      21.9  T
   5   -357.2583341 -0.218656E-07  0.135E-04    0.84      53.6  T
   6   -357.2583341 -0.100234E-07  0.496E-05    0.84     145.5  T
     SCC iter.                  ...        0 min,  0.587 sec
     gradient                   ...        0 min,  0.456 sec
 * total energy  :  -352.1083297 Eh     change       -0.1463889E-03 Eh
   gradient norm :     0.0045233 Eh/α   predicted    -0.1131887E-03 ( -22.68%)
   displ. norm   :     0.5024651 α      lambda       -0.1723252E-03
   maximum displ.:     0.2343969 α      in ANC's #11, #15, #16, ...

........................................................................
.............................. CYCLE   35 ..............................
........................................................................
   1   -357.2595637 -0.357260E+03  0.166E-03    0.84       0.0  T
   2   -357.2595640 -0.308517E-06  0.110E-03    0.84       6.5  T
   3   -357.2595644 -0.465060E-06  0.549E-04    0.84      13.1  T
   4   -357.2595646 -0.117966E-06  0.306E-04    0.84      23.6  T
   5   -357.2595646 -0.200465E-07  0.121E-04    0.84      59.9  T
   6   -357.2595646 -0.508925E-08  0.500E-05    0.84     144.3  T
     SCC iter.                  ...        0 min,  0.590 sec
     gradient                   ...        0 min,  0.451 sec
 * total energy  :  -352.1084694 Eh     change       -0.1396796E-03 Eh
   gradient norm :     0.0040239 Eh/α   predicted    -0.1079169E-03 ( -22.74%)
   displ. norm   :     0.5045429 α      lambda       -0.1740184E-03
   maximum displ.:     0.2257464 α      in ANC's #11, #15, #16, ...

........................................................................
.............................. CYCLE   36 ..............................
........................................................................
   1   -357.2608924 -0.357261E+03  0.152E-03    0.84       0.0  T
   2   -357.2608927 -0.330227E-06  0.919E-04    0.84       7.8  T
   3   -357.2608930 -0.291087E-06  0.494E-04    0.84      14.6  T
   4   -357.2608931 -0.883017E-07  0.267E-04    0.84      27.0  T
   5   -357.2608931 -0.181682E-07  0.107E-04    0.84      67.7  T
   6   -357.2608931 -0.256989E-08  0.335E-05    0.84     215.2  T
     SCC iter.                  ...        0 min,  0.587 sec
     gradient                   ...        0 min,  0.451 sec
 * total energy  :  -352.1086101 Eh     change       -0.1407082E-03 Eh
   gradient norm :     0.0039026 Eh/α   predicted    -0.1091584E-03 ( -22.42%)
   displ. norm   :     0.5199001 α      lambda       -0.1837350E-03
   maximum displ.:     0.2215778 α      in ANC's #11, #15, #16, ...

........................................................................
.............................. CYCLE   37 ..............................
........................................................................
   1   -357.2607866 -0.357261E+03  0.177E-03    0.85       0.0  T
   2   -357.2607873 -0.676815E-06  0.782E-04    0.85       9.2  T
   3   -357.2607874 -0.115087E-06  0.455E-04    0.85      15.9  T
   4   -357.2607875 -0.565520E-07  0.272E-04    0.85      26.6  T
   5   -357.2607875 -0.226177E-07  0.130E-04    0.85      55.5  T
   6   -357.2607875 -0.443731E-08  0.404E-05    0.85     178.6  T
     SCC iter.                  ...        0 min,  0.587 sec
     gradient                   ...        0 min,  0.457 sec
 * total energy  :  -352.1087576 Eh     change       -0.1474517E-03 Eh
   gradient norm :     0.0049293 Eh/α   predicted    -0.1167011E-03 ( -20.85%)
   displ. norm   :     0.5106063 α      lambda       -0.1939488E-03
   maximum displ.:     0.2081936 α      in ANC's #15, #16, #11, ...

........................................................................
.............................. CYCLE   38 ..............................
........................................................................
   1   -357.2618602 -0.357262E+03  0.187E-03    0.85       0.0  T
   2   -357.2618608 -0.643215E-06  0.839E-04    0.85       8.6  T
   3   -357.2618609 -0.720460E-07  0.510E-04    0.85      14.2  T
   4   -357.2618609 -0.354669E-08  0.342E-04    0.85      21.1  T
   5   -357.2618609 -0.409546E-07  0.143E-04    0.85      50.3  T
   6   -357.2618609 -0.124410E-07  0.512E-05    0.85     141.1  T
     SCC iter.                  ...        0 min,  0.611 sec
     gradient                   ...        0 min,  0.454 sec
 * total energy  :  -352.1089076 Eh     change       -0.1500431E-03 Eh
   gradient norm :     0.0055263 Eh/α   predicted    -0.1222573E-03 ( -18.52%)
   displ. norm   :     0.5226689 α      lambda       -0.1825385E-03
   maximum displ.:     0.2221864 α      in ANC's #16, #15, #11, ...

........................................................................
.............................. CYCLE   39 ..............................
........................................................................
   1   -357.2593540 -0.357259E+03  0.212E-03    0.85       0.0  T
   2   -357.2593548 -0.789796E-06  0.102E-03    0.85       7.1  T
   3   -357.2593549 -0.112441E-06  0.650E-04    0.85      11.1  T
   4   -357.2593550 -0.778436E-07  0.398E-04    0.85      18.1  T
   5   -357.2593550 -0.453531E-07  0.122E-04    0.85      59.0  T
   6   -357.2593550 -0.721764E-08  0.393E-05    0.85     183.5  T
     SCC iter.                  ...        0 min,  0.586 sec
     gradient                   ...        0 min,  0.448 sec
 * total energy  :  -352.1090453 Eh     change       -0.1376542E-03 Eh
   gradient norm :     0.0058388 Eh/α   predicted    -0.1162073E-03 ( -15.58%)
   displ. norm   :     0.4305536 α      lambda       -0.1710242E-03
   maximum displ.:     0.1823687 α      in ANC's #16, #15, #11, ...

........................................................................
.............................. CYCLE   40 ..............................
........................................................................
   1   -357.2618533 -0.357262E+03  0.265E-03    0.85       0.0  T
   2   -357.2618547 -0.138866E-05  0.133E-03    0.85       5.4  T
   3   -357.2618550 -0.286751E-06  0.854E-04    0.85       8.5  T
   4   -357.2618552 -0.205555E-06  0.492E-04    0.85      14.7  T
   5   -357.2618552 -0.532116E-07  0.217E-04    0.85      33.3  T
   6   -357.2618553 -0.221192E-07  0.836E-05    0.85      86.4  T
   7   -357.2618553 -0.561130E-08  0.250E-05    0.85     289.0  T
     SCC iter.                  ...        0 min,  0.679 sec
     gradient                   ...        0 min,  0.449 sec
 * total energy  :  -352.1091603 Eh     change       -0.1150576E-03 Eh
   gradient norm :     0.0045969 Eh/α   predicted    -0.1013641E-03 ( -11.90%)
   displ. norm   :     0.4647323 α      lambda       -0.1369365E-03
   maximum displ.:     0.2143350 α      in ANC's #16, #15, #11, ...

........................................................................
.............................. CYCLE   41 ..............................
........................................................................
   1   -357.2579861 -0.357258E+03  0.224E-03    0.85       0.0  T
   2   -357.2579867 -0.623660E-06  0.132E-03    0.85       5.5  T
   3   -357.2579871 -0.330375E-06  0.789E-04    0.85       9.1  T
   4   -357.2579872 -0.130827E-06  0.492E-04    0.85      14.7  T
   5   -357.2579873 -0.749552E-07  0.194E-04    0.85      37.3  T
   6   -357.2579873 -0.208465E-07  0.811E-05    0.85      89.0  T
     SCC iter.                  ...        0 min,  0.586 sec
     gradient                   ...        0 min,  0.475 sec
 * total energy  :  -352.1092557 Eh     change       -0.9535062E-04 Eh
   gradient norm :     0.0044543 Eh/α   predicted    -0.8325948E-04 ( -12.68%)
   displ. norm   :     0.3145011 α      lambda       -0.1223170E-03
   maximum displ.:     0.1489231 α      in ANC's #16, #15, #10, ...

........................................................................
.............................. CYCLE   42 ..............................
........................................................................
   1   -357.2611576 -0.357261E+03  0.199E-03    0.84       0.0  T
   2   -357.2611580 -0.393391E-06  0.112E-03    0.84       6.5  T
   3   -357.2611583 -0.266771E-06  0.682E-04    0.84      10.6  T
   4   -357.2611585 -0.183812E-06  0.403E-04    0.84      17.9  T
   5   -357.2611585 -0.477957E-07  0.176E-04    0.84      41.1  T
   6   -357.2611585 -0.155637E-07  0.661E-05    0.84     109.2  T
     SCC iter.                  ...        0 min,  0.622 sec
     gradient                   ...        0 min,  0.453 sec
 * total energy  :  -352.1093417 Eh     change       -0.8608051E-04 Eh
   gradient norm :     0.0048432 Eh/α   predicted    -0.6721370E-04 ( -21.92%)
   displ. norm   :     0.4379491 α      lambda       -0.1379864E-03
   maximum displ.:     0.2152126 α      in ANC's #16, #15, #10, ...
 * RMSD in coord.:     0.5716323 α      energy gain  -0.3615607E-02 Eh

generating ANC from model Hessian ...
Using Lindh-Hessian (1995)
 Shifting diagonal of input Hessian by    1.0004954876779795E-002
 Lowest  eigenvalues of input Hessian
    0.010000    0.000000    0.000000    0.000000    0.000000    0.000000
    0.000000    0.010006    0.010007    0.010010    0.010012    0.010014
    0.010067    0.010103    0.010109    0.010177    0.010206    0.010215
 Highest eigenvalues
    2.397555    2.399194    2.399686    2.400328    2.630684    2.634935


........................................................................
.............................. CYCLE   43 ..............................
........................................................................
   1   -357.2580713 -0.357258E+03  0.247E-03    0.84       0.0  T
   2   -357.2580722 -0.839411E-06  0.136E-03    0.84       5.3  T
   3   -357.2580724 -0.242877E-06  0.909E-04    0.84       7.9  T
   4   -357.2580728 -0.380034E-06  0.520E-04    0.84      13.9  T
   5   -357.2580729 -0.760407E-07  0.205E-04    0.84      35.2  T
   6   -357.2580729 -0.245033E-07  0.750E-05    0.84      96.2  T
   7   -357.2580729 -0.398842E-08  0.188E-05    0.84     382.9  T
     SCC iter.                  ...        0 min,  0.690 sec
     gradient                   ...        0 min,  0.448 sec
 * total energy  :  -352.1094337 Eh     change       -0.9195298E-04 Eh
   gradient norm :     0.0054748 Eh/α   predicted     0.0000000E+00 (-100.00%)
   displ. norm   :     0.0523395 α      lambda       -0.4802237E-04
   maximum displ.:     0.0202406 α      in ANC's #16, #10, #13, ...

........................................................................
.............................. CYCLE   44 ..............................
........................................................................
   1   -357.2603081 -0.357260E+03  0.138E-03    0.84       0.0  T
   2   -357.2603083 -0.245562E-06  0.755E-04    0.84       9.6  T
   3   -357.2603083 -0.429320E-07  0.470E-04    0.84      15.4  T
   4   -357.2603084 -0.421267E-08  0.337E-04    0.84      21.4  T
   5   -357.2603084 -0.557114E-07  0.987E-05    0.84      73.1  T
   6   -357.2603084 -0.551665E-08  0.431E-05    0.84     167.3  T
     SCC iter.                  ...        0 min,  0.589 sec
     gradient                   ...        0 min,  0.452 sec
 * total energy  :  -352.1094891 Eh     change       -0.5536211E-04 Eh
   gradient norm :     0.0027736 Eh/α   predicted    -0.3733518E-04 ( -32.56%)
   displ. norm   :     0.1328455 α      lambda       -0.1033286E-03
   maximum displ.:     0.0572037 α      in ANC's #10, #16, #13, ...

........................................................................
.............................. CYCLE   45 ..............................
........................................................................
   1   -357.2632484 -0.357263E+03  0.224E-03    0.85       0.0  T
   2   -357.2632490 -0.692190E-06  0.117E-03    0.85       6.2  T
   3   -357.2632492 -0.206540E-06  0.698E-04    0.85      10.3  T
   4   -357.2632493 -0.820672E-07  0.464E-04    0.85      15.6  T
   5   -357.2632494 -0.748041E-07  0.177E-04    0.85      40.8  T
   6   -357.2632494 -0.154118E-07  0.739E-05    0.85      97.7  T
     SCC iter.                  ...        0 min,  0.583 sec
     gradient                   ...        0 min,  0.452 sec
 * total energy  :  -352.1095512 Eh     change       -0.6216141E-04 Eh
   gradient norm :     0.0031417 Eh/α   predicted    -0.5257809E-04 ( -15.42%)
   displ. norm   :     0.1170395 α      lambda       -0.5196795E-04
   maximum displ.:     0.0522909 α      in ANC's #16, #10, #13, ...

........................................................................
.............................. CYCLE   46 ..............................
........................................................................
   1   -357.2630825 -0.357263E+03  0.892E-04    0.85       0.0  T
   2   -357.2630826 -0.107440E-06  0.477E-04    0.85      15.1  T
   3   -357.2630827 -0.731919E-07  0.264E-04    0.85      27.3  T
   4   -357.2630827 -0.320098E-07  0.141E-04    0.85      51.2  T
   5   -357.2630827 -0.288600E-08  0.734E-05    0.85      98.3  T
     SCC iter.                  ...        0 min,  0.501 sec
     gradient                   ...        0 min,  0.454 sec
 * total energy  :  -352.1095917 Eh     change       -0.4050153E-04 Eh
   gradient norm :     0.0036036 Eh/α   predicted    -0.2634879E-04 ( -34.94%)
   displ. norm   :     0.2056861 α      lambda       -0.7994509E-04
   maximum displ.:     0.0952624 α      in ANC's #10, #16, #13, ...

........................................................................
.............................. CYCLE   47 ..............................
........................................................................
   1   -357.2619340 -0.357262E+03  0.112E-03    0.85       0.0  T
   2   -357.2619341 -0.951937E-07  0.661E-04    0.85      10.9  T
   3   -357.2619342 -0.686551E-07  0.442E-04    0.85      16.3  T
   4   -357.2619343 -0.656431E-07  0.229E-04    0.85      31.6  T
   5   -357.2619343 -0.113341E-07  0.828E-05    0.85      87.2  T
   6   -357.2619343 -0.356590E-08  0.234E-05    0.85     308.2  T
     SCC iter.                  ...        0 min,  0.605 sec
     gradient                   ...        0 min,  0.455 sec
 * total energy  :  -352.1096550 Eh     change       -0.6325480E-04 Eh
   gradient norm :     0.0038084 Eh/α   predicted    -0.4168609E-04 ( -34.10%)
   displ. norm   :     0.2720566 α      lambda       -0.9241375E-04
   maximum displ.:     0.1290027 α      in ANC's #10, #16, #13, ...

........................................................................
.............................. CYCLE   48 ..............................
........................................................................
   1   -357.2606290 -0.357261E+03  0.115E-03    0.85       0.0  T
   2   -357.2606291 -0.144827E-06  0.665E-04    0.85      10.8  T
   3   -357.2606292 -0.439095E-07  0.441E-04    0.85      16.4  T
   4   -357.2606292 -0.496515E-07  0.250E-04    0.85      28.9  T
   5   -357.2606292 -0.225224E-07  0.740E-05    0.85      97.5  T
   6   -357.2606292 -0.213470E-08  0.301E-05    0.85     239.6  T
     SCC iter.                  ...        0 min,  0.583 sec
     gradient                   ...        0 min,  0.449 sec
 * total energy  :  -352.1097272 Eh     change       -0.7220417E-04 Eh
   gradient norm :     0.0037392 Eh/α   predicted    -0.4962876E-04 ( -31.27%)
   displ. norm   :     0.3004107 α      lambda       -0.9122695E-04
   maximum displ.:     0.1467847 α      in ANC's #10, #16, #13, ...

........................................................................
.............................. CYCLE   49 ..............................
........................................................................
   1   -357.2599085 -0.357260E+03  0.105E-03    0.85       0.0  T
   2   -357.2599086 -0.166885E-06  0.562E-04    0.85      12.8  T
   3   -357.2599087 -0.708189E-07  0.336E-04    0.85      21.5  T
   4   -357.2599087 -0.356736E-07  0.185E-04    0.85      39.1  T
   5   -357.2599087 -0.938064E-08  0.855E-05    0.85      84.4  T
     SCC iter.                  ...        0 min,  0.486 sec
     gradient                   ...        0 min,  0.448 sec
 * total energy  :  -352.1098003 Eh     change       -0.7314898E-04 Eh
   gradient norm :     0.0033583 Eh/α   predicted    -0.4973192E-04 ( -32.01%)
   displ. norm   :     0.3187112 α      lambda       -0.9397700E-04
   maximum displ.:     0.1599488 α      in ANC's #10, #16, #13, ...

........................................................................
.............................. CYCLE   50 ..............................
........................................................................
   1   -357.2599889 -0.357260E+03  0.112E-03    0.84       0.0  T
   2   -357.2599891 -0.159320E-06  0.595E-04    0.84      12.1  T
   3   -357.2599892 -0.124387E-06  0.366E-04    0.84      19.7  T
   4   -357.2599893 -0.639085E-07  0.153E-04    0.84      47.2  T
   5   -357.2599893  0.119144E-09  0.106E-04    0.84      67.8  T
     SCC iter.                  ...        0 min,  0.507 sec
     gradient                   ...        0 min,  0.457 sec
 * total energy  :  -352.1098763 Eh     change       -0.7601109E-04 Eh
   gradient norm :     0.0029146 Eh/α   predicted    -0.5176279E-04 ( -31.90%)
   displ. norm   :     0.3408546 α      lambda       -0.9386076E-04
   maximum displ.:     0.1761206 α      in ANC's #10, #16, #13, ...

........................................................................
.............................. CYCLE   51 ..............................
........................................................................
   1   -357.2602156 -0.357260E+03  0.113E-03    0.84       0.0  T
   2   -357.2602157 -0.124715E-06  0.670E-04    0.84      10.8  T
   3   -357.2602159 -0.149713E-06  0.399E-04    0.84      18.1  T
   4   -357.2602159 -0.591474E-07  0.188E-04    0.84      38.4  T
   5   -357.2602159 -0.306289E-08  0.974E-05    0.84      74.1  T
     SCC iter.                  ...        0 min,  0.490 sec
     gradient                   ...        0 min,  0.450 sec
 * total energy  :  -352.1099526 Eh     change       -0.7628792E-04 Eh
   gradient norm :     0.0029101 Eh/α   predicted    -0.5239264E-04 ( -31.32%)
   displ. norm   :     0.3625410 α      lambda       -0.9246688E-04
   maximum displ.:     0.1910180 α      in ANC's #10, #16, #13, ...

........................................................................
.............................. CYCLE   52 ..............................
........................................................................
   1   -357.2599441 -0.357260E+03  0.996E-04    0.84       0.0  T
   2   -357.2599442 -0.864674E-07  0.658E-04    0.84      11.0  T
   3   -357.2599443 -0.153850E-06  0.343E-04    0.84      21.0  T
   4   -357.2599444 -0.297383E-07  0.188E-04    0.84      38.5  T
   5   -357.2599444 -0.793551E-08  0.832E-05    0.84      86.7  T
     SCC iter.                  ...        0 min,  0.488 sec
     gradient                   ...        0 min,  0.450 sec
 * total energy  :  -352.1100304 Eh     change       -0.7780276E-04 Eh
   gradient norm :     0.0030659 Eh/α   predicted    -0.5231088E-04 ( -32.76%)
   displ. norm   :     0.4108190 α      lambda       -0.1043739E-03
   maximum displ.:     0.2195843 α      in ANC's #10, #16, #13, ...

........................................................................
.............................. CYCLE   53 ..............................
........................................................................
   1   -357.2589880 -0.357259E+03  0.104E-03    0.84       0.0  T
   2   -357.2589881 -0.154948E-06  0.629E-04    0.84      11.5  T
   3   -357.2589883 -0.113164E-06  0.308E-04    0.84      23.4  T
   4   -357.2589883 -0.188865E-07  0.207E-04    0.84      34.9  T
   5   -357.2589883 -0.133311E-07  0.826E-05    0.84      87.3  T
   6   -357.2589883 -0.252300E-08  0.209E-05    0.84     345.8  T
     SCC iter.                  ...        0 min,  0.593 sec
     gradient                   ...        0 min,  0.452 sec
 * total energy  :  -352.1101202 Eh     change       -0.8978497E-04 Eh
   gradient norm :     0.0028167 Eh/α   predicted    -0.6099497E-04 ( -32.07%)
   displ. norm   :     0.4674586 α      lambda       -0.1205727E-03
   maximum displ.:     0.2514629 α      in ANC's #10, #16, #13, ...

........................................................................
.............................. CYCLE   54 ..............................
........................................................................
   1   -357.2574901 -0.357257E+03  0.110E-03    0.84       0.0  T
   2   -357.2574903 -0.200069E-06  0.566E-04    0.84      12.8  T
   3   -357.2574904 -0.582734E-07  0.275E-04    0.84      26.2  T
   4   -357.2574904 -0.492139E-08  0.223E-04    0.84      32.3  T
   5   -357.2574904 -0.183992E-07  0.836E-05    0.84      86.3  T
   6   -357.2574904 -0.259297E-08  0.257E-05    0.84     280.8  T
     SCC iter.                  ...        0 min,  0.616 sec
     gradient                   ...        0 min,  0.475 sec
 * total energy  :  -352.1102236 Eh     change       -0.1033643E-03 Eh
   gradient norm :     0.0024849 Eh/α   predicted    -0.7346129E-04 ( -28.93%)
   displ. norm   :     0.5087471 α      lambda       -0.1304806E-03
   maximum displ.:     0.2739963 α      in ANC's #10, #16, #13, ...

........................................................................
.............................. CYCLE   55 ..............................
........................................................................
   1   -357.2560938 -0.357256E+03  0.109E-03    0.84       0.0  T
   2   -357.2560939 -0.156814E-06  0.549E-04    0.84      13.2  T
   3   -357.2560940 -0.494497E-07  0.307E-04    0.84      23.5  T
   4   -357.2560940 -0.178553E-07  0.216E-04    0.84      33.4  T
   5   -357.2560940 -0.162377E-07  0.809E-05    0.84      89.2  T
   6   -357.2560940 -0.232575E-08  0.323E-05    0.84     223.6  T
     SCC iter.                  ...        0 min,  0.595 sec
     gradient                   ...        0 min,  0.453 sec
 * total energy  :  -352.1103339 Eh     change       -0.1102751E-03 Eh
   gradient norm :     0.0029982 Eh/α   predicted    -0.8213075E-04 ( -25.52%)
   displ. norm   :     0.5235115 α      lambda       -0.1344271E-03
   maximum displ.:     0.2803808 α      in ANC's #10, #16, #13, ...

........................................................................
.............................. CYCLE   56 ..............................
........................................................................
   1   -357.2555014 -0.357256E+03  0.107E-03    0.85       0.0  T
   2   -357.2555015 -0.871067E-07  0.656E-04    0.85      11.0  T
   3   -357.2555017 -0.151744E-06  0.365E-04    0.85      19.7  T
   4   -357.2555017 -0.531346E-07  0.189E-04    0.85      38.3  T
   5   -357.2555017 -0.552518E-08  0.749E-05    0.85      96.4  T
     SCC iter.                  ...        0 min,  0.486 sec
     gradient                   ...        0 min,  0.452 sec
 * total energy  :  -352.1104459 Eh     change       -0.1120664E-03 Eh
   gradient norm :     0.0038106 Eh/α   predicted    -0.8563636E-04 ( -23.58%)
   displ. norm   :     0.5285003 α      lambda       -0.1394220E-03
   maximum displ.:     0.2807421 α      in ANC's #10, #16, #13, ...

........................................................................
.............................. CYCLE   57 ..............................
........................................................................
   1   -357.2560092 -0.357256E+03  0.115E-03    0.85       0.0  T
   2   -357.2560092 -0.414227E-07  0.858E-04    0.85       8.4  T
   3   -357.2560096 -0.378137E-06  0.370E-04    0.85      19.5  T
   4   -357.2560097 -0.443463E-07  0.202E-04    0.85      35.7  T
   5   -357.2560097 -0.577609E-08  0.857E-05    0.85      84.2  T
   6   -357.2560097 -0.255812E-08  0.272E-05    0.85     265.6  T
     SCC iter.                  ...        0 min,  0.580 sec
     gradient                   ...        0 min,  0.447 sec
 * total energy  :  -352.1105602 Eh     change       -0.1142474E-03 Eh
   gradient norm :     0.0040016 Eh/α   predicted    -0.8918412E-04 ( -21.94%)
   displ. norm   :     0.5185039 α      lambda       -0.1410086E-03
   maximum displ.:     0.2730771 α      in ANC's #10, #16, #13, ...

........................................................................
.............................. CYCLE   58 ..............................
........................................................................
   1   -357.2574021 -0.357257E+03  0.136E-03    0.84       0.0  T
   2   -357.2574022 -0.776622E-07  0.101E-03    0.84       7.1  T
   3   -357.2574027 -0.504360E-06  0.436E-04    0.84      16.6  T
   4   -357.2574027 -0.614803E-07  0.247E-04    0.84      29.2  T
   5   -357.2574027 -0.106789E-07  0.104E-04    0.84      69.5  T
   6   -357.2574027 -0.379646E-08  0.390E-05    0.84     185.2  T
     SCC iter.                  ...        0 min,  0.582 sec
     gradient                   ...        0 min,  0.455 sec
 * total energy  :  -352.1106718 Eh     change       -0.1116381E-03 Eh
   gradient norm :     0.0034420 Eh/α   predicted    -0.8945964E-04 ( -19.87%)
   displ. norm   :     0.4780266 α      lambda       -0.1223597E-03
   maximum displ.:     0.2521465 α      in ANC's #10, #16, #13, ...

........................................................................
.............................. CYCLE   59 ..............................
........................................................................
   1   -357.2588001 -0.357259E+03  0.138E-03    0.84       0.0  T
   2   -357.2588003 -0.197477E-06  0.864E-04    0.84       8.4  T
   3   -357.2588005 -0.255250E-06  0.447E-04    0.84      16.1  T
   4   -357.2588006 -0.778123E-07  0.263E-04    0.84      27.4  T
   5   -357.2588006 -0.165396E-07  0.108E-04    0.84      67.1  T
   6   -357.2588006 -0.405311E-08  0.454E-05    0.84     158.9  T
     SCC iter.                  ...        0 min,  0.594 sec
     gradient                   ...        0 min,  0.456 sec
 * total energy  :  -352.1107648 Eh     change       -0.9299298E-04 Eh
   gradient norm :     0.0027320 Eh/α   predicted    -0.7516310E-04 ( -19.17%)
   displ. norm   :     0.4190299 α      lambda       -0.9381442E-04
   maximum displ.:     0.2232989 α      in ANC's #10, #16, #13, ...

........................................................................
.............................. CYCLE   60 ..............................
........................................................................
   1   -357.2591935 -0.357259E+03  0.104E-03    0.84       0.0  T
   2   -357.2591936 -0.112970E-06  0.576E-04    0.84      12.5  T
   3   -357.2591937 -0.573883E-07  0.353E-04    0.84      20.4  T
   4   -357.2591937 -0.403738E-07  0.220E-04    0.84      32.9  T
   5   -357.2591938 -0.170102E-07  0.780E-05    0.84      92.6  T
   6   -357.2591938 -0.263270E-08  0.374E-05    0.84     193.2  T
     SCC iter.                  ...        0 min,  0.583 sec
     gradient                   ...        0 min,  0.449 sec
 * total energy  :  -352.1108347 Eh     change       -0.6992840E-04 Eh
   gradient norm :     0.0027470 Eh/α   predicted    -0.5514619E-04 ( -21.14%)
   displ. norm   :     0.3696461 α      lambda       -0.7919921E-04
   maximum displ.:     0.1975400 α      in ANC's #10, #16, #13, ...

........................................................................
.............................. CYCLE   61 ..............................
........................................................................
   1   -357.2597244 -0.357260E+03  0.110E-03    0.84       0.0  T
   2   -357.2597246 -0.161904E-06  0.572E-04    0.84      12.6  T
   3   -357.2597246 -0.537842E-07  0.382E-04    0.84      18.9  T
   4   -357.2597247 -0.534178E-07  0.204E-04    0.84      35.4  T
   5   -357.2597247 -0.843920E-08  0.949E-05    0.84      76.1  T
   6   -357.2597247 -0.470260E-08  0.371E-05    0.84     194.7  T
     SCC iter.                  ...        0 min,  0.583 sec
     gradient                   ...        0 min,  0.449 sec
 * total energy  :  -352.1108922 Eh     change       -0.5747134E-04 Eh
   gradient norm :     0.0028506 Eh/α   predicted    -0.4501294E-04 ( -21.68%)
   displ. norm   :     0.3817370 α      lambda       -0.6899426E-04
   maximum displ.:     0.2081365 α      in ANC's #10, #16, #13, ...

........................................................................
.............................. CYCLE   62 ..............................
........................................................................
   1   -357.2572963 -0.357257E+03  0.137E-03    0.84       0.0  T
   2   -357.2572966 -0.301466E-06  0.762E-04    0.84       9.5  T
   3   -357.2572967 -0.142310E-06  0.443E-04    0.84      16.3  T
   4   -357.2572968 -0.582352E-07  0.256E-04    0.84      28.2  T
   5   -357.2572968 -0.139694E-07  0.115E-04    0.84      62.7  T
   6   -357.2572968 -0.590410E-08  0.344E-05    0.84     210.0  T
[...]
   149   6 C    3.964 --   148 C    1.709   151 C    1.129   182 H    0.970
   150   7 N    3.009 --   151 C    1.342   147 C    1.286
   151   6 C    3.913 --   150 N    1.342   152 C    1.258   149 C    1.129
   152   6 C    3.925 --   151 C    1.258   153 C    1.252   129 C    1.182
   153   6 C    3.890 --   154 C    1.253   152 C    1.252   157 N    1.187
   154   6 C    3.956 --   155 C    1.577   153 C    1.253   183 H    0.970
   155   6 C    3.955 --   154 C    1.577   156 C    1.245   184 H    0.974
   156   6 C    3.895 --   158 C    1.299   155 C    1.245   157 N    1.168
   157   7 N    3.471 --   153 C    1.187   156 C    1.168   185 H    0.874
   158   6 C    3.926 --   168 C    1.338   156 C    1.299   159 C    1.026
   159   6 C    3.988 --   167 C    1.406   160 C    1.389   158 C    1.026
                           162 C    0.102
   160   6 C    3.987 --   161 C    1.439   159 C    1.389   186 H    0.972
                           163 C    0.100
   161   6 C    3.994 --   162 C    1.450   160 C    1.439   187 H    0.972
                           167 C    0.104
   162   6 C    3.985 --   161 C    1.450   163 C    1.388   188 H    0.969
                           159 C    0.102
   163   6 C    3.988 --   167 C    1.400   162 C    1.388   164 C    1.004
                           160 C    0.100
   164   6 C    3.836 --   166 O    1.692   165 O    1.091   163 C    1.004
   165   8 O    2.100 --   164 C    1.091   189 H    0.837   166 O    0.129
   166   8 O    1.961 --   164 C    1.692   165 O    0.129
   167   6 C    3.984 --   159 C    1.406   163 C    1.400   190 H    0.969
                           161 C    0.104
   168   6 C    3.918 --   158 C    1.338   172 N    1.285   169 C    1.125
   169   6 C    3.966 --   170 C    1.708   168 C    1.125   191 H    0.973
   170   6 C    3.964 --   169 C    1.708   171 C    1.130   192 H    0.970
   171   6 C    3.914 --   172 N    1.343   131 C    1.259   170 C    1.130
   172   7 N    3.008 --   171 C    1.343   168 C    1.285
   173   1 H    1.005 --   133 C    0.971
   174   1 H    1.004 --   134 C    0.974
   175   1 H    0.987 --   136 N    0.874
   176   1 H    1.007 --   139 C    0.968
   177   1 H    0.873 --   142 O    0.838
   178   1 H    1.005 --   144 C    0.970
   179   1 H    1.001 --   145 C    0.972
   180   1 H    1.004 --   146 C    0.973
   181   1 H    1.004 --   148 C    0.973
   182   1 H    1.006 --   149 C    0.970
   183   1 H    1.006 --   154 C    0.970
   184   1 H    1.004 --   155 C    0.974
   185   1 H    0.987 --   157 N    0.874
   186   1 H    1.005 --   160 C    0.972
   187   1 H    1.002 --   161 C    0.972
   188   1 H    1.005 --   162 C    0.969
   189   1 H    0.872 --   165 O    0.837
   190   1 H    1.007 --   167 C    0.969
   191   1 H    1.004 --   169 C    0.973
   192   1 H    1.006 --   170 C    0.970
 ---------------------------------------------------------------------------

Topologies differ in total number of bonds
Writing topology from bond orders to xtbtopo.mol

 dipole moment from electron density (au)
     X       Y       Z   
  -0.3429   0.7965  -0.9769  total (Debye):    3.320

           -------------------------------------------------
          |                Geometry Summary                 |
           -------------------------------------------------

      molecular mass/u    :     1695.7036295
   center of mass at/Å    :       45.6977724       0.0258004       0.1193177
  moments of inertia/u·Å² :        0.4412939E+05   0.1412803E+06   0.1802872E+06
rotational constants/cm⁻¹ :        0.3820046E-03   0.1193204E-03   0.9350433E-04

 * 194 selected distances

     #   Z          #   Z                                           value/Å
     1   6 C        2   6 C                                       1.3887178
     2   6 C        3   6 C                                       1.4232295
     3   6 C        4   6 C                                       1.3663188
     4   6 C        5   6 C                                       1.4245560
     2   6 C        6   7 N                                       1.3665138
     5   6 C        6   7 N                                       1.3658366
     5   6 C        7   6 C                                       1.3990097
     8   6 C        9   6 C                                       1.3921801
     9   6 C       10   6 C                                       1.3941781
    11   6 C       12   8 O                                       1.3409951
    11   6 C       13   8 O                                       1.2044097
    10   6 C       14   6 C                                       1.3949314
    14   6 C       15   6 C                                       1.3859651
     8   6 C       16   6 C                                       1.3969402
    15   6 C       16   6 C                                       1.3878659
     7   6 C       17   6 C                                       1.3971720
    17   6 C       18   6 C                                       1.4519714
    18   6 C       19   6 C                                       1.3488726
    17   6 C       20   7 N                                       1.3609276
    19   6 C       21   6 C                                       1.4499354
    20   7 N       21   6 C                                       1.3492536
    21   6 C       22   6 C                                       1.4088422
    22   6 C       23   6 C                                       1.4074673
    23   6 C       24   6 C                                       1.4197804
    24   6 C       25   6 C                                       1.3671978
    25   6 C       26   6 C                                       1.4222544
    23   6 C       27   7 N                                       1.3637166
    26   6 C       27   7 N                                       1.3694815
    26   6 C       28   6 C                                       1.3990613
    29   6 C       30   6 C                                       1.3967735
    30   6 C       31   6 C                                       1.3879733
    31   6 C       32   6 C                                       1.3848459
    32   6 C       33   6 C                                       1.3958288
    34   6 C       35   8 O                                       1.3407502
    34   6 C       36   8 O                                       1.2043245
    29   6 C       37   6 C                                       1.3933482
    33   6 C       37   6 C                                       1.3933228
    28   6 C       38   6 C                                       1.3979084
    39   6 C       40   6 C                                       1.3480209
     1   6 C       41   6 C                                       1.3887215
    40   6 C       41   6 C                                       1.4526085 (max)
    38   6 C       42   7 N                                       1.3540777
    41   6 C       42   7 N                                       1.3553511
     1   6 C       43   1 H                                       1.0852670
     3   6 C       44   1 H                                       1.0783045
     4   6 C       45   1 H                                       1.0779626
     6   7 N       46   1 H                                       1.0144460
     9   6 C       47   1 H                                       1.0844964
    12   8 O       48   1 H                                       0.9709497
    14   6 C       49   1 H                                       1.0832327
    15   6 C       50   1 H                                       1.0841709
    16   6 C       51   1 H                                       1.0843974
    18   6 C       52   1 H                                       1.0778759
    19   6 C       53   1 H                                       1.0779895
    24   6 C       54   1 H                                       1.0774980
    25   6 C       55   1 H                                       1.0777734
    27   7 N       56   1 H                                       1.0146192
    30   6 C       57   1 H                                       1.0843938
    31   6 C       58   1 H                                       1.0840492
    32   6 C       59   1 H                                       1.0841291
    35   8 O       60   1 H                                       0.9707927 (min)
    37   6 C       61   1 H                                       1.0835581
    39   6 C       62   1 H                                       1.0781461
    40   6 C       63   1 H                                       1.0787077
    64   6 C       65   6 C                                       1.3886992
    65   6 C       66   6 C                                       1.4231211
    66   6 C       67   6 C                                       1.3663645
    67   6 C       68   6 C                                       1.4244802
    65   6 C       69   7 N                                       1.3664978
    68   6 C       69   7 N                                       1.3656024
    68   6 C       70   6 C                                       1.3990784
    71   6 C       72   6 C                                       1.3919470
    72   6 C       73   6 C                                       1.3942981
    74   6 C       75   8 O                                       1.3409775
    74   6 C       76   8 O                                       1.2043148
    73   6 C       77   6 C                                       1.3949027
    77   6 C       78   6 C                                       1.3859484
    71   6 C       79   6 C                                       1.3969116
    78   6 C       79   6 C                                       1.3878437
    70   6 C       80   6 C                                       1.3966417
    80   6 C       81   6 C                                       1.4519640
    81   6 C       82   6 C                                       1.3485570
    80   6 C       83   7 N                                       1.3615977
    82   6 C       84   6 C                                       1.4498986
    83   7 N       84   6 C                                       1.3490174
    84   6 C       85   6 C                                       1.4093884
    85   6 C       86   6 C                                       1.4077461
    86   6 C       87   6 C                                       1.4199638
    87   6 C       88   6 C                                       1.3668820
    88   6 C       89   6 C                                       1.4225499
    86   6 C       90   7 N                                       1.3636602
    89   6 C       90   7 N                                       1.3698959
    89   6 C       91   6 C                                       1.3987928
    92   6 C       93   6 C                                       1.3966574
    93   6 C       94   6 C                                       1.3880683
    94   6 C       95   6 C                                       1.3848076
    95   6 C       96   6 C                                       1.3958251
    97   6 C       98   8 O                                       1.3408485
    97   6 C       99   8 O                                       1.2044594
    92   6 C      100   6 C                                       1.3934736
    96   6 C      100   6 C                                       1.3932663
    91   6 C      101   6 C                                       1.3984652
   102   6 C      103   6 C                                       1.3479658
    64   6 C      104   6 C                                       1.3885179
   103   6 C      104   6 C                                       1.4523710
   101   6 C      105   7 N                                       1.3537994
   104   6 C      105   7 N                                       1.3556864
    64   6 C      106   1 H                                       1.0852522
    66   6 C      107   1 H                                       1.0783310
    67   6 C      108   1 H                                       1.0779746
    69   7 N      109   1 H                                       1.0144869
    72   6 C      110   1 H                                       1.0844946
    75   8 O      111   1 H                                       0.9709814
    77   6 C      112   1 H                                       1.0832253
    78   6 C      113   1 H                                       1.0842041
    79   6 C      114   1 H                                       1.0843877
    81   6 C      115   1 H                                       1.0778404
    82   6 C      116   1 H                                       1.0777106
    87   6 C      117   1 H                                       1.0773758
    88   6 C      118   1 H                                       1.0776939
    90   7 N      119   1 H                                       1.0146683
    93   6 C      120   1 H                                       1.0843428
    94   6 C      121   1 H                                       1.0840316
    95   6 C      122   1 H                                       1.0841199
    98   8 O      123   1 H                                       0.9709543
   100   6 C      124   1 H                                       1.0836051
   102   6 C      125   1 H                                       1.0781035
   103   6 C      126   1 H                                       1.0787053
   127   6 C      128   6 C                                       1.2171466
   129   6 C      130   6 C                                       1.2174717
   131   6 C      132   6 C                                       1.4074572
   132   6 C      133   6 C                                       1.4188834
   133   6 C      134   6 C                                       1.3677507
   134   6 C      135   6 C                                       1.4218378
   132   6 C      136   7 N                                       1.3636642
   135   6 C      136   7 N                                       1.3690811
   135   6 C      137   6 C                                       1.4000070
   138   6 C      139   6 C                                       1.3922413
   139   6 C      140   6 C                                       1.3941727
   141   6 C      142   8 O                                       1.3408499
   141   6 C      143   8 O                                       1.2044645
   140   6 C      144   6 C                                       1.3948589
   144   6 C      145   6 C                                       1.3859734
   138   6 C      146   6 C                                       1.3969626
   145   6 C      146   6 C                                       1.3878092
   137   6 C      147   6 C                                       1.3962024
   147   6 C      148   6 C                                       1.4521955
   148   6 C      149   6 C                                       1.3487549
   147   6 C      150   7 N                                       1.3610804
   149   6 C      151   6 C                                       1.4490761
   150   7 N      151   6 C                                       1.3493897
   151   6 C      152   6 C                                       1.4090576
   152   6 C      153   6 C                                       1.4077041
   153   6 C      154   6 C                                       1.4185846
   154   6 C      155   6 C                                       1.3677570
   155   6 C      156   6 C                                       1.4216901
   153   6 C      157   7 N                                       1.3638731
   156   6 C      157   7 N                                       1.3687866
   156   6 C      158   6 C                                       1.4001336
   159   6 C      160   6 C                                       1.3965690
   160   6 C      161   6 C                                       1.3880479
   161   6 C      162   6 C                                       1.3848437
   162   6 C      163   6 C                                       1.3956794
   164   6 C      165   8 O                                       1.3405262
   164   6 C      166   8 O                                       1.2044635
   159   6 C      167   6 C                                       1.3933397
   163   6 C      167   6 C                                       1.3932997
   158   6 C      168   6 C                                       1.3955515
   168   6 C      169   6 C                                       1.4519568
   169   6 C      170   6 C                                       1.3489554
   131   6 C      171   6 C                                       1.4088358
   170   6 C      171   6 C                                       1.4491966
   168   6 C      172   7 N                                       1.3612161
   171   6 C      172   7 N                                       1.3491286
   133   6 C      173   1 H                                       1.0775835
   134   6 C      174   1 H                                       1.0777139
   136   7 N      175   1 H                                       1.0145328
   139   6 C      176   1 H                                       1.0844971
   142   8 O      177   1 H                                       0.9709671
   144   6 C      178   1 H                                       1.0832209
   145   6 C      179   1 H                                       1.0840855
   146   6 C      180   1 H                                       1.0843210
   148   6 C      181   1 H                                       1.0778012
   149   6 C      182   1 H                                       1.0777824
   154   6 C      183   1 H                                       1.0774267
   155   6 C      184   1 H                                       1.0777600
   157   7 N      185   1 H                                       1.0145164
   160   6 C      186   1 H                                       1.0842238
   161   6 C      187   1 H                                       1.0840329
   162   6 C      188   1 H                                       1.0841387
   165   8 O      189   1 H                                       0.9710313
   167   6 C      190   1 H                                       1.0836250
   169   6 C      191   1 H                                       1.0778999
   170   6 C      192   1 H                                       1.0778975

 * 6 distinct bonds (by element types)

   Z      Z             #   av. dist./Å        max./Å        min./Å
   1 H    6 C          50     1.0811472     1.0852670     1.0773758
   6 C    6 C          96     1.3959500     1.4526085     1.2171466
   1 H    7 N           6     1.0145449     1.0146683     1.0144460
   6 C    7 N          24     1.3607140     1.3698959     1.3490174
   1 H    8 O           6     0.9709461     0.9710313     0.9707927
   6 C    8 O          12     1.2726153     1.3409951     1.2043148


optimized geometry written to: xtbopt.xyz


           -------------------------------------------------
          | TOTAL ENERGY             -352.111133525782 Eh   |
          | GRADIENT NORM               0.000698276576 Eh/α |
          | HOMO-LUMO GAP               0.844386770899 eV   |
           -------------------------------------------------

------------------------------------------------------------------------
 * finished run on 2022/07/27 at 13:56:00.527     
------------------------------------------------------------------------
 total:
 * wall-time:     0 d,  0 h,  1 min, 43.365 sec
 *  cpu-time:     0 d,  0 h,  1 min, 42.904 sec
 * ratio c/w:     0.996 speedup
 SCF:
 * wall-time:     0 d,  0 h,  0 min,  2.731 sec
 *  cpu-time:     0 d,  0 h,  0 min,  2.717 sec
 * ratio c/w:     0.995 speedup
 ANC optimizer:
 * wall-time:     0 d,  0 h,  1 min, 40.432 sec
 *  cpu-time:     0 d,  0 h,  1 min, 39.998 sec
 * ratio c/w:     0.996 speedup

