532
 energy: -798.884204744009 gnorm: 0.000717503756 xtb: 6.5.1 (b24c23e)
C          103.98629992106947       -0.09196894357842       -0.07373828716785
C          104.59057246245355       -1.34061161702728       -0.00348894234508
C          103.94497078709713       -2.60815258787060        0.05480855755365
C          104.91300105017289       -3.57144714115102        0.10726678567119
C          106.18092384669205       -2.92280449070423        0.08412056676889
N          105.93558478155198       -1.58044974073768        0.01821658303006
C          107.43929085910662       -3.52758259029387        0.11894124670968
C          107.45474797044179       -5.01921206122015        0.17793011283921
C          107.45969206854990       -5.76359696858562       -1.00530283736094
C          107.45406773771477       -5.06027386148056       -2.33645843239184
C          107.47256375383499       -7.15185281368320       -0.93939663028592
C          107.48131511762564       -7.80930810867878        0.28656166971337
C          107.47502243487718       -9.31312586193950        0.34378553046418
C          107.47593560455809       -7.05864704681799        1.45751232548501
C          107.46338120623479       -5.66926541961321        1.41519892735333
C          107.46199134573034       -4.86416176138143        2.68737521379269
C          108.66415175434940       -2.86176233068042        0.10009802028853
C          109.94451279980019       -3.54481631405345        0.13344831520020
C          110.89059577168676       -2.58313268501853        0.09888858664892
N          108.85323844995085       -1.51429249318553        0.04669843477503
C          110.18710923177876       -1.31604659920729        0.04505817657930
C          110.84693035332846       -0.07213687968118       -0.02106107148112
C          110.21715039134797        1.18383111842646       -0.10123778515441
C          110.85462486019742        2.45216425175711       -0.15028816839237
C          109.88217936255586        3.41186585272401       -0.21016311347232
C          108.61937600898301        2.75709088041829       -0.19619511408194
N          108.87353133820312        1.41264755025436       -0.12982025424659
C          107.36207805116790        3.36302102252393       -0.23715857680170
C          107.34527197399358        4.85369376673085       -0.30881520794122
C          107.35899887589557        5.49357884314251       -1.55133971834694
C          107.39093414554642        4.67839407777664       -2.81667116951866
C          107.34326761978440        6.88255125341466       -1.60526393942990
C          107.31527698718908        7.64274398566457       -0.44087497746980
C          107.27759445929138        9.14555933879310       -0.51060636095563
C          107.30103012046472        6.99534949792568        0.79041519052006
C          107.31615668064582        5.60777967974955        0.86797024509888
C          107.30207939189840        4.91516118914545        2.20466786452555
C          106.13646779864749        2.69570864058063       -0.21224840676109
C          104.84902214802092        3.37123744653696       -0.25728027543462
C          103.90935046090790        2.40518582334599       -0.21094543606681
C          104.62248158961663        1.14157816915116       -0.13756156650621
N          105.96092897331681        1.35452234820329       -0.14125661587066
H          102.90124280983439       -0.08899643204701       -0.08082077363780
H          102.87595961196796       -2.75017247234588        0.05491492338016
H          104.77370651293475       -4.63940758165032        0.15836286805222
H          106.65223449573305       -0.86327529427339       -0.01203847965273
H          106.55507349606535       -4.44928975104198       -2.43865896849942
H          107.48315657880957       -5.77781754322668       -3.15591263159624
H          108.31822541561178       -4.39857834645421       -2.41906965853274
H          107.47797987391067       -7.72937772941728       -1.85808121764796
H          106.44659917389576       -9.68147882470512        0.32417535230860
H          108.00232326102918       -9.73633821007992       -0.51159112938162
H          107.94557094896507       -9.66950143442772        1.26038251163041
H          107.48373984415385       -7.56271917363362        2.41843829419618
H          106.57215753636457       -4.23357153372289        2.73626457313973
H          107.47665441427671       -5.51576921407037        3.56052336966099
H          108.33593597496623       -4.21106047609170        2.72292749969708
H          110.07337110333435       -4.61456324851207        0.17458844188251
H          111.96296253853114       -2.69558608886914        0.10091696325085
H          111.92179149024481        2.60284571277127       -0.13525880521086
H          110.01793714258153        4.48026752146372       -0.25716794877879
H          108.16008447451043        0.69189580335380       -0.10144626989358
H          107.36906743686714        5.32242144972902       -3.69528476647785
H          108.29634661242685        4.06938443357503       -2.85232187774345
H          106.53359062678246        4.00390824164145       -2.85481591246805
H          107.35433801493079        7.37867067476673       -2.57027870451238
H          107.79248763796733        9.58672754452854        0.34329113027569
H          106.24154347552238        9.49213856929856       -0.49758767447412
H          107.74400437347578        9.50444938593144       -1.42832324765817
H          107.27918187389659        7.58037728665084        1.70408906774776
H          107.26765502564203        5.63938520766201        3.01800950421614
H          106.43289774792983        4.25942000604057        2.28244270761062
H          108.19597682593728        4.29950611401145        2.32216044891783
H          104.71539820128700        4.43971868660992       -0.31672416268923
H          102.83524067399031        2.50542960002382       -0.22345430219135
C          176.77089899105204        0.02353175988617       -0.05780863053991
C          176.15868286260442        1.25004763090682       -0.28143544548876
C          176.79630287507112        2.50354425567856       -0.50303961521295
C          175.82224538360950        3.44602207555183       -0.67818883676753
C          174.55840553771839        2.79794660350451       -0.57015476455764
N          174.81216805787219        1.47705893951515       -0.33086111910302
C          173.29642480625031        3.38490373733218       -0.68501900918692
C          173.27185614135203        4.85486926179713       -0.94401589927456
C          173.26954991858199        5.33321330742596       -2.25718571341913
C          173.28618395787296        4.36502022981774       -3.41000963529078
C          173.24943879698407        6.70438066719443       -2.48534476061703
C          173.23053340029105        7.60492971974800       -1.42561181000230
C          173.22934666588219        9.08771174932442       -1.68272601884142
C          173.23261463590021        7.11763885112415       -0.12249253579462
C          173.25251885587235        5.75092188300390        0.12886623875575
C          173.25007977473749        5.23188735895646        1.54209566981575
C          172.07578681117064        2.72020544274235       -0.57455455711813
C          170.79099279221009        3.38387915793038       -0.70082858961539
C          169.85117421293057        2.43083260062102       -0.52898190259222
N          171.89560688641049        1.39243135258165       -0.33290667371759
C          170.56300663046508        1.18829695913523       -0.29938503879738
C          169.91164925187201       -0.03758598391622       -0.05562970355200
C          170.54899587763154       -1.26728698423840        0.19250313255679
C          169.91895873815105       -2.51993560905000        0.41954935254314
C          170.89729609786954       -3.45997088458779        0.59118989066443
C          172.15628858561917       -2.80852652491732        0.47180188705801
N          171.89409879380213       -1.48526444040614        0.23380499945709
C          173.41737823752513       -3.39990515349144        0.56968098521945
C          173.44341690079335       -4.87006703724566        0.82550077136373
C          173.45079273174770       -5.76401555451477       -0.24921161522489
C          173.43207696535327       -5.24270267383458       -1.66150692267432
C          173.47462874593154       -7.13130147921291       -0.00078953142311
C          173.49018423380113       -7.62121928250214        1.30111957652702
C          173.53673519772209       -9.10373379118585        1.55552459753624
C          173.48353549126332       -6.72267063520788        2.36285408804704
C          173.45977079760186       -5.35116549207724        2.13771664150976
C          173.45112627339634       -4.38519268594799        3.29246441973137
C          174.63871485187443       -2.73609220333453        0.44437481391525
C          175.93053454049831       -3.39507436709370        0.55778941207664
C          176.86395912877779       -2.43757669645730        0.38375962550672
C          176.14263222465613       -1.19598095012543        0.16269536377963
N          174.80560034244516       -1.41319821008980        0.20590750003998
H          177.85597596331806        0.02745800076040       -0.05671729371541
H          177.86437439342089        2.65112777453914       -0.52264705520017
H          175.95482131827856        4.49937128596680       -0.86643765868074
H          174.10018399935328        0.76535847493092       -0.20673603703954
H          174.18693258206162        3.74911537145995       -3.37489261941206
H          173.26164855129468        4.89339982988679       -4.36259517832619
H          172.42378808976389        3.69797156429664       -3.35686611111828
H          173.24649240274854        7.07505695866814       -3.50520918811158
H          174.25443344138768        9.46572311608512       -1.68258681275094
H          172.78395986012225        9.31446096871775       -2.65159676438384
H          172.67434395072232        9.61546802240025       -0.90661707627536
H          173.21648939696402        7.81303426204542        0.71039606449953
H          174.14569582715265        4.63625503711438        1.72906063200908
H          173.22089463135248        6.05259671765957        2.25818217713902
H          172.38244418457631        4.59074280389768        1.70843281535412
H          170.65528210051667        4.43619568386700       -0.89277692065579
H          168.77807273948389        2.53524431545404       -0.54444009805877
H          168.85240063046493       -2.67442971153348        0.44113399862508
H          170.76804710561800       -4.51323274130458        0.78116262940118
H          172.60318398302704       -0.77223696657327        0.09935281987333
H          173.45975638107495       -6.06208533999791       -2.37918815949582
H          172.52887319357993       -4.65494947030128       -1.83669998852358
H          174.29179473077727       -4.59353714353913       -1.83741646452108
H          173.47969578954763       -7.82487938468774       -0.83533482719647
H          173.08351782197076       -9.34816063016727        2.51646592616590
H          174.57439225635758       -9.44532051547399        1.57229918560453
H          173.01380560249578       -9.64903867950627        0.76936681078748
H          173.49562955951885       -7.09556711643034        3.38183735361453
H          173.48716883207950       -4.91520636211953        4.24376720856812
H          174.31031699660409       -3.71465662684133        3.23194954881043
H          172.54765957703398       -3.77278582421035        3.26747357880392
H          176.07099866667895       -4.44762085099351        0.74619126007955
H          177.93873579976960       -2.53042076693451        0.39705598231403
C          112.25574553058166       -0.07108481003263       -0.01210555336046
C          113.47300511865238       -0.06454555649672       -0.00994839692123
C          123.23353583895044       -0.05971111225906       -0.02010225693039
C          124.45220033268646       -0.06564059975473       -0.02439832903030
C          134.24276100312281       -0.09179129145425       -0.04578144692627
C          135.46230212263956       -0.09171762105605       -0.03587088348480
C          145.26482172862100       -0.06295747361178       -0.02874865058763
C          146.48441382695268       -0.06774766167586       -0.02877229202694
C          156.29183911799970       -0.08644671756613       -0.07790892183495
C          157.51136791309057       -0.09032621215060       -0.07836565889653
C          167.28560048002899       -0.05726586944831       -0.06081540951768
C          168.50271154368446       -0.04706730032397       -0.05973347915462
C          114.88097042248948       -0.06306107154009       -0.00599323581741
C          115.51594313886946       -1.13621932317621        0.64718208136869
C          114.88959153126299       -2.20979316397162        1.33179737722606
C          115.87189521822488       -3.02665562239305        1.82223827719842
C          117.12747106632617       -2.47302238541490        1.45092043983293
N          116.86175754650013       -1.32993355866516        0.74603806543210
C          118.38983499924859       -3.00159345136978        1.73548069246145
C          118.40561951075468       -4.27800829778723        2.51043171026118
C          118.33519530753139       -5.50404006450195        1.84315103701636
C          118.24437728868064       -5.53870373145198        0.34077518523091
C          118.35128065420565       -6.68396082337524        2.57802023913386
C          118.43468229643494       -6.66046674547358        3.96621080142502
C          118.47231640899409       -7.94417657892232        4.75070486541202
C          118.50487118394913       -5.43443964890264        4.61982480697569
C          118.49108701741466       -4.24240333349318        3.90540200834610
C          118.56733414600033       -2.91991481737795        4.62077995591095
C          119.61709930496021       -2.45394955392153        1.36947119797951
C          120.88930725504171       -3.08518649877599        1.66852204330858
C          121.84443771403497       -2.26944001714829        1.17558211154537
N          119.82083444574354       -1.28154932656550        0.70572912477818
C          121.15604141823394       -1.13967482267919        0.58449768041735
C          121.82690486718298       -0.05450716684365       -0.01824886156281
C          121.18916464449565        1.04465784196966       -0.62694329359140
C          121.81229556273971        2.16934056038934       -1.22637152160332
C          120.82933255650453        2.98740408783458       -1.71316391723653
C          119.57502250263568        2.38681030408650       -1.41923110544180
N          119.84317903897841        1.21847919116667       -0.75672723597801
C          118.31354255295790        2.88814388748395       -1.75268609306528
C          118.30030251032061        4.16672574761632       -2.52417336060596
C          118.38568105595566        4.13861381800106       -3.91936732579733
C          118.49077554758823        2.82136967649397       -4.64088897517842
C          118.36901194335191        5.33331888730026       -4.62921141661364
C          118.26844279630625        6.55486118725657       -3.97097007831693
C          118.27006976419214        7.84124268595671       -4.75196253940248
C          118.18549171893162        6.57095932767242       -2.58277516876011
C          118.19934033582817        5.38819135838883       -1.85238124941416
C          118.10367772507601        5.41481605205157       -0.35019991936248
C          117.08479334926425        2.31157528753507       -1.43837845536323
C          115.81094041012443        2.88666082874659       -1.83099523607443
C          114.85585464250784        2.06882585848603       -1.34091953155372
C          115.54741651906919        0.99790670951774       -0.65108119942590
N          116.88325777308657        1.16633199212158       -0.72999392583683
H          113.82388470877828       -2.33245140338933        1.43642505241292
H          115.74573806439794       -3.93234584601853        2.39306052295696
H          117.56500366199340       -0.71232924943003        0.35458082957788
H          117.32687614729532       -5.05104630448576        0.00546448864739
H          119.08705213380050       -5.00509481771209       -0.10250594161799
H          118.24737976910691       -6.56479124267908       -0.02573312401919
H          118.29693688072227       -7.63560314856095        2.05944761518796
H          118.01236764643225       -7.81391578357669        5.73066797622095
H          117.95126296246194       -8.74062902834980        4.21896736367492
H          119.50820398344480       -8.25715399414694        4.90133530394034
H          118.57018129196111       -5.40648210615709        5.70264035981726
H          117.69186420967679       -2.31097090224239        4.38736143508134
H          118.61589317994755       -3.06325768277095        5.69980440775592
H          119.45285068484982       -2.36739602249559        4.30107344059299
H          121.00742427250368       -4.02680408371058        2.18015183680615
H          122.91374122909041       -2.40262538162333        1.19123624771125
H          122.87676298108964        2.32960934953493       -1.27126442341497
H          120.95438794149125        3.92673042146740       -2.22701131838066
H          119.14101133238157        0.57236539886731       -0.41214585047204
H          118.48544388271945        2.96779039993808       -5.72058681239924
H          117.65589444868949        2.17249463493498       -4.37031943613958
H          119.41464260872071        2.31012469156855       -4.36301418873875
H          118.43264728293825        5.31109049941073       -5.71225834578487
H          117.77494900583699        7.71077303092888       -5.71467534970738
H          119.29775677569576        8.16062884482170       -4.94038215354849
H          117.76409557477378        8.63299767970186       -4.19918353559722
H          118.10630610780403        7.51884157066277       -2.06053319639852
H          118.96840606329955        4.91870529475258        0.09440664691450
H          118.05962752781510        6.43904057834740        0.01884393657790
H          117.20837986644992        4.88520532417056       -0.01903386622797
H          115.69171424219387        3.79059125686711       -2.40654145759958
H          113.78496769720456        2.15628382140052       -1.43106369783467
C          125.85841943831588       -0.07730936093674       -0.03067302980603
C          126.49884756058292       -0.96458955798480        0.85716598404127
C          125.88291142216494       -1.83741465663849        1.78985258609814
C          126.86962110812006       -2.54741239803127        2.41864891592380
C          128.11873285756451       -2.12284106445197        1.89005475984146
N          127.84471609845961       -1.15835392503346        0.95781059735085
C          129.37988658265829       -2.61600198378755        2.23819471487021
C          129.39136533770503       -3.72097645700642        3.24290284280919
C          129.23717558178569       -5.04598537933376        2.82527191803552
C          129.06443772542016       -5.35957192680963        1.36284412844812
C          129.24619561443572       -6.06564068479050        3.76994452138251
C          129.40423418654328       -5.78512037606245        5.12313284081559
C          129.43089034427859       -6.89933679730154        6.13429575359123
C          129.55863450911264       -4.46302348254053        5.52715721999154
C          129.55390906647870       -3.42753665729054        4.60002723931128
C          129.72131563711926       -1.99946325330144        5.04614990641838
C          130.60807435072508       -2.17926491387315        1.74809504013158
C          131.87395798491065       -2.76795146276355        2.14443248275816
C          132.83537768909002       -2.06731488166517        1.50762412712092
N          130.82192021329988       -1.15201468501277        0.87847117855354
C          132.15805577734415       -1.05253466648738        0.72722098124328
C          132.83633370222367       -0.09196674032974       -0.05427392998934
C          132.19354135503318        0.87400290699851       -0.85551900589868
C          132.80759143567400        1.87261364204824       -1.65288378116940
C          131.82037612373986        2.56166689584132       -2.30331831748591
C          130.57140557520583        2.00547707844518       -1.91598253625971
N          130.84681373898405        0.99639263126021       -1.03203378934868
C          129.31056527709902        2.40024892849438       -2.37376888482656
C          129.30189645138250        3.48666338728613       -3.39854470160193
C          129.44843004898772        3.16918827220414       -4.75194468416799
C          129.61092953199343        1.73358814054894       -5.17563180445862
C          129.43941812558069        4.18782927772283       -5.69773286120444
C          129.28679232813315        5.51652933533378       -5.31580606133158
C          129.29976482017358        6.61267795402959       -6.34679886482523
C          129.14208643571411        5.82087983092350       -3.96612626753435
C          129.14702396187701        4.81858308606286       -3.00322314448482
C          128.98588902412922        5.15668669849899       -1.54508226656983
C          128.08085613275532        1.88588672664011       -1.97054005082969
C          126.81320540466341        2.33626987243603       -2.51563387966254
C          125.85213582028008        1.64988755887015       -1.86260759544639
C          126.53294256485496        0.78469589342226       -0.92084955787953
N          127.86912002728181        0.93677798208031       -1.01651553826985
H          124.82111145541866       -1.90592078319865        1.95864537395108
H          126.75002462634244       -3.29681548458232        3.18419904904948
H          128.54033214390449       -0.65851512359902        0.41410736803029
H          128.13571433521699       -4.92355012327184        0.98928974361359
H          129.88782942955524       -4.93752127269541        0.78396517109821
H          129.03440845065677       -6.43602378947396        1.19683056206670
H          129.12665845011179       -7.09412465322503        3.44522084945383
H          129.06165697490445       -6.55584733353776        7.10091440996508
H          128.82171330508413       -7.74026687108605        5.80194147386937
H          130.45529609099276       -7.25453430346397        6.26882761156461
H          129.68280885530831       -4.23474127361123        6.58070385594086
H          128.87203132274837       -1.39690043407256        4.71881026872143
H          129.79752439623960       -1.93710011929294        6.13125989547222
H          130.62392877127729       -1.56993422186814        4.60736904272493
H          131.98448979651357       -3.60484980941913        2.81511327427829
H          133.90254002423447       -2.21065469169301        1.54151624982379
H          133.86919158493089        2.04134659188067       -1.71581636922467
H          131.93990449400908        3.38519423857375       -2.98847636887400
H          130.15166924583204        0.41523748677340       -0.57548543997599
H          129.63381019886623        1.64883564992254       -6.26167685258451
H          128.78678613968682        1.12886502704574       -4.79317377865506
H          130.54006564354714        1.32351536909303       -4.77471380510388
H          129.55096743552261        3.94052194962108       -6.74840171877376
H          128.92980073503381        6.24891009772494       -7.30567068908629
H          130.32051922841435        6.97431178021322       -6.49163693238402
H          128.68461178741754        7.45411673879826       -6.02695908483937
H          129.02178206870542        6.85467381239487       -3.65903316154510
H          129.83330750633149        4.77737299274914       -0.97106691422226
H          128.91919864592614        6.23457678649271       -1.40057588146462
H          128.08018626220573        4.69439373332876       -1.14788072388349
H          126.70166395434434        3.07352178385808       -3.29442510055197
H          124.78367383308424        1.70009253692395       -1.99507601657261
C          136.86864268158519       -0.09174842317662       -0.03090647373118
C          137.51413048628305       -0.96505559610666        0.86842384897990
C          136.90403116996885       -1.84071149568763        1.80165395628725
C          137.89506438415745       -2.53440807911737        2.44154398404628
C          139.14201847053488       -2.09788443158079        1.91816567168338
N          138.86179735721015       -1.14204558778967        0.97853453744623
C          140.40556345764085       -2.57741740811972        2.27675582902378
C          140.42171879269921       -3.67402909193029        3.29082805002382
C          140.28508539400897       -5.00423470262174        2.88351784007998
C          140.12265209607679       -5.33185744800643        1.42300305082448
C          140.30266493567584       -6.01601464593568        3.83647330008900
C          140.45209528091152       -5.72273913752543        5.18798905811548
C          140.49005647033715       -6.82874701598243        6.20780368356650
C          140.58785770963300       -4.39560328434325        5.58184018278364
C          140.57436648156516       -3.36775020826526        4.64625292706854
C          140.72241969918593       -1.93425877074408        5.08166800487549
C          141.63334562884341       -2.13818165973240        1.78787994410553
C          142.90020938836548       -2.71978892290657        2.19157472274895
C          143.86059306251636       -2.02408271164740        1.54793180027402
N          141.84583216412969       -1.11844139130317        0.90923815418483
C          143.18196529397463       -1.01783264605482        0.75796719111990
C          143.85853050444942       -0.06147404795409       -0.03008582857382
C          143.21243663715282        0.90389697815607       -0.82936379886265
C          143.82193190809923        1.90683853378391       -1.62463741529232
C          142.83091679437399        2.59757848537503       -2.26765685761784
C          141.58458381641705        2.03610068750655       -1.87955409528109
N          141.86501903740302        1.02321350216027       -1.00179620773204
C          140.32164419932349        2.42622096441848       -2.33511582468139
C          140.30565631668969        3.52602275505394       -3.34568891193662
C          140.43185991496856        3.22745119897859       -4.70530360197000
C          140.58365843147649        1.79746326266580       -5.15122672085890
C          140.41144955441362        4.25949612004670       -5.63636849947536
C          140.26728449084507        5.58293819999497       -5.23353106617729
C          140.26524847975529        6.69362269616487       -6.24895329427545
C          140.14419960391817        5.86854517237630       -3.87759942602051
C          140.16082041036520        4.85267545165974       -2.92923845924796
C          140.02210343423710        5.17010685585601       -1.46418302207010
C          139.09445960059162        1.89698778543255       -1.94388750902970
C          137.82842841371624        2.34038367383724       -2.49758696464066
C          136.86808930111374        1.63840331799982       -1.86077845116778
C          137.54588910792850        0.77319240901068       -0.91785445055165
N          138.88168291932593        0.93816639090053       -0.99919910798220
H          135.84252838445752       -1.92360644417879        1.96293117861411
H          137.77930499449209       -3.28105785213498        3.21034074647334
H          139.55413314547039       -0.63695886671931        0.43535707152525
H          139.19247849306271       -4.90663061802687        1.04076074666092
H          140.94572243656390       -4.90816179343297        0.84486637702337
H          140.10228940050683       -6.40990308930349        1.26618687576884
H          140.19729052772038       -7.04849716895367        3.51962881400754
H          140.12776008907991       -6.47876434923069        7.17468947948145
H          139.88067301622391       -7.67405020718892        5.88703963665952
H          141.51653567340301       -7.18012261071923        6.33656282119474
H          140.70486236838983       -4.15726175964343        6.63398093429101
H          139.86605133280631       -1.34532338222072        4.74803515768906
H          140.79546786836721       -1.86260756592950        6.16642426275009
H          141.62030296474114       -1.49643744235837        4.64139921148888
H          143.01217903012011       -3.54934575485798        2.87104070809143
H          144.92798523221134       -2.16449756680507        1.58461673255840
H          144.88302480617182        2.07801900782189       -1.69029796132255
H          142.94624201576184        3.42451558580855       -2.94943982890855
H          141.17309945104358        0.43772604174844       -0.54579474846305
H          140.61225272978308        1.72996224935098       -6.23833469233891
H          139.75109428799939        1.19484558577457       -4.78379909246081
H          141.50601967348953        1.37183243874144       -4.75103983930237
H          140.50669241372873        4.02680137478094       -6.69196512077150
H          139.87997940661091        6.34380237957912       -7.20698984670245
H          141.28383980149610        7.05684351519926       -6.40459371284622
H          139.65574247203782        7.53070122222656       -5.90754456921909
H          140.03091225037198        6.89815198335683       -3.55420830213364
H          140.88681859838755        4.79802731128428       -0.91151219712356
H          139.94092721483338        6.24489076817046       -1.30477006765006
H          139.13218262391482        4.68778289551876       -1.05542688588741
H          137.71697202299620        3.08410773033299       -3.27014180612733