      -----------------------------------------------------------      
     |                   =====================                   |     
     |                           x T B                           |     
     |                   =====================                   |     
     |                         S. Grimme                         |     
     |          Mulliken Center for Theoretical Chemistry        |     
     |                    University of Bonn                     |     
      -----------------------------------------------------------      

   * xtb version 6.5.1 (b24c23e) compiled by 'conda@728c89f4b128' on 2022-07-12

   xtb is free software: you can redistribute it and/or modify it under
   the terms of the GNU Lesser General Public License as published by
   the Free Software Foundation, either version 3 of the License, or
   (at your option) any later version.
   
   xtb is distributed in the hope that it will be useful,
   but WITHOUT ANY WARRANTY; without even the implied warranty of
   MERCHANTABILITY or FITNESS FOR A PARTICULAR PURPOSE.  See the
   GNU Lesser General Public License for more details.
   
   Cite this work as:
   * C. Bannwarth, E. Caldeweyher, S. Ehlert, A. Hansen, P. Pracht,
     J. Seibert, S. Spicher, S. Grimme, WIREs Comput. Mol. Sci., 2020, 11,
     e01493. DOI: 10.1002/wcms.1493
   
   for GFN2-xTB:
   * C. Bannwarth, S. Ehlert and S. Grimme., J. Chem. Theory Comput., 2019,
     15, 1652-1671. DOI: 10.1021/acs.jctc.8b01176
   for GFN1-xTB:
   * S. Grimme, C. Bannwarth, P. Shushkov, J. Chem. Theory Comput., 2017,
     13, 1989-2009. DOI: 10.1021/acs.jctc.7b00118
   for GFN0-xTB:
   * P. Pracht, E. Caldeweyher, S. Ehlert, S. Grimme, ChemRxiv, 2019, preprint.
     DOI: 10.26434/chemrxiv.8326202.v1
   for GFN-FF:
   * S. Spicher and S. Grimme, Angew. Chem. Int. Ed., 2020, 59, 15665-15673.
     DOI: 10.1002/anie.202004239
   
   for ALPB and GBSA implicit solvation:
   * S. Ehlert, M. Stahn, S. Spicher, S. Grimme, J. Chem. Theory Comput.,
     2021, 17, 4250-4261. DOI: 10.1021/acs.jctc.1c00471
   
   for DFT-D4:
   * E. Caldeweyher, C. Bannwarth and S. Grimme, J. Chem. Phys., 2017,
     147, 034112. DOI: 10.1063/1.4993215
   * E. Caldeweyher, S. Ehlert, A. Hansen, H. Neugebauer, S. Spicher,
     C. Bannwarth and S. Grimme, J. Chem. Phys., 2019, 150, 154122.
     DOI: 10.1063/1.5090222
   * E. Caldeweyher, J.-M. Mewes, S. Ehlert and S. Grimme, Phys. Chem. Chem. Phys.
     2020, 22, 8499-8512. DOI: 10.1039/D0CP00502A
   
   for sTDA-xTB:
   * S. Grimme and C. Bannwarth, J. Chem. Phys., 2016, 145, 054103.
     DOI: 10.1063/1.4959605
   
   in the mass-spec context:
   * V. Asgeirsson, C. Bauer and S. Grimme, Chem. Sci., 2017, 8, 4879.
     DOI: 10.1039/c7sc00601b
   * J. Koopman and S. Grimme, ACS Omega 2019, 4, 12, 15120-15133.
     DOI: 10.1021/acsomega.9b02011
   
   for metadynamics refer to:
   * S. Grimme, J. Chem. Theory Comput., 2019, 155, 2847-2862
     DOI: 10.1021/acs.jctc.9b00143
   
   for SPH calculations refer to:
   * S. Spicher and S. Grimme, J. Chem. Theory Comput., 2021, 17, 1701-1714
     DOI: 10.1021/acs.jctc.0c01306
   
   with help from (in alphabetical order)
   P. Atkinson, C. Bannwarth, F. Bohle, G. Brandenburg, E. Caldeweyher
   M. Checinski, S. Dohm, S. Ehlert, S. Ehrlich, I. Gerasimov, C. Hölzer
   A. Katbashev, J. Koopman, C. Lavigne, S. Lehtola, F. März, M. Müller,
   F. Musil, H. Neugebauer, J. Pisarek, C. Plett, P. Pracht, F. Pultar,
   J. Seibert, P. Shushkov, S. Spicher, M. Stahn, M. Steiner, T. Strunk,
   J. Stückrath, T. Rose, and J. Unsleber
   
 * started run on 2022/07/30 at 04:19:28.283     

           -------------------------------------------------
          |                Calculation Setup                |
           -------------------------------------------------

          program call               : xtb xtbopt.xyz --gfn 1 --vipea
          hostname                   : cx3-15-15.cx3.hpc.ic.ac.uk
          coordinate file            : xtbopt.xyz
          omp threads                :                     1

   ID    Z sym.   atoms
    1   28 Ni     1, 61, 127, 186
    2    6 C      2-6, 8-13, 15-19, 21-26, 28-33, 35-40, 62-66, 68-73, 75-79,
                  81-86, 88-93, 95-100, 121-126, 128-132, 134-139, 141-145,
                  147-152, 154-159, 161-166, 187-191, 193-198, 200-204,
                  206-211, 213-218, 220-225
    3    7 N      7, 20, 27, 41, 67, 80, 87, 101, 133, 146, 153, 167, 192,
                  205, 212, 226
    4    8 O      14, 34, 74, 94, 140, 160, 199, 219
    5    1 H      42-60, 102-120, 168-185, 227-244

           -------------------------------------------------
          |                 I P E A - x T B                 |
           -------------------------------------------------

        Reference                      10.1039/c7sc00601b
      * Hamiltonian:
        H0-scaling (s, p, d)           2.150000    2.300000    2.000000
        zeta-weighting                 0.000000
      * Dispersion:
        s8                             2.400000
        a1                             0.630000
        a2                             5.000000
        s9                             0.000000
      * Repulsion:
        kExp                           1.500000
        rExp                           1.000000
      * Coulomb:
        alpha                          1.000000
        third order                    atomic
        anisotropic                    false
      * Halogen bond correction:
        rad-scale                      1.300000
        damping                        0.440000


          ...................................................
          :                      SETUP                      :
          :.................................................:
          :  # basis functions                1018          :
          :  # atomic orbitals                1014          :
          :  # shells                          658          :
          :  # electrons                       810          :
          :  # halogen bonds                     0          :
          :  max. iterations                   250          :
          :  Hamiltonian                  GFN1-xTB          :
          :  restarted?                      false          :
          :  GBSA solvation                  false          :
          :  PC potential                    false          :
          :  electronic temp.          300.0000000     K    :
          :  accuracy                    1.0000000          :
          :  -> integral cutoff          0.2500000E+02      :
          :  -> integral neglect         0.1000000E-07      :
          :  -> SCF convergence          0.1000000E-05 Eh   :
          :  -> wf. convergence          0.2000000E-04 e    :
          :  Broyden damping             0.4000000          :
          ...................................................

 iter      E             dE          RMSdq      gap      omega  full diag
   1   -505.2190426 -0.505219E+03  0.103E+01    1.09       0.0  T
   2   -505.6730328 -0.453990E+00  0.634E+00    0.94       1.0  T
   3   -498.1106371  0.756240E+01  0.464E+00    0.69       1.0  T
   4   -506.7637449 -0.865311E+01  0.823E-01    1.50       1.0  T
   5   -507.1385570 -0.374812E+00  0.211E-01    1.25       1.0  T
   6   -507.1608455 -0.222884E-01  0.857E-02    1.30       1.0  T
   7   -507.1642220 -0.337650E-02  0.392E-02    1.28       1.0  T
   8   -507.1648480 -0.626050E-03  0.203E-02    1.28       1.0  T
   9   -507.1649110 -0.629579E-04  0.112E-02    1.28       1.0  T
  10   -507.1649587 -0.476996E-04  0.306E-03    1.28       2.1  T
  11   -507.1649618 -0.317079E-05  0.139E-03    1.28       4.6  T
  12   -507.1649628 -0.963050E-06  0.437E-04    1.28      14.6  T
  13   -507.1649629 -0.643732E-07  0.168E-04    1.28      38.0  T
  14   -507.1649629 -0.121526E-07  0.756E-05    1.28      84.7  T

   *** convergence criteria satisfied after 14 iterations ***

         #    Occupation            Energy/Eh            Energy/eV
      -------------------------------------------------------------
         1        2.0000           -1.0555422             -28.7228
       ...           ...                  ...                  ...
       399        2.0000           -0.3894473             -10.5974
       400        2.0000           -0.3892956             -10.5933
       401        2.0000           -0.3891511             -10.5893
       402        2.0000           -0.3891272             -10.5887
       403        2.0000           -0.3889773             -10.5846
       404        2.0000           -0.3882996             -10.5662
       405        2.0000           -0.3804205             -10.3518 (HOMO)
       406                         -0.3332575              -9.0684 (LUMO)
       407                         -0.3233095              -8.7977
       408                         -0.3174919              -8.6394
       409                         -0.3173040              -8.6343
       410                         -0.3151045              -8.5744
       ...                                ...                  ...
      1014                        555.5249904           15116.6044
      -------------------------------------------------------------
                  HL-Gap            0.0471630 Eh            1.2834 eV
             Fermi-level           -0.3568390 Eh           -9.7101 eV

 SCC (total)                   0 d,  0 h,  0 min,  8.077 sec
 SCC setup                      ...        0 min,  0.008 sec (  0.102%)
 Dispersion                     ...        0 min,  0.011 sec (  0.142%)
 classical contributions        ...        0 min,  0.004 sec (  0.049%)
 integral evaluation            ...        0 min,  0.799 sec (  9.896%)
 iterations                     ...        0 min,  5.424 sec ( 67.148%)
 molecular gradient             ...        0 min,  1.752 sec ( 21.693%)
 printout                       ...        0 min,  0.078 sec (  0.970%)

         :::::::::::::::::::::::::::::::::::::::::::::::::::::
         ::                     SUMMARY                     ::
         :::::::::::::::::::::::::::::::::::::::::::::::::::::
         :: total energy            -497.802573413455 Eh    ::
         :: gradient norm              0.073109384037 Eh/a0 ::
         :: HOMO-LUMO gap              1.283370144407 eV    ::
         ::.................................................::
         :: SCC energy              -507.164962869555 Eh    ::
         :: -> electrostatic           0.350398676683 Eh    ::
         :: repulsion energy           9.594080684608 Eh    ::
         :: dispersion energy         -0.231691228508 Eh    ::
         :: halogen bond corr.         0.000000000000 Eh    ::
         :: add. restraining           0.000000000000 Eh    ::
         :: total charge               0.000000000000 e     ::
         :::::::::::::::::::::::::::::::::::::::::::::::::::::

           ------------------------------------------------- 
          |        vertical delta SCC IP calculation        |
           ------------------------------------------------- 
   1   -506.7507892 -0.506751E+03  0.870E-02    1.28       0.0  T
   2   -506.7022212  0.485680E-01  0.326E-01    1.24       1.0  T
   3   -506.7460663 -0.438451E-01  0.152E-01    1.25       1.0  T
   4   -506.7541350 -0.806874E-02  0.815E-02    1.26       1.0  T
   5   -506.7563820 -0.224698E-02  0.504E-02    1.26       1.0  T
   6   -506.7569340 -0.552049E-03  0.453E-02    1.26       1.0  T
   7   -506.7588858 -0.195179E-02  0.255E-02    1.26       1.0  T
   8   -506.7589449 -0.590864E-04  0.158E-02    1.26       1.0  T
   9   -506.7589798 -0.349416E-04  0.133E-02    1.26       1.0  T
  10   -506.7590070 -0.271931E-04  0.110E-02    1.26       1.0  T
  11   -506.7590227 -0.157008E-04  0.875E-03    1.26       1.0  T
  12   -506.7590318 -0.903389E-05  0.729E-03    1.26       1.0  T
  13   -506.7590398 -0.798766E-05  0.575E-03    1.26       1.1  T
  14   -506.7590459 -0.613294E-05  0.410E-03    1.26       1.6  T
  15   -506.7590502 -0.430576E-05  0.249E-03    1.26       2.6  T
  16   -506.7590522 -0.202155E-05  0.111E-03    1.26       5.8  T
  17   -506.7590526 -0.422576E-06  0.420E-04    1.26      15.2  T
  18   -506.7590527 -0.662437E-07  0.108E-04    1.26      59.2  T
  19   -506.7590527 -0.355959E-08  0.438E-05    1.26     146.3  T
     SCC iter.                  ...        0 min,  7.326 sec
     gradient                   ...        0 min,  1.744 sec
------------------------------------------------------------------------
empirical IP shift (eV):    4.8455
delta SCC IP (eV):    6.1999
------------------------------------------------------------------------
           ------------------------------------------------- 
          |        vertical delta SCC EA calculation        |
           ------------------------------------------------- 
   1   -507.4419711 -0.507442E+03  0.155E-01    0.32       0.0  T
   2   -507.4574793 -0.155082E-01  0.141E-01    0.14       1.0  T
   3   -507.4686809 -0.112016E-01  0.783E-02    0.22       1.0  T
   4   -507.4665564  0.212449E-02  0.718E-02    0.20       1.0  T
   5   -507.4667978 -0.241406E-03  0.609E-02    0.21       1.0  T
   6   -507.4703505 -0.355264E-02  0.329E-02    0.20       1.0  T
   7   -507.4713942 -0.104376E-02  0.102E-02    0.19       1.0  T
   8   -507.4714575 -0.632972E-04  0.476E-03    0.19       1.3  T
   9   -507.4714654 -0.784262E-05  0.215E-03    0.19       3.0  T
  10   -507.4714673 -0.187331E-05  0.102E-03    0.19       6.3  T
  11   -507.4714675 -0.215636E-06  0.558E-04    0.19      11.5  T
  12   -507.4714676 -0.127320E-06  0.276E-04    0.19      23.2  T
  13   -507.4714676 -0.295574E-07  0.100E-04    0.19      63.8  T
  14   -507.4714676 -0.412348E-08  0.443E-05    0.19     144.4  T
     SCC iter.                  ...        0 min,  5.406 sec
     gradient                   ...        0 min,  1.758 sec
------------------------------------------------------------------------
empirical EA shift (eV):    4.8455
delta SCC EA (eV):    3.4949
------------------------------------------------------------------------
           -------------------------------------------------
          |                Property Printout                |
           -------------------------------------------------

    * Orbital Energies and Occupations

         #    Occupation            Energy/Eh            Energy/eV
      -------------------------------------------------------------
         1        2.0000           -1.0059861             -27.3743
       ...           ...                  ...                  ...
       394        2.0000           -0.3427008              -9.3254
       395        2.0000           -0.3425609              -9.3216
       396        2.0000           -0.3389267              -9.2227
       397        2.0000           -0.3386035              -9.2139
       398        2.0000           -0.3385752              -9.2131
       399        2.0000           -0.3368074              -9.1650
       400        2.0000           -0.3364295              -9.1547
       401        2.0000           -0.3361589              -9.1474
       402        2.0000           -0.3360598              -9.1447
       403        2.0000           -0.3357121              -9.1352
       404        2.0000           -0.3355959              -9.1320
       405        2.0000           -0.3278563              -8.9214
       406        0.9722           -0.2803800              -7.6295 (HOMO)
       407        0.0233           -0.2734531              -7.4410 (LUMO)
       408        0.0028           -0.2714090              -7.3854
       409        0.0018           -0.2709840              -7.3739
       410        0.0000           -0.2659602              -7.2371
       411        0.0000           -0.2659321              -7.2364
       412        0.0000           -0.2619679              -7.1285
       413                         -0.2550173              -6.9394
       414                         -0.2544865              -6.9249
       415                         -0.2499692              -6.8020
       416                         -0.2492265              -6.7818
       417                         -0.2491453              -6.7796
       ...                                ...                  ...
      1014                        555.5779546           15118.0456
      -------------------------------------------------------------
                  HL-Gap            0.0069269 Eh            0.1885 eV
             Fermi-level           -0.2905609 Eh           -7.9066 eV

  Mulliken/CM5 charges         n(s)   n(p)   n(d)
     1Ni    0.27547  0.65029   0.573  0.784  8.367
     2C    -0.02354 -0.06486   1.081  2.942  0.000
     3C     0.05914  0.11968   1.112  2.829  0.000
     4C    -0.03798 -0.08450   1.086  2.952  0.000
     5C    -0.03587 -0.08190   1.080  2.956  0.000
     6C     0.05922  0.12332   1.104  2.837  0.000
     7N    -0.21038 -0.46292   1.315  3.896  0.000
     8C     0.00986  0.01521   1.085  2.905  0.000
     9C     0.01735  0.00848   1.096  2.886  0.000
    10C    -0.01743 -0.07069   1.080  2.937  0.000
    11C    -0.01062 -0.06240   1.092  2.919  0.000
    12C    -0.00875 -0.01721   1.099  2.910  0.000
    13C     0.14473  0.13457   1.202  2.653  0.000
    14O    -0.30002 -0.35548   1.651  4.649  0.000
    15C    -0.01633 -0.06946   1.085  2.931  0.000
    16C    -0.01859 -0.07196   1.077  2.941  0.000
    17C     0.05860  0.12194   1.102  2.840  0.000
    18C    -0.03507 -0.08110   1.075  2.960  0.000
    19C    -0.03355 -0.07944   1.079  2.954  0.000
    20N    -0.20680 -0.45925   1.316  3.891  0.000
    21C     0.06346  0.12851   1.115  2.821  0.000
    22C     0.01738  0.02426   1.080  2.903  0.000
    23C     0.06330  0.12818   1.115  2.821  0.000
    24C    -0.03322 -0.07915   1.079  2.954  0.000
    25C    -0.03464 -0.08077   1.075  2.959  0.000
    26C     0.05892  0.12238   1.102  2.839  0.000
    27N    -0.20666 -0.45946   1.316  3.891  0.000
    28C     0.00933  0.01465   1.085  2.906  0.000
    29C     0.01686  0.00805   1.096  2.887  0.000
    30C    -0.01851 -0.07190   1.077  2.942  0.000
    31C    -0.01651 -0.06964   1.085  2.931  0.000
    32C    -0.00834 -0.01679   1.099  2.909  0.000
    33C     0.14488  0.13473   1.202  2.653  0.000
    34O    -0.29933 -0.35482   1.651  4.648  0.000
    35C    -0.01027 -0.06205   1.092  2.918  0.000
    36C    -0.01677 -0.06993   1.081  2.936  0.000
    37C     0.05938  0.12336   1.105  2.836  0.000
    38C    -0.03551 -0.08169   1.080  2.955  0.000
    39C    -0.03788 -0.08440   1.085  2.953  0.000
    40C     0.05926  0.11988   1.111  2.829  0.000
    41N    -0.21041 -0.46292   1.315  3.896  0.000
    42H     0.02462  0.08362   0.975  0.000  0.000
    43H     0.03018  0.08682   0.970  0.000  0.000
    44H     0.02227  0.08121   0.978  0.000  0.000
    45H     0.02660  0.08429   0.973  0.000  0.000
    46H     0.03941  0.09963   0.961  0.000  0.000
    47H     0.03852  0.10024   0.961  0.000  0.000
    48H     0.04153  0.09819   0.958  0.000  0.000
    49H     0.02578  0.08352   0.974  0.000  0.000
    50H     0.02408  0.08312   0.976  0.000  0.000
    51H     0.02180  0.08036   0.978  0.000  0.000
    52H     0.02180  0.08038   0.978  0.000  0.000
    53H     0.02374  0.08267   0.976  0.000  0.000
    54H     0.02558  0.08355   0.974  0.000  0.000
    55H     0.04122  0.09789   0.959  0.000  0.000
    56H     0.03833  0.10005   0.962  0.000  0.000
    57H     0.04024  0.10047   0.960  0.000  0.000
    58H     0.02750  0.08544   0.973  0.000  0.000
    59H     0.02173  0.08064   0.978  0.000  0.000
    60H     0.03026  0.08690   0.970  0.000  0.000
    61Ni    0.27443  0.63989   0.573  0.782  8.371
    62C    -0.02326 -0.06468   1.081  2.942  0.000
    63C     0.05944  0.12004   1.111  2.829  0.000
    64C    -0.03783 -0.08440   1.086  2.952  0.000
    65C    -0.03577 -0.08188   1.080  2.956  0.000
    66C     0.05955  0.12365   1.104  2.837  0.000
    67N    -0.21064 -0.46082   1.315  3.896  0.000
    68C     0.00954  0.01479   1.085  2.905  0.000
    69C     0.01722  0.00827   1.096  2.886  0.000
    70C    -0.01719 -0.07044   1.081  2.937  0.000
    71C    -0.01055 -0.06234   1.092  2.919  0.000
    72C    -0.00868 -0.01715   1.099  2.910  0.000
    73C     0.14466  0.13450   1.202  2.654  0.000
    74O    -0.29997 -0.35543   1.651  4.649  0.000
    75C    -0.01643 -0.06956   1.085  2.931  0.000
    76C    -0.01855 -0.07196   1.077  2.942  0.000
    77C     0.05899  0.12244   1.102  2.839  0.000
    78C    -0.03500 -0.08109   1.075  2.960  0.000
    79C    -0.03345 -0.07929   1.080  2.954  0.000
    80N    -0.20701 -0.45723   1.316  3.891  0.000
    81C     0.06375  0.12879   1.115  2.821  0.000
    82C     0.01767  0.02445   1.079  2.903  0.000
    83C     0.06379  0.12881   1.115  2.821  0.000
    84C    -0.03323 -0.07907   1.080  2.953  0.000
    85C    -0.03457 -0.08065   1.076  2.959  0.000
    86C     0.05923  0.12269   1.102  2.839  0.000
    87N    -0.20709 -0.45712   1.316  3.891  0.000
    88C     0.00980  0.01504   1.085  2.905  0.000
    89C     0.01712  0.00817   1.096  2.887  0.000
    90C    -0.01853 -0.07192   1.077  2.942  0.000
    91C    -0.01636 -0.06949   1.085  2.931  0.000
    92C    -0.00833 -0.01679   1.099  2.910  0.000
    93C     0.14504  0.13490   1.202  2.653  0.000
    94O    -0.29896 -0.35445   1.651  4.648  0.000
    95C    -0.01016 -0.06195   1.092  2.918  0.000
    96C    -0.01700 -0.07022   1.080  2.937  0.000
    97C     0.05962  0.12370   1.104  2.836  0.000
    98C    -0.03560 -0.08173   1.080  2.956  0.000
    99C    -0.03784 -0.08441   1.086  2.952  0.000
   100C     0.05947  0.12007   1.111  2.829  0.000
   101N    -0.21046 -0.46080   1.315  3.896  0.000
   102H     0.02455  0.08362   0.975  0.000  0.000
   103H     0.03048  0.08714   0.970  0.000  0.000
   104H     0.02224  0.08126   0.978  0.000  0.000
   105H     0.02692  0.08469   0.973  0.000  0.000
   106H     0.03962  0.09984   0.960  0.000  0.000
   107H     0.03841  0.10013   0.962  0.000  0.000
   108H     0.04144  0.09810   0.959  0.000  0.000
   109H     0.02588  0.08369   0.974  0.000  0.000
   110H     0.02379  0.08291   0.976  0.000  0.000
   111H     0.02208  0.08071   0.978  0.000  0.000
   112H     0.02236  0.08092   0.978  0.000  0.000
   113H     0.02431  0.08339   0.976  0.000  0.000
   114H     0.02556  0.08340   0.974  0.000  0.000
   115H     0.04132  0.09799   0.959  0.000  0.000
   116H     0.03853  0.10026   0.961  0.000  0.000
   117H     0.04033  0.10054   0.960  0.000  0.000
   118H     0.02759  0.08535   0.972  0.000  0.000
   119H     0.02229  0.08131   0.978  0.000  0.000
   120H     0.03046  0.08712   0.970  0.000  0.000
   121C    -0.02975 -0.03203   1.069  2.961  0.000
   122C    -0.02580 -0.02800   1.073  2.953  0.000
   123C    -0.02766 -0.02988   1.071  2.957  0.000
   124C    -0.02781 -0.03006   1.071  2.957  0.000
   125C    -0.02509 -0.02744   1.073  2.952  0.000
   126C    -0.02919 -0.03165   1.069  2.961  0.000
   127Ni    0.27474  0.65625   0.573  0.784  8.369
   128C     0.01275  0.01978   1.075  2.912  0.000
   129C     0.06271  0.12766   1.116  2.822  0.000
   130C    -0.03601 -0.08191   1.077  2.959  0.000
   131C    -0.03544 -0.08164   1.076  2.959  0.000
   132C     0.05682  0.12015   1.101  2.842  0.000
   133N    -0.20797 -0.46231   1.315  3.893  0.000
   134C     0.01105  0.01643   1.087  2.902  0.000
   135C     0.01723  0.00853   1.095  2.887  0.000
   136C    -0.01655 -0.06980   1.080  2.936  0.000
   137C    -0.01067 -0.06246   1.092  2.919  0.000
   138C    -0.00859 -0.01704   1.099  2.910  0.000
   139C     0.14463  0.13447   1.202  2.654  0.000
   140O    -0.30040 -0.35589   1.651  4.649  0.000
   141C    -0.01634 -0.06946   1.085  2.931  0.000
   142C    -0.01780 -0.07108   1.078  2.940  0.000
   143C     0.05715  0.12047   1.101  2.842  0.000
   144C    -0.03505 -0.08126   1.077  2.958  0.000
   145C    -0.03506 -0.08085   1.078  2.957  0.000
   146N    -0.20756 -0.46175   1.315  3.893  0.000
   147C     0.06310  0.12815   1.116  2.821  0.000
   148C     0.01435  0.02137   1.076  2.909  0.000
   149C     0.06308  0.12813   1.116  2.821  0.000
   150C    -0.03504 -0.08083   1.079  2.956  0.000
   151C    -0.03512 -0.08131   1.077  2.958  0.000
   152C     0.05716  0.12048   1.101  2.842  0.000
   153N    -0.20764 -0.46168   1.315  3.893  0.000
   154C     0.01127  0.01665   1.087  2.902  0.000
   155C     0.01725  0.00854   1.095  2.887  0.000
   156C    -0.01750 -0.07083   1.077  2.940  0.000
   157C    -0.01590 -0.06902   1.085  2.931  0.000
   158C    -0.00828 -0.01673   1.099  2.909  0.000
   159C     0.14496  0.13481   1.202  2.653  0.000
   160O    -0.30033 -0.35585   1.651  4.649  0.000
   161C    -0.01069 -0.06247   1.092  2.919  0.000
   162C    -0.01672 -0.06990   1.080  2.936  0.000
   163C     0.05703  0.12037   1.101  2.842  0.000
   164C    -0.03486 -0.08105   1.076  2.958  0.000
   165C    -0.03572 -0.08163   1.077  2.958  0.000
   166C     0.06276  0.12767   1.116  2.822  0.000
   167N    -0.20785 -0.46232   1.315  3.893  0.000
   168H     0.01806  0.07645   0.982  0.000  0.000
   169H     0.02051  0.07930   0.979  0.000  0.000
   170H     0.02719  0.08529   0.973  0.000  0.000
   171H     0.03934  0.09958   0.961  0.000  0.000
   172H     0.03825  0.09998   0.962  0.000  0.000
   173H     0.04149  0.09816   0.959  0.000  0.000
   174H     0.02573  0.08383   0.974  0.000  0.000
   175H     0.02077  0.07965   0.979  0.000  0.000
   176H     0.01937  0.07767   0.981  0.000  0.000
   177H     0.01974  0.07802   0.980  0.000  0.000
   178H     0.02104  0.07988   0.979  0.000  0.000
   179H     0.02639  0.08444   0.974  0.000  0.000
   180H     0.04206  0.09873   0.958  0.000  0.000
   181H     0.03873  0.10045   0.961  0.000  0.000
   182H     0.03890  0.09914   0.961  0.000  0.000
   183H     0.02637  0.08445   0.974  0.000  0.000
   184H     0.02141  0.08022   0.979  0.000  0.000
   185H     0.01896  0.07736   0.981  0.000  0.000
   186Ni    0.27410  0.65099   0.573  0.783  8.370
   187C     0.01460  0.02158   1.077  2.909  0.000
   188C     0.06319  0.12825   1.116  2.821  0.000
   189C    -0.03492 -0.08072   1.079  2.956  0.000
   190C    -0.03509 -0.08127   1.077  2.958  0.000
   191C     0.05734  0.12068   1.101  2.842  0.000
   192N    -0.20757 -0.46061   1.315  3.893  0.000
   193C     0.01129  0.01663   1.087  2.902  0.000
   194C     0.01727  0.00850   1.096  2.887  0.000
   195C    -0.01674 -0.06996   1.080  2.937  0.000
   196C    -0.01060 -0.06238   1.092  2.919  0.000
   197C    -0.00826 -0.01670   1.099  2.909  0.000
   198C     0.14504  0.13490   1.202  2.653  0.000
   199O    -0.29997 -0.35549   1.651  4.649  0.000
   200C    -0.01592 -0.06904   1.085  2.931  0.000
   201C    -0.01756 -0.07088   1.077  2.940  0.000
   202C     0.05722  0.12060   1.101  2.842  0.000
   203C    -0.03484 -0.08103   1.077  2.958  0.000
   204C    -0.03577 -0.08161   1.078  2.958  0.000
   205N    -0.20814 -0.46122   1.315  3.893  0.000
   206C     0.06290  0.12787   1.115  2.822  0.000
   207C     0.01277  0.01973   1.075  2.913  0.000
   208C     0.06287  0.12786   1.115  2.822  0.000
   209C    -0.03601 -0.08187   1.078  2.958  0.000
   210C    -0.03545 -0.08163   1.077  2.959  0.000
   211C     0.05701  0.12038   1.101  2.842  0.000
   212N    -0.20818 -0.46128   1.315  3.893  0.000
   213C     0.01102  0.01636   1.086  2.903  0.000
   214C     0.01736  0.00860   1.096  2.887  0.000
   215C    -0.01781 -0.07113   1.077  2.940  0.000
   216C    -0.01629 -0.06942   1.085  2.931  0.000
   217C    -0.00864 -0.01709   1.099  2.910  0.000
   218C     0.14459  0.13443   1.202  2.654  0.000
   219O    -0.30048 -0.35597   1.651  4.649  0.000
   220C    -0.01067 -0.06245   1.092  2.919  0.000
   221C    -0.01658 -0.06981   1.080  2.936  0.000
   222C     0.05730  0.12065   1.101  2.842  0.000
   223C    -0.03513 -0.08131   1.077  2.958  0.000
   224C    -0.03498 -0.08078   1.079  2.956  0.000
   225C     0.06317  0.12823   1.116  2.821  0.000
   226N    -0.20758 -0.46063   1.315  3.893  0.000
   227H     0.01984  0.07819   0.980  0.000  0.000
   228H     0.02129  0.08018   0.979  0.000  0.000
   229H     0.02656  0.08459   0.973  0.000  0.000
   230H     0.03913  0.09937   0.961  0.000  0.000
   231H     0.03875  0.10048   0.961  0.000  0.000
   232H     0.04202  0.09869   0.958  0.000  0.000
   233H     0.02630  0.08432   0.974  0.000  0.000
   234H     0.02148  0.08037   0.979  0.000  0.000
   235H     0.01912  0.07746   0.981  0.000  0.000
   236H     0.01801  0.07638   0.982  0.000  0.000
   237H     0.02050  0.07939   0.980  0.000  0.000
   238H     0.02599  0.08401   0.974  0.000  0.000
   239H     0.04158  0.09825   0.958  0.000  0.000
   240H     0.03819  0.09992   0.962  0.000  0.000
   241H     0.03930  0.09953   0.961  0.000  0.000
   242H     0.02722  0.08527   0.973  0.000  0.000
   243H     0.02098  0.07986   0.979  0.000  0.000
   244H     0.01956  0.07791   0.980  0.000  0.000

Wiberg/Mayer (AO) data.
largest (>0.10) Wiberg bond orders for each atom

 ---------------------------------------------------------------------------
     #   Z sym  total        # sym  WBO       # sym  WBO       # sym  WBO
 ---------------------------------------------------------------------------
     1  28 Ni   3.337 --    27 N    0.715    20 N    0.715     7 N    0.713
                            41 N    0.713
     2   6 C    3.805 --     3 C    1.391    40 C    1.389    42 H    0.996
     3   6 C    3.946 --     2 C    1.391     7 N    1.254     4 C    1.201
     4   6 C    3.846 --     5 C    1.642     3 C    1.201    43 H    0.993
     5   6 C    3.832 --     4 C    1.642     6 C    1.208    44 H    0.999
     6   6 C    3.915 --     8 C    1.369     7 N    1.249     5 C    1.208
     7   7 N    3.006 --     3 C    1.254     6 C    1.249     1 Ni   0.713
     8   6 C    3.835 --     6 C    1.369    17 C    1.365     9 C    1.048
     9   6 C    3.900 --    16 C    1.419    10 C    1.415     8 C    1.048
    10   6 C    3.873 --    11 C    1.471     9 C    1.415    45 H    0.989
    11   6 C    3.893 --    10 C    1.471    12 C    1.390    46 H    0.988
    12   6 C    3.938 --    11 C    1.390    15 C    1.385    13 C    1.082
    13   6 C    4.002 --    14 O    1.942    12 C    1.082    47 H    0.954
    14   8 O    2.066 --    13 C    1.942
    15   6 C    3.889 --    16 C    1.466    12 C    1.385    48 H    0.982
    16   6 C    3.866 --    15 C    1.466     9 C    1.419    49 H    0.988
    17   6 C    3.902 --     8 C    1.365    20 N    1.241    18 C    1.219
    18   6 C    3.816 --    19 C    1.621    17 C    1.219    50 H    0.998
    19   6 C    3.819 --    18 C    1.621    21 C    1.230    51 H    0.998
    20   7 N    3.020 --    21 C    1.279    17 C    1.241     1 Ni   0.715
    21   6 C    3.917 --    22 C    1.300    20 N    1.279    19 C    1.230
    22   6 C    3.828 --    23 C    1.302    21 C    1.300   121 C    1.211
    23   6 C    3.917 --    22 C    1.302    27 N    1.275    24 C    1.230
    24   6 C    3.818 --    25 C    1.620    23 C    1.230    52 H    0.998
    25   6 C    3.817 --    24 C    1.620    26 C    1.220    53 H    0.997
    26   6 C    3.903 --    28 C    1.360    27 N    1.245    25 C    1.220
    27   7 N    3.019 --    23 C    1.275    26 C    1.245     1 Ni   0.715
    28   6 C    3.835 --    37 C    1.369    26 C    1.360    29 C    1.056
    29   6 C    3.900 --    30 C    1.417    36 C    1.411    28 C    1.056
    30   6 C    3.864 --    31 C    1.467    29 C    1.417    54 H    0.988
    31   6 C    3.889 --    30 C    1.467    32 C    1.384    55 H    0.982
    32   6 C    3.937 --    35 C    1.389    31 C    1.384    33 C    1.081
    33   6 C    4.002 --    34 O    1.942    32 C    1.081    56 H    0.954
    34   8 O    2.066 --    33 C    1.942
    35   6 C    3.893 --    36 C    1.472    32 C    1.389    57 H    0.988
    36   6 C    3.872 --    35 C    1.472    29 C    1.411    58 H    0.988
    37   6 C    3.917 --    28 C    1.369    41 N    1.248    38 C    1.208
    38   6 C    3.833 --    39 C    1.641    37 C    1.208    59 H    0.998
    39   6 C    3.845 --    38 C    1.641    40 C    1.202    60 H    0.993
    40   6 C    3.946 --     2 C    1.389    41 N    1.255    39 C    1.202
    41   7 N    3.005 --    40 C    1.255    37 C    1.248     1 Ni   0.713
    42   1 H    1.038 --     2 C    0.996
    43   1 H    1.026 --     4 C    0.993
    44   1 H    1.042 --     5 C    0.999
    45   1 H    1.053 --    10 C    0.989
    46   1 H    1.043 --    11 C    0.988
    47   1 H    1.011 --    13 C    0.954
    48   1 H    1.022 --    15 C    0.982
    49   1 H    1.054 --    16 C    0.988
    50   1 H    1.041 --    18 C    0.998
    51   1 H    1.045 --    19 C    0.998
    52   1 H    1.046 --    24 C    0.998
    53   1 H    1.043 --    25 C    0.997
    54   1 H    1.054 --    30 C    0.988
    55   1 H    1.022 --    31 C    0.982
    56   1 H    1.011 --    33 C    0.954
    57   1 H    1.042 --    35 C    0.988
    58   1 H    1.052 --    36 C    0.988
    59   1 H    1.044 --    38 C    0.998
    60   1 H    1.026 --    39 C    0.993
    61  28 Ni   3.314 --    80 N    0.712    87 N    0.712   101 N    0.711
                            67 N    0.710
    62   6 C    3.805 --    63 C    1.391   100 C    1.391   102 H    0.996
    63   6 C    3.946 --    62 C    1.391    67 N    1.256    64 C    1.201
    64   6 C    3.846 --    65 C    1.642    63 C    1.201   103 H    0.993
    65   6 C    3.832 --    64 C    1.642    66 C    1.208   104 H    0.999
    66   6 C    3.916 --    68 C    1.370    67 N    1.250    65 C    1.208
    67   7 N    3.006 --    63 C    1.256    66 C    1.250    61 Ni   0.710
    68   6 C    3.835 --    66 C    1.370    77 C    1.364    69 C    1.050
    69   6 C    3.900 --    76 C    1.419    70 C    1.414    68 C    1.050
    70   6 C    3.873 --    71 C    1.471    69 C    1.414   105 H    0.989
    71   6 C    3.893 --    70 C    1.471    72 C    1.389   106 H    0.988
    72   6 C    3.938 --    71 C    1.389    75 C    1.384    73 C    1.082
    73   6 C    4.002 --    74 O    1.942    72 C    1.082   107 H    0.954
    74   8 O    2.066 --    73 C    1.942
    75   6 C    3.889 --    76 C    1.466    72 C    1.384   108 H    0.982
    76   6 C    3.865 --    75 C    1.466    69 C    1.419   109 H    0.988
    77   6 C    3.901 --    68 C    1.364    80 N    1.244    78 C    1.218
    78   6 C    3.817 --    79 C    1.622    77 C    1.218   110 H    0.998
    79   6 C    3.819 --    78 C    1.622    81 C    1.228   111 H    0.998
    80   7 N    3.021 --    81 C    1.278    77 C    1.244    61 Ni   0.712
    81   6 C    3.920 --    82 C    1.304    80 N    1.278    79 C    1.228
    82   6 C    3.828 --    83 C    1.305    81 C    1.304   126 C    1.204
    83   6 C    3.921 --    82 C    1.305    87 N    1.278    84 C    1.228
    84   6 C    3.821 --    85 C    1.623    83 C    1.228   112 H    0.998
    85   6 C    3.819 --    84 C    1.623    86 C    1.218   113 H    0.997
    86   6 C    3.902 --    88 C    1.365    87 N    1.244    85 C    1.218
    87   7 N    3.020 --    83 C    1.278    86 C    1.244    61 Ni   0.712
    88   6 C    3.836 --    97 C    1.369    86 C    1.365    89 C    1.050
    89   6 C    3.900 --    90 C    1.419    96 C    1.414    88 C    1.050
    90   6 C    3.865 --    91 C    1.466    89 C    1.419   114 H    0.988
    91   6 C    3.889 --    90 C    1.466    92 C    1.385   115 H    0.982
    92   6 C    3.938 --    95 C    1.390    91 C    1.385    93 C    1.081
    93   6 C    4.002 --    94 O    1.943    92 C    1.081   116 H    0.954
    94   8 O    2.067 --    93 C    1.943
    95   6 C    3.893 --    96 C    1.471    92 C    1.390   117 H    0.988
    96   6 C    3.873 --    95 C    1.471    89 C    1.414   118 H    0.988
    97   6 C    3.916 --    88 C    1.369   101 N    1.250    98 C    1.208
    98   6 C    3.832 --    99 C    1.641    97 C    1.208   119 H    0.999
    99   6 C    3.845 --    98 C    1.641   100 C    1.201   120 H    0.993
   100   6 C    3.946 --    62 C    1.391   101 N    1.256    99 C    1.201
   101   7 N    3.007 --   100 C    1.256    97 C    1.250    61 Ni   0.711
   102   1 H    1.039 --    62 C    0.996
   103   1 H    1.025 --    64 C    0.993
   104   1 H    1.043 --    65 C    0.999
   105   1 H    1.053 --    70 C    0.989
   106   1 H    1.043 --    71 C    0.988
   107   1 H    1.011 --    73 C    0.954
   108   1 H    1.022 --    75 C    0.982
   109   1 H    1.054 --    76 C    0.988
   110   1 H    1.042 --    78 C    0.998
   111   1 H    1.044 --    79 C    0.998
   112   1 H    1.044 --    84 C    0.998
   113   1 H    1.042 --    85 C    0.997
   114   1 H    1.054 --    90 C    0.988
   115   1 H    1.022 --    91 C    0.982
   116   1 H    1.011 --    93 C    0.954
   117   1 H    1.042 --    95 C    0.988
   118   1 H    1.052 --    96 C    0.988
   119   1 H    1.043 --    98 C    0.999
   120   1 H    1.025 --    99 C    0.993
   121   6 C    3.766 --   122 C    2.618    22 C    1.211
   122   6 C    3.769 --   121 C    2.618   128 C    1.213
   123   6 C    3.765 --   124 C    2.615   148 C    1.213
   124   6 C    3.765 --   123 C    2.615   187 C    1.212
   125   6 C    3.768 --   126 C    2.624   207 C    1.206
   126   6 C    3.765 --   125 C    2.624    82 C    1.204
   127  28 Ni   3.336 --   167 N    0.714   146 N    0.713   153 N    0.713
                           133 N    0.713
   128   6 C    3.814 --   166 C    1.296   129 C    1.296   122 C    1.213
   129   6 C    3.921 --   128 C    1.296   133 N    1.278   130 C    1.232
   130   6 C    3.812 --   131 C    1.617   129 C    1.232   168 H    0.998
   131   6 C    3.820 --   130 C    1.617   132 C    1.222   169 H    0.998
   132   6 C    3.902 --   134 C    1.363   133 N    1.238   131 C    1.222
   133   7 N    3.002 --   129 C    1.278   132 C    1.238   127 Ni   0.713
   134   6 C    3.832 --   143 C    1.363   132 C    1.363   135 C    1.062
   135   6 C    3.899 --   142 C    1.414   136 C    1.409   134 C    1.062
   136   6 C    3.867 --   137 C    1.473   135 C    1.409   170 H    0.989
   137   6 C    3.892 --   136 C    1.473   138 C    1.389   171 H    0.988
   138   6 C    3.936 --   137 C    1.389   141 C    1.383   139 C    1.082
   139   6 C    4.002 --   140 O    1.941   138 C    1.082   172 H    0.955
   140   8 O    2.065 --   139 C    1.941
   141   6 C    3.889 --   142 C    1.469   138 C    1.383   173 H    0.982
   142   6 C    3.862 --   141 C    1.469   135 C    1.414   174 H    0.988
   143   6 C    3.902 --   134 C    1.363   146 N    1.239   144 C    1.222
   144   6 C    3.821 --   145 C    1.617   143 C    1.222   175 H    0.998
   145   6 C    3.815 --   144 C    1.617   147 C    1.231   176 H    0.998
   146   7 N    3.004 --   147 C    1.279   143 C    1.239   127 Ni   0.713
   147   6 C    3.922 --   148 C    1.296   146 N    1.279   145 C    1.231
   148   6 C    3.815 --   149 C    1.297   147 C    1.296   123 C    1.213
   149   6 C    3.922 --   148 C    1.297   153 N    1.279   150 C    1.231
   150   6 C    3.817 --   151 C    1.617   149 C    1.231   177 H    0.998
   151   6 C    3.821 --   150 C    1.617   152 C    1.222   178 H    0.998
   152   6 C    3.901 --   154 C    1.364   153 N    1.238   151 C    1.222
   153   7 N    3.004 --   149 C    1.279   152 C    1.238   127 Ni   0.713
   154   6 C    3.832 --   152 C    1.364   163 C    1.363   155 C    1.061
   155   6 C    3.899 --   156 C    1.415   162 C    1.410   154 C    1.061
   156   6 C    3.864 --   157 C    1.468   155 C    1.415   179 H    0.988
   157   6 C    3.889 --   156 C    1.468   158 C    1.384   180 H    0.982
   158   6 C    3.937 --   161 C    1.389   157 C    1.384   159 C    1.081
   159   6 C    4.001 --   160 O    1.942   158 C    1.081   181 H    0.954
   160   8 O    2.065 --   159 C    1.942
   161   6 C    3.893 --   162 C    1.473   158 C    1.389   182 H    0.988
   162   6 C    3.870 --   161 C    1.473   155 C    1.410   183 H    0.989
   163   6 C    3.902 --   154 C    1.363   167 N    1.239   164 C    1.222
   164   6 C    3.820 --   165 C    1.617   163 C    1.222   184 H    0.998
   165   6 C    3.814 --   164 C    1.617   166 C    1.231   185 H    0.998
   166   6 C    3.921 --   128 C    1.296   167 N    1.278   165 C    1.231
   167   7 N    3.003 --   166 C    1.278   163 C    1.239   127 Ni   0.714
   168   1 H    1.043 --   130 C    0.998
   169   1 H    1.043 --   131 C    0.998
   170   1 H    1.051 --   136 C    0.989
   171   1 H    1.043 --   137 C    0.988
   172   1 H    1.011 --   139 C    0.955
   173   1 H    1.022 --   141 C    0.982
   174   1 H    1.054 --   142 C    0.988
   175   1 H    1.043 --   144 C    0.998
   176   1 H    1.046 --   145 C    0.998
   177   1 H    1.045 --   150 C    0.998
   178   1 H    1.043 --   151 C    0.998
   179   1 H    1.053 --   156 C    0.988
   180   1 H    1.022 --   157 C    0.982
   181   1 H    1.011 --   159 C    0.954
   182   1 H    1.043 --   161 C    0.988
   183   1 H    1.051 --   162 C    0.989
   184   1 H    1.043 --   164 C    0.998
   185   1 H    1.042 --   165 C    0.998
   186  28 Ni   3.326 --   192 N    0.713   226 N    0.712   205 N    0.712
                           212 N    0.712
   187   6 C    3.816 --   225 C    1.297   188 C    1.297   124 C    1.212
   188   6 C    3.922 --   187 C    1.297   192 N    1.280   189 C    1.231
   189   6 C    3.817 --   190 C    1.618   188 C    1.231   227 H    0.998
   190   6 C    3.821 --   189 C    1.618   191 C    1.222   228 H    0.998
   191   6 C    3.901 --   193 C    1.364   192 N    1.239   190 C    1.222
   192   7 N    3.005 --   188 C    1.280   191 C    1.239   186 Ni   0.713
   193   6 C    3.833 --   202 C    1.365   191 C    1.364   194 C    1.059
   194   6 C    3.899 --   201 C    1.416   195 C    1.411   193 C    1.059
   195   6 C    3.870 --   196 C    1.472   194 C    1.411   229 H    0.989
   196   6 C    3.893 --   195 C    1.472   197 C    1.389   230 H    0.988
   197   6 C    3.937 --   196 C    1.389   200 C    1.384   198 C    1.081
   198   6 C    4.001 --   199 O    1.942   197 C    1.081   231 H    0.954
   199   8 O    2.066 --   198 C    1.942
   200   6 C    3.889 --   201 C    1.468   197 C    1.384   232 H    0.982
   201   6 C    3.864 --   200 C    1.468   194 C    1.416   233 H    0.988
   202   6 C    3.902 --   193 C    1.365   205 N    1.239   203 C    1.221
   203   6 C    3.821 --   204 C    1.619   202 C    1.221   234 H    0.998
   204   6 C    3.816 --   203 C    1.619   206 C    1.230   235 H    0.998
   205   7 N    3.004 --   206 C    1.278   202 C    1.239   186 Ni   0.712
   206   6 C    3.923 --   207 C    1.300   205 N    1.278   204 C    1.230
   207   6 C    3.814 --   206 C    1.300   208 C    1.299   125 C    1.206
   208   6 C    3.922 --   207 C    1.299   212 N    1.279   209 C    1.230
   209   6 C    3.815 --   210 C    1.618   208 C    1.230   236 H    0.998
   210   6 C    3.821 --   209 C    1.618   211 C    1.221   237 H    0.998
   211   6 C    3.902 --   213 C    1.365   212 N    1.239   210 C    1.221
   212   7 N    3.003 --   208 C    1.279   211 C    1.239   186 Ni   0.712
   213   6 C    3.832 --   211 C    1.365   222 C    1.364   214 C    1.060
   214   6 C    3.899 --   215 C    1.415   221 C    1.411   213 C    1.060
   215   6 C    3.864 --   216 C    1.468   214 C    1.415   238 H    0.988
   216   6 C    3.889 --   215 C    1.468   217 C    1.384   239 H    0.982
   217   6 C    3.937 --   220 C    1.389   216 C    1.384   218 C    1.082
   218   6 C    4.002 --   219 O    1.941   217 C    1.082   240 H    0.955
   219   8 O    2.065 --   218 C    1.941
   220   6 C    3.893 --   221 C    1.473   217 C    1.389   241 H    0.988
   221   6 C    3.870 --   220 C    1.473   214 C    1.411   242 H    0.989
   222   6 C    3.901 --   213 C    1.364   226 N    1.239   223 C    1.222
   223   6 C    3.821 --   224 C    1.618   222 C    1.222   243 H    0.998
   224   6 C    3.817 --   223 C    1.618   225 C    1.231   244 H    0.999
   225   6 C    3.922 --   187 C    1.297   226 N    1.280   224 C    1.231
   226   7 N    3.005 --   225 C    1.280   222 C    1.239   186 Ni   0.712
   227   1 H    1.046 --   189 C    0.998
   228   1 H    1.042 --   190 C    0.998
   229   1 H    1.052 --   195 C    0.989
   230   1 H    1.043 --   196 C    0.988
   231   1 H    1.011 --   198 C    0.954
   232   1 H    1.022 --   200 C    0.982
   233   1 H    1.054 --   201 C    0.988
   234   1 H    1.043 --   203 C    0.998
   235   1 H    1.045 --   204 C    0.998
   236   1 H    1.046 --   209 C    0.998
   237   1 H    1.043 --   210 C    0.998
   238   1 H    1.054 --   215 C    0.988
   239   1 H    1.022 --   216 C    0.982
   240   1 H    1.011 --   218 C    0.955
   241   1 H    1.043 --   220 C    0.988
   242   1 H    1.051 --   221 C    0.989
   243   1 H    1.043 --   223 C    0.998
   244   1 H    1.045 --   224 C    0.999
 ---------------------------------------------------------------------------

Topologies differ in total number of bonds
Writing topology from bond orders to xtbtopo.mol

 dipole moment from electron density (au)
     X       Y       Z   
-128.7322  -0.3783  -0.8809  total (Debye):  327.214


           -------------------------------------------------
          | TOTAL ENERGY             -498.109078174853 Eh   |
          | GRADIENT NORM               0.085089633858 Eh/α |
          | HOMO-LUMO GAP               0.188490289696 eV   |
           -------------------------------------------------
########################################################################
[WARNING] Runtime exception occurred
-1- restart_readRestart: Dimension missmatch in restart file.
########################################################################

------------------------------------------------------------------------
 * finished run on 2022/07/30 at 04:19:55.170     
------------------------------------------------------------------------
 total:
 * wall-time:     0 d,  0 h,  0 min, 26.887 sec
 *  cpu-time:     0 d,  0 h,  0 min, 26.768 sec
 * ratio c/w:     0.996 speedup
 SCF:
 * wall-time:     0 d,  0 h,  0 min, 26.117 sec
 *  cpu-time:     0 d,  0 h,  0 min, 26.004 sec
 * ratio c/w:     0.996 speedup

