560
 energy: -862.158604168916 gnorm: 0.000372618575 xtb: 6.5.1 (b24c23e)
C          111.12811375274245        0.04733511943717        0.01517029773105
C          111.73644886778047        1.25629251477302        0.32695988419392
C          111.08627063038531        2.47291986422608        0.67710232503611
C          112.04964032199030        3.41538285338280        0.90306775753849
C          113.31958816144879        2.80806730036528        0.68652490207549
N          113.07963639960013        1.50561862762975        0.35062817582863
C          114.58185936646956        3.39940861069464        0.80393073288458
C          115.79870213869393        2.74256531408539        0.60633967413216
C          117.09123771284614        3.40049478751984        0.67310371588532
C          118.01730503705993        2.44898345833467        0.43446837653529
N          115.96120897905642        1.42303549510646        0.31352858857734
C          117.29036326193412        1.21375795623296        0.21433897599097
C          117.93213962905038       -0.01586464239052       -0.03206743976661
C          117.29826666693525       -1.25054014584228       -0.26465042552013
C          117.94031585244620       -2.49520470914960       -0.49917183644106
C          116.97216237373250       -3.43692550629494       -0.71376670336443
C          115.70704042157972       -2.79276131159016       -0.62754342514709
C          114.44614109437400       -3.37738886010628       -0.78605270087556
C          114.41783138448559       -4.81974094416700       -1.13376278821303
C          113.81590602383260       -5.73961894877383       -0.27601484545002
C          113.78747136871455       -7.09202465375489       -0.59802016466754
C          113.12495068687718       -8.07979128975003        0.32401803227973
C          114.36083364704700       -7.52157395103283       -1.79147647845884
C          114.96440855733765       -6.61591823971361       -2.65847637989697
C          115.56105565461603       -7.08662852704931       -3.95743548521058
C          114.99196189080280       -5.26637308205488       -2.32317468618211
C          113.22759126466059       -2.70525862217110       -0.65026706301302
C          111.92688935366806       -3.31882089591532       -0.86935182398156
C          111.00795544907028       -2.35876179497022       -0.64188038081051
C          111.74622840808856       -1.15705510457710       -0.29545462676604
N          113.07938383498382       -1.40044266788424       -0.31872812923212
N          115.95589445561244       -1.47603111032715       -0.34283953875750
C          114.61213139743492        4.83697038979132        1.17285537574535
C          115.21813921324595        5.24088227076998        2.36099564942203
C          115.24380419816512        6.58469253106708        2.72086900391403
C          115.91140118144278        7.00788498611422        4.00145821948444
C          114.66233674739496        7.52664053459467        1.87880603636623
C          114.05421442133240        7.13915018338819        0.68763855436600
C          113.44803891961728        8.17151272332884       -0.22431653589565
C          114.03033148206067        5.79308817530997        0.34073798219682
H          110.04277540099332        0.05318115390188        0.01834498387545
H          110.01737883446108        2.59575010579070        0.75024127326247
H          111.90032219996876        4.44073468949383        1.20037485647432
H          113.80291860492981        0.82231228919210        0.15295198471485
H          117.24627415335922        4.45000737683719        0.86425457004485
H          119.09025110209095        2.54976296652271        0.40465096043566
H          119.00808605899783       -2.64348418886491       -0.50160524870952
H          117.11772584142022       -4.48699341969724       -0.90840351025123
H          113.38487635226004       -5.39465539448322        0.65743425198933
H          112.08994560547394       -8.24017202735257        0.01342175659053
H          113.63894604872988       -9.04098009752332        0.29661346013969
H          113.11874533996931       -7.71125330117493        1.34987227175253
H          114.33931715840534       -8.57598045792346       -2.04729441397121
H          116.38236773387428       -6.43904233086516       -4.26502757139338
H          115.93066531497415       -8.10834913125072       -3.86777291881617
H          114.80152483064488       -7.06788450333084       -4.74244466234367
H          115.44778006437811       -4.54960839757256       -2.99760715728511
H          111.76474233254382       -4.34213275107014       -1.16770878250557
H          109.93280916882971       -2.42437097312144       -0.70300345266577
H          115.23588960634355       -0.77300686707199       -0.21258038794003
H          115.65592431220827        4.49584035179220        3.01628076147395
H          115.70112994491662        6.29530281280534        4.79975908465766
H          115.57123553706957        7.99589003952505        4.31153665231319
H          116.99390992029100        7.04680472905555        3.86057478740341
H          114.67965934812325        8.57623945602014        2.15390722828012
H          113.00139275294586        8.98248116963595        0.35170216818490
H          114.22122156509026        8.59875852567892       -0.86698954360986
H          112.68301269194215        7.72755525560239       -0.86142533121203
H          113.57134689341603        5.48109110532156       -0.59112957162404
C          194.38084473983864       -0.05634348812253       -0.04618066727630
C          193.77850971896729       -1.27752068262538       -0.31963903864864
C          194.43516141167024       -2.51576319323077       -0.56676643240507
C          193.47676156271365       -3.46152415723032       -0.80001052020553
C          192.20348599331854       -2.82945121207899       -0.71235066643683
N          192.43651515274058       -1.51716872538326       -0.41168431922782
C          190.94440291125215       -3.41511010398629       -0.88141165072185
C          189.72393393347150       -2.74859717897779       -0.74901882799278
C          188.43507000281991       -3.36725342011749       -1.00132515967267
C          187.50438102020189       -2.41725100338527       -0.77483087669397
N          189.55470695228323       -1.44475369589546       -0.39555531301910
C          188.22454053907782       -1.21909194859985       -0.39003096524940
C          187.57693166300649       -0.00836977324173       -0.07419784376979
C          188.20510775769944        1.20952839736191        0.24577554145649
C          187.55732796588597        2.41925651254908        0.61057601150463
C          188.52065374828769        3.36079313908989        0.84650638450396
C          189.78869885675030        2.75543476608719        0.62652654061142
C          191.04704856187104        3.35108225986173        0.76436693580661
C          191.06797678141547        4.79016979646312        1.12483189763421
C          191.66573035738836        5.20885512335272        2.31307402165576
C          191.68376566088671        6.55553684679759        2.65884398364712
C          192.34096132185661        7.00441805990274        3.93609359378952
C          191.10377772896823        7.48749559491790        1.80296195500944
C          190.50436117883078        7.08586100326889        0.61309070218755
C          189.89934507326814        8.10397330382727       -0.31553936590135
C          190.48772555914221        5.73563933464326        0.28015031178331
C          192.26874113137890        2.69367179049035        0.58970539449794
C          193.56712594858598        3.34284692313358        0.68480674706322
C          194.49036144772850        2.38627481623245        0.45997189528436
C          193.75717816318033        1.15628620985775        0.21774187892876
N          192.42270079247933        1.38079853731096        0.29461690212657
N          189.54623235446059        1.45402492895562        0.27381964957370
C          190.92277994587695       -4.85717978086414       -1.23247243829578
C          190.31812076078458       -5.77816954355008       -0.37912080764783
C          190.30028618004172       -7.13237873623026       -0.69834515054926
C          189.63394266517435       -8.11483793389078        0.22658886716912
C          190.88802679911691       -7.56098654697570       -1.88386218332329
C          191.49480597491120       -6.65308405757554       -2.74768336267017
C          192.10748654500702       -7.12696724956150       -4.03801382560071
C          191.51090247460152       -5.30311070680347       -2.41595694156867
H          195.46619046645378       -0.05899328709635       -0.04099612830940
H          195.50480241354245       -2.65276960190453       -0.55870873082054
H          193.63151217956147       -4.50795554982738       -1.00756351196424
H          191.70952704342824       -0.82339149351731       -0.27275726031411
H          188.28538778265732       -4.38487105225273       -1.32394099853760
H          186.43305563613919       -2.49251612086497       -0.86808156690853
H          186.48953962707915        2.54240901581582        0.69241419521200
H          188.36989655651109        4.38159899324913        1.15777313054903
H          192.10081276411481        4.47171890233632        2.97899548540899
H          193.37332462597010        7.30132525911703        3.73735180560509
H          191.81827810151165        7.86204770023791        4.36048333205961
H          192.35424414729758        6.19941734357298        4.67095032905376
H          191.11625179603965        8.53961731833609        2.06857417077774
H          189.09687180847374        7.66247907835344       -0.90682461591823
H          189.50170142468730        8.95137746966195        0.24343148600738
H          190.66162487800213        8.47835640806831       -1.00272467673092
H          190.03517850273929        5.41257221890324       -0.65110770354005
H          193.72503324074393        4.39068378569723        0.88380639922302
H          195.56548023176609        2.47498619783335        0.44491258744384
H          190.27000016682703        0.77076297624523        0.07662530399459
H          189.87526355321381       -5.43422186229831        0.54916785301193
H          189.83773089883488       -7.86354274263106        1.26802012392723
H          189.98099137981575       -9.12997123260033        0.03396117813441
H          188.55197067242187       -8.08886721323171        0.07875065544648
H          190.87648816658154       -8.61587624710358       -2.13823866388014
H          192.54357203490071       -8.11915607394863       -3.91856482526383
H          191.34030889535498       -7.18535298290687       -4.81353822479102
H          192.88204502806943       -6.43894424214639       -4.37715916939838
H          191.96852714328858       -4.58503609983243       -3.08778863717091
C          119.34210332552040       -0.02641817182873       -0.04783946032851
C          120.55887827630654       -0.03461502273946       -0.06671217386553
C          130.26185988426832       -0.06854617825605       -0.09699225667216
C          131.48055302384566       -0.06823572354245       -0.09564735772265
C          141.19640611375448       -0.04488821652968       -0.06673622376023
C          142.41537210382037       -0.04063916125029       -0.06814601998930
C          152.14041334761134       -0.02436858245904       -0.07508388648872
C          153.35945300678404       -0.02079587649734       -0.07511561981904
C          163.08434708506670       -0.01177669719910       -0.08065226933829
C          164.30332967994244       -0.00962306466513       -0.08225838950455
C          174.02193986470070        0.00792260099543       -0.08200243786694
C          175.24081777047974        0.01211428071580       -0.08057519333427
C          184.94967201068479        0.00500767207150       -0.07137229291496
C          186.16672556503968       -0.00076802254658       -0.07511321392965
C          121.96794006736449       -0.04292243666373       -0.08071261117152
C          122.59295259204700       -1.23087480894594        0.34223402769805
C          121.94973013503336       -2.39612327617177        0.83276495052657
C          122.91572908765625       -3.32272415056157        1.11735299303852
C          124.17805564308711       -2.75164681891807        0.80035847864208
N          123.93307065824197       -1.48215777328653        0.34976536019983
C          125.43521283803697       -3.35800763680553        0.91536510493660
C          126.66033113601095       -2.74760299854609        0.64257105526939
C          127.93260221877487       -3.44523018099886        0.67842568139430
C          128.87913959272942       -2.52786850045316        0.38980901597363
N          126.85422113241719       -1.44035006162005        0.31192581152857
C          128.18578351342933       -1.27379067356695        0.17767186317833
C          128.85476498828132       -0.06336304046038       -0.09990218379485
C          128.22582448356053        1.16537842613393       -0.38397202665014
C          128.86445696905739        2.41073356209976       -0.61212105892536
C          127.89766567125503        3.33528477713170       -0.89997863731425
C          126.63784528659647        2.67926148123559       -0.85772355551087
C          125.38251742790597        3.24757203625436       -1.10806636454425
C          125.37852165695786        4.66389675239202       -1.55169310071708
C          124.72014371116983        5.63704711359313       -0.79993070897556
C          124.71003937832012        6.96353262283656       -1.21526415451276
C          124.01508201998855        8.01502038667792       -0.39300650201226
C          125.36416695310494        7.31528962797057       -2.39309052744697
C          126.02400772165103        6.35660895878602       -3.15491092340355
C          126.74103337343860        6.74528251764648       -4.41973875386387
C          126.03073327020162        5.03270279818422       -2.72731201743924
C          124.15465265882125        2.59689859371994       -0.97652479766669
C          122.87806128064250        3.20244755206563       -1.31125794198896
C          121.93152687087705        2.28753414328764       -1.01554581516436
C          122.63078865977836        1.12248786209481       -0.51175717183811
N          123.96397756860280        1.32956726465754       -0.51733756554525
N          126.88559794314352        1.37431100953076       -0.52365497000801
C          125.44649253257562       -4.76974942098183        1.37343939433113
C          124.79340703703487       -5.75826260839262        0.63880429124155
C          124.80079453459025       -7.08087616312317        1.07018765867698
C          124.07992211389990       -8.13803510486584        0.27785710742575
C          125.46281293163652       -7.41021326121779        2.24861974619796
C          126.12023412168834       -6.43482902687916        2.99331524858201
C          126.81647894265677       -6.80003433977091        4.27650151690797
C          126.10948435200399       -5.11713404362740        2.55039844973409
H          120.88452358596982       -2.50180671802474        0.96004414735943
H          122.76840939149358       -4.31086890508604        1.52158757894500
H          124.65022190859570       -0.82046588715427        0.07224708001640
H          128.06108477807862       -4.49673200821035        0.87818781076008
H          129.94463000821119       -2.66732464574331        0.30700046097263
H          129.92721455662573        2.57619001678295       -0.55090330203604
H          128.04208673090952        4.38238742373330       -1.11033559074892
H          124.22500313970949        5.35301119161862        0.12211489294821
H          124.74230961958851        8.54101973960881        0.22968048990227
H          123.52821963626235        8.74880474781278       -1.03619838569244
H          123.26684057088141        7.56691669654789        0.26073507436367
H          125.35521733068641        8.34940435124243       -2.72203638811940
H          126.67620580940769        5.94916320628006       -5.16190248217520
H          127.79752077058257        6.92443281400983       -4.20714483877541
H          126.31944203036124        7.65742363369778       -4.84220536856967
H          126.52765893661559        4.27422873431644       -3.32247033875471
H          122.74608016443450        4.18701679231328       -1.72976709997503
H          120.86269026888110        2.36468799201428       -1.13375507099535
H          126.17037140201477        0.66643202758914       -0.39545238750847
H          124.29452063453884       -5.49366525095214       -0.28720927063785
H          124.50933217025262       -9.12305003722235        0.46114832510003
H          124.12992826194666       -7.92359178818246       -0.78998765730975
H          123.02720658385917       -8.16572751174675        0.56866365915299
H          125.47036422553316       -8.44032970269466        2.58988241654809
H          127.61608349454927       -6.09363814549911        4.49988198490334
H          127.23783192272420       -7.80387788820130        4.21685803594916
H          126.10362223538887       -6.78038641046912        5.10407700224622
H          126.60720006621344       -4.34614154768973        3.12827934687780
C          132.88722584778358       -0.07011544823713       -0.09203251186668
C          133.52305009042448       -1.19440853207950        0.47188651447442
C          132.89683283537994       -2.30011004598738        1.10025459683889
C          133.87088902165888       -3.19870777698343        1.44276937383889
C          135.12195829860102       -2.66789334565889        1.02806553905644
N          134.86346618502253       -1.44465154413695        0.46971759000327
C          136.37830638757947       -3.27852760076137        1.13630305881935
C          137.59849591371321       -2.69589176973253        0.78991697562293
C          138.86644375645056       -3.40182913352095        0.81550139741680
C          139.81211851010488       -2.50068372778374        0.47629171772148
N          137.79271957052671       -1.40298294492356        0.40718571634630
C          139.12228606324410       -1.24916532145166        0.24159419722598
C          139.78995649547008       -0.04590982110832       -0.06990144976439
C          139.15220873858203        1.17015982950834       -0.38868876174489
C          139.77652077389283        2.41857835580654       -0.63627758024305
C          138.80236573449781        3.31845495874128       -0.97499673742367
C          137.55312532455855        2.64200183698159       -0.94918545905020
C          136.29789317213022        3.16919845369341       -1.27906353604046
C          136.27935848424784        4.56372900631719       -1.78476768252139
C          135.54076783395610        5.54134894831368       -1.11732536560200
C          135.51605070928437        6.85022915266478       -1.58395580129284
C          134.73450459621898        7.90657205165737       -0.85042848013847
C          136.23647862234091        7.18032832508480       -2.72902158031297
C          136.97533635711167        6.21703434801731       -3.40783905490585
C          137.76253284067039        6.58184613259118       -4.63753901956651
C          136.99549891235608        4.91065895049897       -2.92938790868183
C          135.07938452440791        2.49670953228124       -1.17085834452740
C          133.81407495822054        3.03985590651751       -1.62979847207522
C          132.86847365473676        2.13464007037376       -1.30132804447517
C          133.55596144915273        1.04142288014626       -0.64603864439148
N          134.88460497577836        1.27088073213167       -0.61022633882381
N          137.81267598369564        1.35333429139717       -0.56513648557786
C          136.39348475931834       -4.66537140175808        1.66310958606731
C          135.68574805542289       -5.67461870866367        1.01173998138118
C          135.70222494424914       -6.97796241831026        1.49821424938576
C          134.92444209590508       -8.05590777682386        0.79249059246463
C          136.42896622408401       -7.26697691533365        2.64848424014823
C          137.14020911178162       -6.27029838775308        3.31152962401806
C          137.90800414274321       -6.59349245285245        4.56483717429205
C          137.11912338127161       -4.97242385037306        2.81440647967436
H          131.83756423808438       -2.38778153832180        1.27622847925693
H          133.73621071513560       -4.14084168813933        1.94850380848923
H          135.57058977012210       -0.81465687794142        0.10629631462331
H          138.99300509782961       -4.44780824288289        1.04344332563313
H          140.87431186484457       -2.65056760728603        0.37216073416809
H          140.83462099004453        2.60334931114040       -0.55309086921772
H          138.93571324666644        4.36153497699834       -1.21104639877777
H          134.99426655854333        5.27462736327133       -0.21940444095961
H          135.39970740372252        8.47332898158733       -0.19501912673306
H          134.27611166405791        8.60477001161756       -1.55151728056934
H          133.95306499138758        7.45758086695408       -0.23736339089084
H          136.21724664415279        8.20075370555915       -3.09782796398386
H          137.74403179355133        5.76885957065980       -5.36394585413258
H          138.80427397607573        6.77107442478678       -4.36853176924773
H          137.36215757341162        7.48184398654289       -5.10425672688841
H          137.55359724584008        4.14817645543493       -3.46188101170195
H          133.68940982550691        3.97622520916615       -2.14914666831787
H          131.80819347266382        2.17396995287639       -1.49065771671767
H          137.10656947590169        0.63750208264973       -0.43095980646025
H          135.13718052027639       -5.44253410772975        0.10530417332908
H          135.32104627638739       -9.04283387095471        1.03078797360070
H          134.95834997131621       -7.91283558068352       -0.28796180801012
H          133.87815983623665       -8.02358640879498        1.10494709345908
H          136.44569626476621       -8.28199187465473        3.03206006607221
H          138.70692809511607       -5.87040918283454        4.72926467705674
H          138.34177255019665       -7.59218064594989        4.50605206225288
H          137.23920590171869       -6.56527095543815        5.42811500168483
H          137.65840518793925       -4.18504445998304        3.32944221218201
C          143.82173507789935       -0.04105648086707       -0.06927404713032
C          144.46076832061920       -1.16793333420043        0.48649153124772
C          143.83842925221487       -2.27682336562307        1.11278514332384
C          144.81476480214417       -3.17636328639802        1.44621121667832
C          146.06341962988841       -2.64300486816014        1.02749292030468
N          145.80128185536060       -1.41735542333610        0.47604314815698
C          147.32005465874778       -3.25438010937130        1.12717725746492
C          148.53986666677588       -2.67289329552891        0.77778972054762
C          149.80634543445981       -3.38176969351997        0.79675367541191
C          150.75313254909256       -2.48130483362679        0.45875783261745
N          148.73580750998084       -1.37901007133005        0.39963072519471
C          150.06530719426411       -1.22748786482863        0.23106149156587
C          150.73399484811665       -0.02390956091582       -0.07699176499490
C          150.09503371116261        1.19310734133251       -0.38972444437077
C          150.71736115390675        2.44252823576583       -0.63643338821065
C          149.74088350749673        3.34269040351564       -0.96777823663061
C          148.49207155978860        2.66548050720716       -0.93788504729279
C          147.23529919892420        3.19466859427641       -1.25953422468551
C          147.21844291615935        4.59033910585061       -1.76257064507315
C          146.48963079898766        5.57060028341985       -1.08849793842092
C          146.46924926897316        6.88052085892051       -1.55259726146803
C          145.69883356642305        7.93985831952360       -0.81166185042000
C          147.18417071619419        7.20887553427715       -2.70158747246083
C          147.91317421751887        6.24278212662861       -3.38709267650894
C          148.69542526283115        6.60550099411255       -4.62054690451984
C          147.92886460011692        4.93544267948261       -2.91132726136066
C          146.01551468898836        2.52546583335320       -1.14674323102235
C          144.74915820291460        3.07509005255097       -1.59520987173432
C          143.80241797518192        2.17145224399953       -1.26554425864570
C          144.49012708092803        1.07245631479432       -0.62042221122896
N          145.81962964529401        1.29751894472171       -0.59077444031390
N          148.75441027215905        1.37587126492231       -0.55930057305003
C          147.33640720925325       -4.64212756584131        1.65174018118390
C          146.62810260670977       -5.65100697996989        1.00063675373876
C          146.64469392148445       -6.95436607710553        1.48709817312689
C          145.86580978755876       -8.03188436621724        0.78197447567920
C          147.37198057976056       -7.24352172913806        2.63700671536559
C          148.08409075818764       -6.24708563532286        3.29950627903771
C          148.85233784501992       -6.56986557764257        4.55261813254228
C          148.06310885544005       -4.94930768460117        2.80226462601405
H          142.78015746430151       -2.36599358521981        1.29369490160853
H          144.68313396135486       -4.12094016709356        1.94815395478877
H          146.50546478438235       -0.78468375603106        0.11155194994968
H          149.93113801299631       -4.42897689545369        1.01998152825292
H          151.81473105936669       -2.63294977245315        0.35096193219603
H          151.77576021920490        2.62777021500848       -0.55810357391935
H          149.87256762138421        4.38657365249740       -1.20115077965714
H          145.94774037486900        5.30531744421004       -0.18736568550416
H          146.37134968238342        8.49975961993032       -0.15781865582055
H          145.24175386381560        8.64356142991798       -1.50807299217287
H          144.91745712744276        7.49429073002641       -0.19602581151839
H          147.16862423014484        8.23019381950151       -3.06807618740844
H          148.67162484746476        5.79243046018234       -5.34669440754463
H          149.73885392278930        6.79218585805996       -4.35630262015982
H          148.29519199554045        7.50644185837562       -5.08554821655202
H          148.47947053983444        4.17084319064838       -3.44856217257731
H          144.62440662043397        4.01470401665097       -2.10865304333926
H          142.74096943705305        2.21574687656357       -1.44716308144542
H          148.05019974956230        0.65845486229534       -0.42361608345234
H          146.07869725252803       -5.41859537881091        0.09479439163329
H          146.26259213335803       -9.01898864730213        1.01920647182129
H          145.89815742153002       -7.88824279740493       -0.29844589057620
H          144.81998358762380       -7.99950806231461        1.09596564128052
H          147.38836633521242       -8.25845170334332        3.02078573456339
H          149.64996392446253       -5.84545570785386        4.71754300151955
H          149.28784148385193       -7.56775738008558        4.49331110493901
H          148.18336949320710       -6.54324285254565        5.41581731813725
H          148.60313103019737       -4.16198045526039        3.31660368013917
C          154.76588048290600       -0.02258510945695       -0.07530092265574
C          155.40387585458177       -1.15119417007510        0.47826965624006
C          154.78052943915225       -2.26053057636185        1.10279151946280
C          155.75631297959794       -3.16031302066070        1.43720378243011
C          157.00564191140845       -2.62713792556061        1.02021240479219
N          156.74435211160153       -1.40111484293107        0.46899657024021
C          158.26196196845311       -3.23913550773507        1.12062576697212
C          159.48219101667345       -2.65845681899261        0.77112893653188
C          160.74802510035374       -3.36855310283757        0.78838083846935
C          161.69537843855707       -2.46870100200257        0.45027790991204
N          159.67899886013569       -1.36447766506092        0.39397575827939
C          161.00855483548318       -1.21394675698221        0.22484662372815
C          161.67800894744644       -0.01047230710804       -0.08161719069218
C          161.04019734255013        1.20764064832059       -0.39218033424455
C          161.66377683731426        2.45661767120595       -0.63794280614694
C          160.68814209532346        3.35803560818242       -0.96834972890525
C          159.43869605628265        2.68203135813619       -0.93859231772394
C          158.18237183829169        3.21288415273840       -1.25923150060910
C          158.16748409751332        4.60813274600420       -1.76356176757774
C          157.44187740869890        5.59103886521394       -1.08998951296014
C          157.42252949785455        6.89993426480841       -1.55710691427173
C          156.65510599650162        7.96202328170315       -0.81701015559389
C          158.13534105228374        7.22452663578453       -2.70846235195360
C          158.86158636616952        6.25580036026405       -3.39320027321923
C          159.64154109619679        6.61428631946632       -4.62934202336080
C          158.87630777655670        4.94957980150502       -2.91440375848701
C          156.96188585902283        2.54518959882948       -1.14606653351624