      -----------------------------------------------------------      
     |                   =====================                   |     
     |                           x T B                           |     
     |                   =====================                   |     
     |                         S. Grimme                         |     
     |          Mulliken Center for Theoretical Chemistry        |     
     |                    University of Bonn                     |     
      -----------------------------------------------------------      

   * xtb version 6.5.1 (b24c23e) compiled by 'conda@728c89f4b128' on 2022-07-12

   xtb is free software: you can redistribute it and/or modify it under
   the terms of the GNU Lesser General Public License as published by
   the Free Software Foundation, either version 3 of the License, or
   (at your option) any later version.
   
   xtb is distributed in the hope that it will be useful,
   but WITHOUT ANY WARRANTY; without even the implied warranty of
   MERCHANTABILITY or FITNESS FOR A PARTICULAR PURPOSE.  See the
   GNU Lesser General Public License for more details.
   
   Cite this work as:
   * C. Bannwarth, E. Caldeweyher, S. Ehlert, A. Hansen, P. Pracht,
     J. Seibert, S. Spicher, S. Grimme, WIREs Comput. Mol. Sci., 2020, 11,
     e01493. DOI: 10.1002/wcms.1493
   
   for GFN2-xTB:
   * C. Bannwarth, S. Ehlert and S. Grimme., J. Chem. Theory Comput., 2019,
     15, 1652-1671. DOI: 10.1021/acs.jctc.8b01176
   for GFN1-xTB:
   * S. Grimme, C. Bannwarth, P. Shushkov, J. Chem. Theory Comput., 2017,
     13, 1989-2009. DOI: 10.1021/acs.jctc.7b00118
   for GFN0-xTB:
   * P. Pracht, E. Caldeweyher, S. Ehlert, S. Grimme, ChemRxiv, 2019, preprint.
     DOI: 10.26434/chemrxiv.8326202.v1
   for GFN-FF:
   * S. Spicher and S. Grimme, Angew. Chem. Int. Ed., 2020, 59, 15665-15673.
     DOI: 10.1002/anie.202004239
   
   for ALPB and GBSA implicit solvation:
   * S. Ehlert, M. Stahn, S. Spicher, S. Grimme, J. Chem. Theory Comput.,
     2021, 17, 4250-4261. DOI: 10.1021/acs.jctc.1c00471
   
   for DFT-D4:
   * E. Caldeweyher, C. Bannwarth and S. Grimme, J. Chem. Phys., 2017,
     147, 034112. DOI: 10.1063/1.4993215
   * E. Caldeweyher, S. Ehlert, A. Hansen, H. Neugebauer, S. Spicher,
     C. Bannwarth and S. Grimme, J. Chem. Phys., 2019, 150, 154122.
     DOI: 10.1063/1.5090222
   * E. Caldeweyher, J.-M. Mewes, S. Ehlert and S. Grimme, Phys. Chem. Chem. Phys.
     2020, 22, 8499-8512. DOI: 10.1039/D0CP00502A
   
   for sTDA-xTB:
   * S. Grimme and C. Bannwarth, J. Chem. Phys., 2016, 145, 054103.
     DOI: 10.1063/1.4959605
   
   in the mass-spec context:
   * V. Asgeirsson, C. Bauer and S. Grimme, Chem. Sci., 2017, 8, 4879.
     DOI: 10.1039/c7sc00601b
   * J. Koopman and S. Grimme, ACS Omega 2019, 4, 12, 15120-15133.
     DOI: 10.1021/acsomega.9b02011
   
   for metadynamics refer to:
   * S. Grimme, J. Chem. Theory Comput., 2019, 155, 2847-2862
     DOI: 10.1021/acs.jctc.9b00143
   
   for SPH calculations refer to:
   * S. Spicher and S. Grimme, J. Chem. Theory Comput., 2021, 17, 1701-1714
     DOI: 10.1021/acs.jctc.0c01306
   
   with help from (in alphabetical order)
   P. Atkinson, C. Bannwarth, F. Bohle, G. Brandenburg, E. Caldeweyher
   M. Checinski, S. Dohm, S. Ehlert, S. Ehrlich, I. Gerasimov, C. Hölzer
   A. Katbashev, J. Koopman, C. Lavigne, S. Lehtola, F. März, M. Müller,
   F. Musil, H. Neugebauer, J. Pisarek, C. Plett, P. Pracht, F. Pultar,
   J. Seibert, P. Shushkov, S. Spicher, M. Stahn, M. Steiner, T. Strunk,
   J. Stückrath, T. Rose, and J. Unsleber
   
 * started run on 2022/07/30 at 07:38:58.976     

           -------------------------------------------------
          |                Calculation Setup                |
           -------------------------------------------------

          program call               : xtb p-CP_C4_8.xyz --gfn 1 --opt -T 48
          hostname                   : cx3-14-14.cx3.hpc.ic.ac.uk
          coordinate file            : p-CP_C4_8.xyz
          omp threads                :                     1

   ID    Z sym.   atoms
    1    6 C      1-5, 7-10, 12-23, 26-31, 34-38, 41, 42, 64-68, 70-73,
                  75-86, 89-94, 97-101, 104, 105, 127-159, 161-164, 166-177,
                  180-185, 188-192, 195, 196, 217-221, 223-226, 228-239,
                  242-247, 250-254, 257, 258, 279-283, 285-288, 290-301,
                  304-309, 312-316, 319, 320, 341-345, 347-350, 352-363,
                  366-371, 374-378, 381, 382, 403-407, 409-412, 414-425,
                  428-433, 436-440, 443, 444, 465-469, 471-474, 476-487,
                  490-495, 498-502, 505, 506
    2    7 N      6, 11, 32, 33, 69, 74, 95, 96, 160, 165, 186, 187, 222,
                  227, 248, 249, 284, 289, 310, 311, 346, 351, 372, 373, 408,
                  413, 434, 435, 470, 475, 496, 497
    3    8 O      24, 25, 39, 40, 87, 88, 102, 103, 178, 179, 193, 194, 240,
                  241, 255, 256, 302, 303, 317, 318, 364, 365, 379, 380, 426,
                  427, 441, 442, 488, 489, 503, 504
    4    1 H      43-63, 106-126, 197-216, 259-278, 321-340, 383-402,
                  445-464, 507-526

molecular fragmentation (1/2 indicates fragments):
111111111111111111111111111111111111111111111111111111111111111222222222
222222222222222222222222222222222222222222222222222222222222222222222222
222222222222222222222222222222222222222222222222222222222222222222222222
222222222222222222222222222222222222222222222222222222222222222222222222
222222222222222222222222222222222222222222222222222222222222222222222222
222222222222222222222222222222222222222222222222222222222222222222222222
222222222222222222222222222222222222222222222222222222222222222222222222
2222222222222222222222
# atoms in fragment 1/2:    63   463
 fragment masses (1/2) :      549.56     4177.15
CMA distance (Bohr)    : 105.856
constraining FC (au)   :  0.0500
########################################################################
[WARNING] Please study the warnings concerning your input carefully
-1- prog_main_parseArguments: Unknown option '-T' provided
########################################################################

           -------------------------------------------------
          |                 G F N 1 - x T B                 |
           -------------------------------------------------

        Reference                      10.1021/acs.jctc.7b00118
      * Hamiltonian:
        H0-scaling (s, p, d)           1.850000    2.250000    2.000000
        zeta-weighting                 0.000000
      * Dispersion:
        s8                             2.400000
        a1                             0.630000
        a2                             5.000000
        s9                             0.000000
      * Repulsion:
        kExp                           1.500000
        rExp                           1.000000
      * Coulomb:
        alpha                          2.000000
        third order                    atomic
        anisotropic                    false
      * Halogen bond correction:
        rad-scale                      1.300000
        damping                        0.440000


          ...................................................
          :                      SETUP                      :
          :.................................................:
          :  # basis functions                1780          :
          :  # atomic orbitals                1780          :
          :  # shells                         1052          :
          :  # electrons                      1714          :
          :  # halogen bonds                     0          :
          :  max. iterations                   250          :
          :  Hamiltonian                  GFN1-xTB          :
          :  restarted?                      false          :
          :  GBSA solvation                  false          :
          :  PC potential                    false          :
          :  electronic temp.          300.0000000     K    :
          :  accuracy                    1.0000000          :
          :  -> integral cutoff          0.2500000E+02      :
          :  -> integral neglect         0.1000000E-07      :
          :  -> SCF convergence          0.1000000E-05 Eh   :
          :  -> wf. convergence          0.2000000E-04 e    :
          :  Broyden damping             0.4000000          :
          ...................................................

 iter      E             dE          RMSdq      gap      omega  full diag
   1   -983.3164640 -0.983316E+03  0.103E+01    0.06       0.0  T
   2   -982.2374935  0.107897E+01  0.619E+00    0.01       1.0  T
   3    596.7464616  0.157898E+04  0.978E+00    0.02       1.0  T
   4   5993.3201357  0.539657E+04  0.163E+01    0.01       1.0  T
   5   2577.7543778 -0.341557E+04  0.131E+01    0.01       1.0  T
   6   -600.6016775 -0.317836E+04  0.633E+00    0.03       1.0  T
   7   -947.8649246 -0.347263E+03  0.318E+00    0.23       1.0  T
   8   -953.5919305 -0.572701E+01  0.256E+00    0.07       1.0  T
   9   -961.0681561 -0.747623E+01  0.193E+00    0.03       1.0  T
  10   -934.6197415  0.264484E+02  0.241E+00    0.05       1.0  T
  11   -963.2299903 -0.286102E+02  0.172E+00    0.02       1.0  T
  12   -968.5479220 -0.531793E+01  0.139E+00    0.01       1.0  T
  13   -965.3342241  0.321370E+01  0.142E+00    0.04       1.0  T
  14   -970.1258027 -0.479158E+01  0.136E+00    0.00       1.0  T
  15   -978.9518095 -0.882601E+01  0.104E+00    0.02       1.0  T
  16   -980.8252147 -0.187341E+01  0.839E-01    0.16       1.0  T
  17   -983.0343788 -0.220916E+01  0.913E-01    0.10       1.0  T
  18   -984.1442636 -0.110988E+01  0.843E-01    0.11       1.0  T
  19   -984.1114554  0.328082E-01  0.868E-01    0.11       1.0  T
  20   -984.7687984 -0.657343E+00  0.828E-01    0.12       1.0  T
  21   -984.8185519 -0.497535E-01  0.756E-01    0.13       1.0  T
  22   -984.7942357  0.243162E-01  0.690E-01    0.01       1.0  T
  23   -985.0229625 -0.228727E+00  0.640E-01    0.05       1.0  T
  24   -983.6983731  0.132459E+01  0.726E-01    0.02       1.0  T
  25   -984.7813984 -0.108303E+01  0.582E-01    0.07       1.0  T
  26   -984.3152812  0.466117E+00  0.555E-01    0.12       1.0  T
  27   -983.4879801  0.827301E+00  0.543E-01    0.02       1.0  T
  28   -984.1837951 -0.695815E+00  0.470E-01    0.04       1.0  T
  29   -983.7651704  0.418625E+00  0.526E-01    0.00       1.0  T
  30   -984.8120248 -0.104685E+01  0.360E-01    0.01       1.0  T
  31   -985.0148346 -0.202810E+00  0.358E-01    0.00       1.0  T
  32   -984.9902709  0.245638E-01  0.355E-01    0.01       1.0  T
  33   -985.3032148 -0.312944E+00  0.323E-01    0.06       1.0  T
  34   -985.4811978 -0.177983E+00  0.271E-01    0.06       1.0  T
  35   -985.3669916  0.114206E+00  0.276E-01    0.04       1.0  T
  36   -985.5058330 -0.138841E+00  0.230E-01    0.07       1.0  T
  37   -985.5325010 -0.266680E-01  0.229E-01    0.06       1.0  T
  38   -985.5148682  0.176329E-01  0.235E-01    0.04       1.0  T
  39   -985.5987049 -0.838367E-01  0.209E-01    0.04       1.0  T
  40   -985.5940468  0.465811E-02  0.211E-01    0.04       1.0  T
  41   -985.6512354 -0.571886E-01  0.169E-01    0.01       1.0  T
  42   -985.6547229 -0.348744E-02  0.157E-01    0.01       1.0  T
  43   -985.6112981  0.434248E-01  0.199E-01    0.07       1.0  T
  44   -985.6675377 -0.562396E-01  0.129E-01    0.03       1.0  T
  45   -985.6623832  0.515449E-02  0.125E-01    0.04       1.0  T
  46   -985.6821172 -0.197340E-01  0.893E-02    0.03       1.0  T
  47   -985.6892898 -0.717262E-02  0.706E-02    0.03       1.0  T
  48   -985.6904150 -0.112522E-02  0.553E-02    0.03       1.0  T
  49   -985.6957961 -0.538108E-02  0.542E-02    0.01       1.0  T
  50   -985.6925948  0.320128E-02  0.444E-02    0.02       1.0  T
  51   -985.6997189 -0.712411E-02  0.400E-02    0.01       1.0  T
  52   -985.6998064 -0.874636E-04  0.365E-02    0.01       1.0  T
  53   -985.6993426  0.463748E-03  0.466E-02    0.01       1.0  T
  54   -985.6993610 -0.183522E-04  0.429E-02    0.01       1.0  T
  55   -985.7006537 -0.129266E-02  0.330E-02    0.01       1.0  T
  56   -985.7008620 -0.208308E-03  0.308E-02    0.01       1.0  T
  57   -985.7011549 -0.292906E-03  0.274E-02    0.01       1.0  T
  58   -985.7014529 -0.298081E-03  0.234E-02    0.01       1.0  T
  59   -985.7019884 -0.535481E-03  0.190E-02    0.01       1.0  T
  60   -985.7022511 -0.262633E-03  0.165E-02    0.00       1.0  T
  61   -985.7023729 -0.121823E-03  0.145E-02    0.00       1.0  T
  62   -985.7025162 -0.143322E-03  0.132E-02    0.00       1.0  T
  63   -985.7025604 -0.441451E-04  0.135E-02    0.01       1.0  T
  64   -985.7026166 -0.562418E-04  0.117E-02    0.01       1.0  T
  65   -985.7026627 -0.461382E-04  0.897E-03    0.00       1.0  T
  66   -985.7026810 -0.182292E-04  0.804E-03    0.01       1.0  T
  67   -985.7026876 -0.663202E-05  0.773E-03    0.01       1.0  T
  68   -985.7026987 -0.111401E-04  0.692E-03    0.01       1.0  T
  69   -985.7027139 -0.151211E-04  0.601E-03    0.01       1.0  T
  70   -985.7027283 -0.144672E-04  0.506E-03    0.01       1.0  T
  71   -985.7027372 -0.884350E-05  0.420E-03    0.01       1.0  T
  72   -985.7027440 -0.688234E-05  0.362E-03    0.01       1.2  T
  73   -985.7027525 -0.841882E-05  0.286E-03    0.01       1.5  T
  74   -985.7027583 -0.582507E-05  0.202E-03    0.01       2.2  T
  75   -985.7027601 -0.181888E-05  0.149E-03    0.01       2.9  T
  76   -985.7027632 -0.310565E-05  0.123E-03    0.01       3.6  T
  77   -985.7027648 -0.155021E-05  0.112E-03    0.01       3.9  T
  78   -985.7027660 -0.118659E-05  0.811E-04    0.01       5.4  T
  79   -985.7027669 -0.913757E-06  0.503E-04    0.01       8.7  T
  80   -985.7027673 -0.411656E-06  0.299E-04    0.01      14.6  T
  81   -985.7027675 -0.195648E-06  0.157E-04    0.01      27.8  T
  82   -985.7027675 -0.656437E-07  0.848E-05    0.01      51.4  T

   *** convergence criteria satisfied after 82 iterations ***

         #    Occupation            Energy/Eh            Energy/eV
      -------------------------------------------------------------
         1        2.0000           -0.8350429             -22.7227
       ...           ...                  ...                  ...
       851        2.0000           -0.3971612             -10.8073
       852        2.0000           -0.3942161             -10.7272
       853        2.0000           -0.3939825             -10.7208
       854        2.0000           -0.3931477             -10.6981
       855        2.0000           -0.3891721             -10.5899
       856        2.0000           -0.3856487             -10.4940
       857        1.0363           -0.3730236             -10.1505 (HOMO)
       858        0.9387           -0.3728380             -10.1454 (LUMO)
       859        0.0148           -0.3682997             -10.0219
       860        0.0087           -0.3677949             -10.0082
       861        0.0013           -0.3659604              -9.9583
       862        0.0002           -0.3642828              -9.9126
       ...           ...                  ...                  ...
      1780                          1.3069252              35.5632
      -------------------------------------------------------------
                  HL-Gap            0.0001856 Eh            0.0051 eV
             Fermi-level           -0.3729546 Eh          -10.1486 eV

 SCC (total)                   0 d,  0 h,  2 min, 15.207 sec
 SCC setup                      ...        0 min,  0.068 sec (  0.051%)
 Dispersion                     ...        0 min,  0.033 sec (  0.024%)
 classical contributions        ...        0 min,  0.008 sec (  0.006%)
 integral evaluation            ...        0 min,  0.812 sec (  0.601%)
 iterations                     ...        2 min, 12.442 sec ( 97.955%)
 molecular gradient             ...        0 min,  1.543 sec (  1.141%)
 printout                       ...        0 min,  0.301 sec (  0.223%)

         :::::::::::::::::::::::::::::::::::::::::::::::::::::
         ::                     SUMMARY                     ::
         :::::::::::::::::::::::::::::::::::::::::::::::::::::
         :: total energy            -971.717520034496 Eh    ::
         :: gradient norm              1.124301904295 Eh/a0 ::
         :: HOMO-LUMO gap              0.005050789013 eV    ::
         ::.................................................::
         :: SCC energy              -985.702767541802 Eh    ::
         :: -> electrostatic           1.919060251167 Eh    ::
         :: repulsion energy          14.424473509299 Eh    ::
         :: dispersion energy         -0.439226001993 Eh    ::
         :: halogen bond corr.         0.000000000000 Eh    ::
         :: add. restraining           0.000000000000 Eh    ::
         :: total charge              -0.000000000002 e     ::
         :::::::::::::::::::::::::::::::::::::::::::::::::::::

      ----------------------------------------------------------- 
     |                       L-ANC optimizer                     |
      ----------------------------------------------------------- 
          low memory version by Sebastian Ehlert

          ...................................................
          :                      SETUP                      :
          :.................................................:
          :   energy convergence        0.5000000E-05 Eh    :
          :   grad. convergence         0.1000000E-02 Eh/a0 :
          :   optimization log               true           :
          :   writing optlog all                1     steps :
          :   Hessian reset                    20     steps :
          :   maximium step len.        1.0000000     a0    :
          :   LBFGS images                     20           :
          ...................................................
 * calculating model hessian...
Using Lindh-Hessian (1995)
 Shifting diagonal of input Hessian by    1.0233956539887004E-002
 Lowest  eigenvalues of input Hessian
    0.010000    0.010201    0.010225    0.010231    0.010231    0.010232
    0.010232    0.010233    0.010233    0.010233    0.010234    0.000000
    0.000000    0.000000    0.000000    0.000000    0.000000    0.010234
 Highest eigenvalues
    2.655187    2.669828    2.669832    2.669832    2.669832    2.669834


........................................................................
.............................. CYCLE    1 ..............................
........................................................................
   1   -985.8958789 -0.985896E+03  0.930E-02    0.04       0.0  T
   2   -985.7669886  0.128890E+00  0.213E-01    0.29       1.0  T
   3   -985.7949488 -0.279601E-01  0.180E-01    0.18       1.0  T
   4   -985.8548405 -0.598918E-01  0.121E-01    0.10       1.0  T
   5   -985.9039226 -0.490820E-01  0.273E-02    0.03       1.0  T
   6   -985.9036302  0.292419E-03  0.238E-02    0.03       1.0  T
   7   -985.8951841  0.844604E-02  0.521E-02    0.04       1.0  T
   8   -985.9056823 -0.104982E-01  0.766E-03    0.03       1.0  T
   9   -985.9058016 -0.119300E-03  0.303E-03    0.03       1.4  T
  10   -985.9058171 -0.154821E-04  0.142E-03    0.03       3.1  T
  11   -985.9058121  0.500280E-05  0.187E-03    0.03       2.3  T
  12   -985.9058240 -0.118838E-04  0.571E-04    0.03       7.6  T
  13   -985.9058248 -0.803152E-06  0.287E-04    0.03      15.2  T
  14   -985.9058250 -0.173368E-06  0.183E-04    0.03      23.8  T
  15   -985.9058250 -0.925215E-07  0.912E-05    0.03      47.8  T
     SCC iter.                  ...        0 min, 24.286 sec
     gradient                   ...        0 min,  1.533 sec
 * total energy  :  -972.2212167 Eh     change       -0.5036967E+00 Eh
   gradient norm :     0.7505131 Eh/a0  converged?    E=F G=F D=F
   step length   :     0.5790908 a0

........................................................................
.............................. CYCLE    2 ..............................
........................................................................
   1   -986.1800441 -0.986180E+03  0.560E-02    0.08       0.0  T
   2   -986.1638257  0.162184E-01  0.793E-02    0.09       1.0  T
   3   -986.1093445  0.544812E-01  0.140E-01    0.17       1.0  T
   4   -986.1813780 -0.720335E-01  0.227E-02    0.08       1.0  T
   5   -986.1805009  0.877022E-03  0.251E-02    0.08       1.0  T
   6   -986.1817976 -0.129668E-02  0.145E-02    0.07       1.0  T
   7   -986.1822806 -0.483037E-03  0.893E-03    0.07       1.0  T
   8   -986.1824878 -0.207197E-03  0.273E-03    0.07       1.6  T
   9   -986.1824823  0.557676E-05  0.226E-03    0.07       1.9  T
  10   -986.1825005 -0.182173E-04  0.102E-03    0.07       4.3  T
  11   -986.1825053 -0.479217E-05  0.302E-04    0.07      14.4  T
  12   -986.1825051  0.163161E-06  0.304E-04    0.07      14.4  T
  13   -986.1825054 -0.313725E-06  0.109E-04    0.07      39.9  T
  14   -986.1825055 -0.275653E-07  0.593E-05    0.07      73.5  T
     SCC iter.                  ...        0 min, 22.677 sec
     gradient                   ...        0 min,  1.540 sec
 * total energy  :  -972.4715167 Eh     change       -0.2503000E+00 Eh
   gradient norm :     0.5626592 Eh/a0  converged?    E=F G=F D=F
   step length   :     4.8789685 a0

........................................................................
.............................. CYCLE    3 ..............................
........................................................................
   1   -986.3570838 -0.986357E+03  0.374E-02    0.13       0.0  T
   2   -986.3571680 -0.842231E-04  0.280E-02    0.12       1.0  T
   3   -986.3531222  0.404581E-02  0.409E-02    0.13       1.0  T
   4   -986.3568468 -0.372456E-02  0.217E-02    0.13       1.0  T
   5   -986.3577347 -0.887878E-03  0.137E-02    0.13       1.0  T
   6   -986.3580304 -0.295768E-03  0.924E-03    0.13       1.0  T
   7   -986.3582226 -0.192114E-03  0.266E-03    0.13       1.6  T
   8   -986.3582317 -0.912388E-05  0.130E-03    0.13       3.4  T
   9   -986.3582367 -0.501716E-05  0.470E-04    0.13       9.3  T
  10   -986.3582370 -0.325255E-06  0.384E-04    0.13      11.4  T
  11   -986.3582374 -0.417662E-06  0.121E-04    0.13      35.9  T
  12   -986.3582374 -0.136971E-07  0.844E-05    0.13      51.6  T
     SCC iter.                  ...        0 min, 19.444 sec
     gradient                   ...        0 min,  1.539 sec
 * total energy  :  -972.6015093 Eh     change       -0.1299926E+00 Eh
   gradient norm :     0.4604221 Eh/a0  converged?    E=F G=F D=F
   step length   :     8.2769101 a0

........................................................................
.............................. CYCLE    4 ..............................
........................................................................
   1   -986.5155712 -0.986516E+03  0.315E-02    0.19       0.0  T
   2   -986.5158176 -0.246411E-03  0.240E-02    0.18       1.0  T
   3   -986.5158997 -0.820559E-04  0.160E-02    0.19       1.0  T
   4   -986.5159060 -0.637202E-05  0.151E-02    0.19       1.0  T
   5   -986.5163186 -0.412550E-03  0.600E-03    0.19       1.0  T
   6   -986.5163087  0.988161E-05  0.471E-03    0.19       1.0  T
   7   -986.5163601 -0.513685E-04  0.148E-03    0.19       2.9  T
   8   -986.5163636 -0.356878E-05  0.605E-04    0.19       7.2  T
   9   -986.5163643 -0.697850E-06  0.267E-04    0.19      16.3  T
  10   -986.5163644 -0.914397E-07  0.199E-04    0.19      21.9  T
  11   -986.5163645 -0.765035E-07  0.615E-05    0.19      70.9  T
     SCC iter.                  ...        0 min, 17.827 sec
     gradient                   ...        0 min,  1.538 sec
 * total energy  :  -972.7084968 Eh     change       -0.1069875E+00 Eh
   gradient norm :     0.3763804 Eh/a0  converged?    E=F G=F D=F
   step length   :    20.4453220 a0

........................................................................
.............................. CYCLE    5 ..............................
........................................................................
   1   -986.6351213 -0.986635E+03  0.255E-02    0.25       0.0  T
   2   -986.6353751 -0.253849E-03  0.212E-02    0.24       1.0  T
   3   -986.6355920 -0.216860E-03  0.883E-03    0.25       1.0  T
   4   -986.6354231  0.168894E-03  0.114E-02    0.25       1.0  T
   5   -986.6356333 -0.210222E-03  0.397E-03    0.25       1.1  T
   6   -986.6356430 -0.970601E-05  0.141E-03    0.25       3.1  T
   7   -986.6356458 -0.278398E-05  0.678E-04    0.25       6.4  T
   8   -986.6356467 -0.877668E-06  0.231E-04    0.25      18.9  T
   9   -986.6356467 -0.659521E-07  0.133E-04    0.25      32.8  T
  10   -986.6356467 -0.245923E-07  0.545E-05    0.25      80.0  T
     SCC iter.                  ...        0 min, 16.223 sec
     gradient                   ...        0 min,  1.536 sec
 * total energy  :  -972.7940193 Eh     change       -0.8552245E-01 Eh
   gradient norm :     0.3149526 Eh/a0  converged?    E=F G=F D=F
   step length   :    22.7864736 a0

........................................................................
.............................. CYCLE    6 ..............................
........................................................................
   1   -986.7465525 -0.986747E+03  0.252E-02    0.31       0.0  T
   2   -986.7467864 -0.233937E-03  0.232E-02    0.30       1.0  T
   3   -986.7469937 -0.207336E-03  0.962E-03    0.30       1.0  T
   4   -986.7468341  0.159612E-03  0.109E-02    0.30       1.0  T
   5   -986.7470013 -0.167160E-03  0.336E-03    0.30       1.3  T
   6   -986.7470093 -0.803775E-05  0.136E-03    0.30       3.2  T
   7   -986.7470123 -0.296054E-05  0.356E-04    0.30      12.3  T
   8   -986.7470124 -0.110230E-06  0.166E-04    0.30      26.3  T
   9   -986.7470124 -0.203523E-07  0.109E-04    0.30      39.9  T
     SCC iter.                  ...        0 min, 14.608 sec
     gradient                   ...        0 min,  1.535 sec
 * total energy  :  -972.8741531 Eh     change       -0.8013377E-01 Eh
   gradient norm :     0.2642282 Eh/a0  converged?    E=F G=F D=F
   step length   :    32.6662530 a0

........................................................................
.............................. CYCLE    7 ..............................
........................................................................
   1   -986.8374226 -0.986837E+03  0.232E-02    0.36       0.0  T
   2   -986.8375902 -0.167581E-03  0.225E-02    0.35       1.0  T
   3   -986.8377478 -0.157577E-03  0.101E-02    0.35       1.0  T
   4   -986.8376242  0.123570E-03  0.989E-03    0.35       1.0  T
   5   -986.8377489 -0.124667E-03  0.260E-03    0.35       1.7  T
   6   -986.8377538 -0.490173E-05  0.134E-03    0.35       3.2  T
   7   -986.8377571 -0.332991E-05  0.314E-04    0.35      13.9  T
   8   -986.8377572 -0.103982E-06  0.148E-04    0.35      29.6  T
   9   -986.8377572 -0.220258E-07  0.843E-05    0.35      51.7  T
     SCC iter.                  ...        0 min, 14.607 sec
     gradient                   ...        0 min,  1.540 sec
 * total energy  :  -972.9442322 Eh     change       -0.7007914E-01 Eh
   gradient norm :     0.2262976 Eh/a0  converged?    E=F G=F D=F
   step length   :    30.0030011 a0

........................................................................
.............................. CYCLE    8 ..............................
........................................................................
   1   -986.9207659 -0.986921E+03  0.235E-02    0.40       0.0  T
   2   -986.9208929 -0.127043E-03  0.236E-02    0.39       1.0  T
   3   -986.9210441 -0.151180E-03  0.113E-02    0.40       1.0  T
   4   -986.9209222  0.121879E-03  0.998E-03    0.40       1.0  T
   5   -986.9210430 -0.120762E-03  0.222E-03    0.40       2.0  T
   6   -986.9210480 -0.502949E-05  0.116E-03    0.40       3.8  T
   7   -986.9210507 -0.267145E-05  0.294E-04    0.40      14.8  T
   8   -986.9210508 -0.116357E-06  0.119E-04    0.40      36.6  T
   9   -986.9210508 -0.149595E-07  0.634E-05    0.40      68.7  T
     SCC iter.                  ...        0 min, 14.611 sec
     gradient                   ...        0 min,  1.554 sec
 * total energy  :  -973.0054346 Eh     change       -0.6120238E-01 Eh
   gradient norm :     0.1923085 Eh/a0  converged?    E=F G=F D=F
   step length   :    33.1581752 a0

........................................................................
.............................. CYCLE    9 ..............................
........................................................................
   1   -987.0048951 -0.987005E+03  0.210E-02    0.44       0.0  T
   2   -987.0049743 -0.792297E-04  0.215E-02    0.43       1.0  T
   3   -987.0051106 -0.136323E-03  0.104E-02    0.43       1.0  T
   4   -987.0050118  0.988115E-04  0.897E-03    0.43       1.0  T
   5   -987.0051108 -0.990244E-04  0.169E-03    0.43       2.6  T
   6   -987.0051140 -0.319824E-05  0.801E-04    0.43       5.4  T
   7   -987.0051153 -0.130449E-05  0.247E-04    0.43      17.6  T
   8   -987.0051154 -0.906359E-07  0.924E-05    0.43      47.2  T
   9   -987.0051154 -0.950229E-08  0.459E-05    0.43      94.9  T
     SCC iter.                  ...        0 min, 14.599 sec
     gradient                   ...        0 min,  1.547 sec
 * total energy  :  -973.0578702 Eh     change       -0.5243559E-01 Eh
   gradient norm :     0.1588748 Eh/a0  converged?    E=F G=F D=F
   step length   :    16.3899270 a0

........................................................................
.............................. CYCLE   10 ..............................
........................................................................
   1   -987.0930480 -0.987093E+03  0.162E-02    0.47       0.0  T
   2   -987.0931057 -0.577080E-04  0.154E-02    0.47       1.0  T
   3   -987.0931832 -0.775306E-04  0.678E-03    0.47       1.0  T
   4   -987.0931325  0.507602E-04  0.657E-03    0.47       1.0  T
   5   -987.0931852 -0.526716E-04  0.124E-03    0.47       3.5  T
   6   -987.0931867 -0.151708E-05  0.560E-04    0.47       7.8  T
   7   -987.0931873 -0.629478E-06  0.183E-04    0.47      23.8  T
   8   -987.0931874 -0.499983E-07  0.731E-05    0.47      59.7  T
     SCC iter.                  ...        0 min, 12.997 sec
     gradient                   ...        0 min,  1.538 sec
 * total energy  :  -973.0974789 Eh     change       -0.3960878E-01 Eh
   gradient norm :     0.1291155 Eh/a0  converged?    E=F G=F D=F
   step length   :     8.7723874 a0

........................................................................
.............................. CYCLE   11 ..............................
........................................................................
   1   -987.1785390 -0.987179E+03  0.135E-02    0.51       0.0  T
   2   -987.1785764 -0.373766E-04  0.124E-02    0.51       1.0  T
   3   -987.1786425 -0.661664E-04  0.502E-03    0.51       1.0  T
   4   -987.1786107  0.317974E-04  0.523E-03    0.51       1.0  T
   5   -987.1786460 -0.353112E-04  0.956E-04    0.51       4.6  T
   6   -987.1786466 -0.546057E-06  0.455E-04    0.51       9.6  T
   7   -987.1786470 -0.390190E-06  0.162E-04    0.51      26.8  T
   8   -987.1786470 -0.427965E-07  0.639E-05    0.51      68.3  T
     SCC iter.                  ...        0 min, 12.997 sec
     gradient                   ...        0 min,  1.542 sec
 * total energy  :  -973.1291464 Eh     change       -0.3166743E-01 Eh
   gradient norm :     0.1070375 Eh/a0  converged?    E=F G=F D=F
   step length   :    15.5026508 a0

........................................................................
.............................. CYCLE   12 ..............................
........................................................................
   1   -987.2714082 -0.987271E+03  0.116E-02    0.54       0.0  T
   2   -987.2714407 -0.324342E-04  0.837E-03    0.54       1.0  T
   3   -987.2714670 -0.263791E-04  0.383E-03    0.54       1.1  T
   4   -987.2714568  0.102514E-04  0.387E-03    0.54       1.1  T
   5   -987.2714769 -0.200891E-04  0.858E-04    0.54       5.1  T
   6   -987.2714773 -0.426958E-06  0.469E-04    0.54       9.3  T
   7   -987.2714777 -0.441872E-06  0.130E-04    0.54      33.5  T
   8   -987.2714778 -0.217539E-07  0.546E-05    0.54      79.9  T
     SCC iter.                  ...        0 min, 12.982 sec
     gradient                   ...        0 min,  1.540 sec
 * total energy  :  -973.1577035 Eh     change       -0.2855717E-01 Eh
   gradient norm :     0.0898153 Eh/a0  converged?    E=F G=F D=F
   step length   :     8.8046024 a0

........................................................................
.............................. CYCLE   13 ..............................
........................................................................
   1   -987.3610908 -0.987361E+03  0.101E-02    0.58       0.0  T
   2   -987.3611242 -0.333282E-04  0.644E-03    0.58       1.0  T
   3   -987.3611393 -0.151285E-04  0.325E-03    0.58       1.3  T
   4   -987.3611368  0.245398E-05  0.315E-03    0.58       1.4  T
   5   -987.3611506 -0.137545E-04  0.768E-04    0.58       5.7  T
   6   -987.3611509 -0.303465E-06  0.412E-04    0.58      10.6  T
   7   -987.3611512 -0.318682E-06  0.118E-04    0.58      37.0  T
   8   -987.3611512 -0.141080E-07  0.524E-05    0.58      83.3  T
     SCC iter.                  ...        0 min, 13.028 sec
     gradient                   ...        0 min,  1.552 sec
 * total energy  :  -973.1815513 Eh     change       -0.2384778E-01 Eh
   gradient norm :     0.0736567 Eh/a0  converged?    E=F G=F D=F
   step length   :     9.5795209 a0

........................................................................
.............................. CYCLE   14 ..............................
........................................................................
   1   -987.4493499 -0.987449E+03  0.979E-03    0.61       0.0  T
   2   -987.4493812 -0.312793E-04  0.605E-03    0.61       1.0  T
   3   -987.4493920 -0.108543E-04  0.325E-03    0.61       1.3  T
   4   -987.4493910  0.104895E-05  0.301E-03    0.61       1.4  T
   5   -987.4494041 -0.130949E-04  0.728E-04    0.61       6.0  T
   6   -987.4494044 -0.316307E-06  0.367E-04    0.61      11.9  T
   7   -987.4494046 -0.241356E-06  0.112E-04    0.61      38.9  T
   8   -987.4494047 -0.131980E-07  0.500E-05    0.61      87.2  T
     SCC iter.                  ...        0 min, 12.996 sec
     gradient                   ...        0 min,  1.543 sec
 * total energy  :  -973.2020641 Eh     change       -0.2051274E-01 Eh
   gradient norm :     0.0622405 Eh/a0  converged?    E=F G=F D=F
   step length   :     9.7397293 a0

........................................................................
.............................. CYCLE   15 ..............................
........................................................................
   1   -987.5318796 -0.987532E+03  0.834E-03    0.64       0.0  T
   2   -987.5319001 -0.205380E-04  0.500E-03    0.63       1.0  T
   3   -987.5319051 -0.496439E-05  0.286E-03    0.63       1.5  T
   4   -987.5319066 -0.152744E-05  0.241E-03    0.63       1.8  T
   5   -987.5319146 -0.800956E-05  0.597E-04    0.63       7.3  T
   6   -987.5319149 -0.299140E-06  0.294E-04    0.63      14.8  T
   7   -987.5319151 -0.152879E-06  0.930E-05    0.63      46.9  T
   8   -987.5319151 -0.865509E-08  0.415E-05    0.63     104.9  T
     SCC iter.                  ...        0 min, 12.979 sec
     gradient                   ...        0 min,  1.554 sec
 * total energy  :  -973.2192529 Eh     change       -0.1718888E-01 Eh
   gradient norm :     0.0563914 Eh/a0  converged?    E=F G=F D=F
   step length   :     7.7601413 a0

........................................................................
.............................. CYCLE   16 ..............................
........................................................................
   1   -987.6099630 -0.987610E+03  0.869E-03    0.66       0.0  T
   2   -987.6099801 -0.170553E-04  0.599E-03    0.65       1.0  T
   3   -987.6099927 -0.126241E-04  0.287E-03    0.65       1.5  T
   4   -987.6099892  0.351864E-05  0.264E-03    0.65       1.7  T
   5   -987.6099984 -0.921771E-05  0.655E-04    0.65       6.7  T
   6   -987.6099988 -0.445225E-06  0.288E-04    0.65      15.1  T
   7   -987.6099990 -0.158216E-06  0.897E-05    0.65      48.6  T
   8   -987.6099990 -0.913144E-08  0.377E-05    0.65     115.7  T
     SCC iter.                  ...        0 min, 12.982 sec
     gradient                   ...        0 min,  1.556 sec
 * total energy  :  -973.2332271 Eh     change       -0.1397413E-01 Eh
   gradient norm :     0.0572801 Eh/a0  converged?    E=F G=F D=F
   step length   :     6.6291554 a0

........................................................................
.............................. CYCLE   17 ..............................
........................................................................
   1   -987.6827494 -0.987683E+03  0.752E-03    0.67       0.0  T
   2   -987.6827639 -0.144910E-04  0.484E-03    0.67       1.0  T
   3   -987.6827695 -0.556634E-05  0.254E-03    0.67       1.7  T
   4   -987.6827677  0.176996E-05  0.223E-03    0.67       2.0  T
   5   -987.6827746 -0.689087E-05  0.555E-04    0.67       7.9  T
   6   -987.6827750 -0.391051E-06  0.218E-04    0.67      20.0  T
   7   -987.6827751 -0.782350E-07  0.801E-05    0.67      54.4  T
   8   -987.6827751 -0.713578E-08  0.345E-05    0.67     126.5  T
     SCC iter.                  ...        0 min, 12.972 sec
     gradient                   ...        0 min,  1.561 sec
 * total energy  :  -973.2447741 Eh     change       -0.1154703E-01 Eh
   gradient norm :     0.0588911 Eh/a0  converged?    E=F G=F D=F
   step length   :     6.4628149 a0

........................................................................
.............................. CYCLE   18 ..............................
........................................................................
   1   -987.7476752 -0.987748E+03  0.636E-03    0.69       0.0  T
   2   -987.7476849 -0.973191E-05  0.391E-03    0.69       1.1  T
   3   -987.7476877 -0.274859E-05  0.224E-03    0.69       1.9  T
   4   -987.7476882 -0.581627E-06  0.181E-03    0.69       2.4  T
   5   -987.7476928 -0.453728E-05  0.468E-04    0.69       9.3  T
   6   -987.7476931 -0.277559E-06  0.187E-04    0.69      23.4  T
   7   -987.7476931 -0.571578E-07  0.663E-05    0.69      65.7  T
     SCC iter.                  ...        0 min, 11.376 sec
     gradient                   ...        0 min,  1.567 sec
 * total energy  :  -973.2542217 Eh     change       -0.9447599E-02 Eh
   gradient norm :     0.0595655 Eh/a0  converged?    E=F G=F D=F
   step length   :     5.6951257 a0

........................................................................
.............................. CYCLE   19 ..............................
........................................................................
   1   -987.8070108 -0.987807E+03  0.706E-03    0.69       0.0  T
   2   -987.8070196 -0.876263E-05  0.540E-03    0.69       1.0  T
   3   -987.8070316 -0.120231E-04  0.237E-03    0.69       1.8  T
   4   -987.8070275  0.417246E-05  0.221E-03    0.69       2.0  T
   5   -987.8070336 -0.616255E-05  0.507E-04    0.69       8.6  T
   6   -987.8070340 -0.336537E-06  0.198E-04    0.69      22.1  T
   7   -987.8070340 -0.746850E-07  0.637E-05    0.69      68.5  T
     SCC iter.                  ...        0 min, 11.376 sec
     gradient                   ...        0 min,  1.558 sec
 * total energy  :  -973.2620020 Eh     change       -0.7780341E-02 Eh
   gradient norm :     0.0599351 Eh/a0  converged?    E=F G=F D=F
   step length   :     5.2999956 a0

........................................................................
.............................. CYCLE   20 ..............................
........................................................................
   1   -987.8593961 -0.987859E+03  0.567E-03    0.70       0.0  T
   2   -987.8594019 -0.582168E-05  0.419E-03    0.70       1.0  T
   3   -987.8594083 -0.641823E-05  0.196E-03    0.70       2.2  T
   4   -987.8594063  0.200987E-05  0.167E-03    0.70       2.6  T
   5   -987.8594098 -0.345560E-05  0.412E-04    0.70      10.6  T
   6   -987.8594100 -0.266625E-06  0.149E-04    0.70      29.2  T
   7   -987.8594101 -0.409185E-07  0.532E-05    0.70      81.9  T
     SCC iter.                  ...        0 min, 11.370 sec
     gradient                   ...        0 min,  1.557 sec
 * total energy  :  -973.2685485 Eh     change       -0.6546461E-02 Eh
   gradient norm :     0.0593369 Eh/a0  converged?    E=F G=F D=F
   step length   :     4.7339224 a0
 * RMSD in coord.:     0.7701396 a0     energy gain  -0.1551028E+01 Eh
 * calculating model hessian...
Using Lindh-Hessian (1995)
 Shifting diagonal of input Hessian by    1.0001729218865876E-002
 Lowest  eigenvalues of input Hessian
    0.010000    0.010001    0.010001    0.010001    0.010001    0.010002
    0.010002    0.010002    0.000000    0.000000    0.000000    0.000000
    0.000000    0.000000    0.010002    0.010003    0.010003    0.010004
 Highest eigenvalues
    2.800061    2.800659    2.801947    2.828303    2.828461    2.834979


........................................................................
.............................. CYCLE   21 ..............................
........................................................................
   1   -987.8766946 -0.987877E+03  0.649E-03    0.68       0.0  T
   2   -987.8767094 -0.148041E-04  0.379E-03    0.68       1.2  T
   3   -987.8767143 -0.495671E-05  0.199E-03    0.68       2.2  T
   4   -987.8767136  0.732277E-06  0.148E-03    0.68       2.9  T
   5   -987.8767163 -0.274222E-05  0.350E-04    0.68      12.5  T
   6   -987.8767164 -0.838396E-07  0.155E-04    0.68      28.2  T
   7   -987.8767164 -0.352912E-07  0.673E-05    0.68      64.8  T
     SCC iter.                  ...        0 min, 11.360 sec
     gradient                   ...        0 min,  1.569 sec
 * total energy  :  -973.2736356 Eh     change       -0.5087095E-02 Eh
   gradient norm :     0.0270401 Eh/a0  converged?    E=F G=F D=F
   step length   :     0.4256741 a0

........................................................................
.............................. CYCLE   22 ..............................
........................................................................
   1   -987.8905660 -0.987891E+03  0.716E-03    0.66       0.0  T
   2   -987.8905916 -0.255848E-04  0.412E-03    0.66       1.1  T
   3   -987.8906000 -0.845405E-05  0.190E-03    0.66       2.3  T
   4   -987.8905992  0.807268E-06  0.157E-03    0.66       2.8  T
   5   -987.8906021 -0.285520E-05  0.400E-04    0.66      10.9  T
   6   -987.8906021 -0.605814E-07  0.187E-04    0.66      23.4  T
   7   -987.8906022 -0.471183E-07  0.803E-05    0.66      54.3  T
     SCC iter.                  ...        0 min, 11.359 sec
     gradient                   ...        0 min,  1.561 sec
 * total energy  :  -973.2803967 Eh     change       -0.6761142E-02 Eh
   gradient norm :     0.0178190 Eh/a0  converged?    E=F G=F D=F
   step length   :     1.6415459 a0

........................................................................
.............................. CYCLE   23 ..............................
........................................................................
   1   -987.8916976 -0.987892E+03  0.365E-03    0.64       0.0  T
   2   -987.8917057 -0.810737E-05  0.214E-03    0.65       2.0  T
   3   -987.8917084 -0.263291E-05  0.892E-04    0.64       4.9  T
   4   -987.8917080  0.329339E-06  0.795E-04    0.64       5.5  T
   5   -987.8917088 -0.701801E-06  0.233E-04    0.64      18.7  T
   6   -987.8917088 -0.323666E-07  0.100E-04    0.64      43.5  T
   7   -987.8917088 -0.118953E-07  0.442E-05    0.64      98.7  T
     SCC iter.                  ...        0 min, 11.371 sec
     gradient                   ...        0 min,  1.570 sec
 * total energy  :  -973.2855218 Eh     change       -0.5125058E-02 Eh
   gradient norm :     0.0332089 Eh/a0  converged?    E=F G=F D=F
   step length   :     2.9747795 a0

........................................................................
.............................. CYCLE   24 ..............................
........................................................................
   1   -987.8886480 -0.987889E+03  0.236E-03    0.64       0.0  T
   2   -987.8886506 -0.261085E-05  0.139E-03    0.64       3.1  T
   3   -987.8886513 -0.751045E-06  0.698E-04    0.64       6.2  T
   4   -987.8886511  0.222303E-06  0.543E-04    0.64       8.0  T
   5   -987.8886515 -0.338532E-06  0.184E-04    0.64      23.8  T
   6   -987.8886515 -0.465285E-07  0.596E-05    0.64      73.2  T
     SCC iter.                  ...        0 min,  9.760 sec
     gradient                   ...        0 min,  1.567 sec
 * total energy  :  -973.2900169 Eh     change       -0.4495141E-02 Eh
   gradient norm :     0.0424651 Eh/a0  converged?    E=F G=F D=F
   step length   :     5.2505355 a0

........................................................................
.............................. CYCLE   25 ..............................
........................................................................
   1   -987.8862684 -0.987886E+03  0.203E-03    0.64       0.0  T
   2   -987.8862694 -0.100757E-05  0.110E-03    0.64       4.0  T
   3   -987.8862696 -0.175582E-06  0.665E-04    0.64       6.6  T
   4   -987.8862695  0.117412E-06  0.469E-04    0.64       9.3  T
   5   -987.8862698 -0.304723E-06  0.152E-04    0.64      28.6  T
   6   -987.8862698 -0.388111E-07  0.385E-05    0.64     113.4  T
     SCC iter.                  ...        0 min,  9.751 sec
     gradient                   ...        0 min,  1.564 sec
 * total energy  :  -973.2941012 Eh     change       -0.4084285E-02 Eh
   gradient norm :     0.0460438 Eh/a0  converged?    E=F G=F D=F
   step length   :     6.2417151 a0

........................................................................
.............................. CYCLE   26 ..............................
........................................................................
   1   -987.8861992 -0.987886E+03  0.199E-03    0.64       0.0  T
   2   -987.8862001 -0.888568E-06  0.104E-03    0.64       4.2  T
   3   -987.8862002 -0.127347E-06  0.663E-04    0.64       6.6  T
   4   -987.8862002  0.817295E-09  0.434E-04    0.64      10.0  T
   5   -987.8862005 -0.230605E-06  0.130E-04    0.64      33.6  T
   6   -987.8862005 -0.263898E-07  0.401E-05    0.64     108.6  T
     SCC iter.                  ...        0 min,  9.751 sec
     gradient                   ...        0 min,  1.567 sec
 * total energy  :  -973.2978345 Eh     change       -0.3733283E-02 Eh
   gradient norm :     0.0455409 Eh/a0  converged?    E=F G=F D=F
   step length   :     6.5178877 a0

........................................................................
.............................. CYCLE   27 ..............................
........................................................................
   1   -987.8889529 -0.987889E+03  0.201E-03    0.64       0.0  T
   2   -987.8889541 -0.116396E-05  0.108E-03    0.64       4.0  T
   3   -987.8889544 -0.292764E-06  0.649E-04    0.64       6.7  T
   4   -987.8889544  0.132810E-07  0.460E-04    0.64       9.5  T
   5   -987.8889546 -0.259888E-06  0.113E-04    0.64      38.5  T
   6   -987.8889547 -0.154942E-07  0.453E-05    0.64      96.2  T
     SCC iter.                  ...        0 min,  9.760 sec
     gradient                   ...        0 min,  1.573 sec
 * total energy  :  -973.3012394 Eh     change       -0.3404910E-02 Eh
   gradient norm :     0.0427676 Eh/a0  converged?    E=F G=F D=F
   step length   :     6.1987834 a0

........................................................................
.............................. CYCLE   28 ..............................
........................................................................
   1   -987.8947465 -0.987895E+03  0.199E-03    0.64       0.0  T
   2   -987.8947480 -0.157908E-05  0.114E-03    0.64       3.8  T
   3   -987.8947485 -0.493702E-06  0.607E-04    0.64       7.2  T
   4   -987.8947485  0.752692E-07  0.471E-04    0.64       9.3  T
   5   -987.8947487 -0.267668E-06  0.113E-04    0.64      38.6  T
   6   -987.8947487 -0.127890E-07  0.466E-05    0.64      93.6  T
     SCC iter.                  ...        0 min,  9.781 sec
     gradient                   ...        0 min,  1.551 sec
 * total energy  :  -973.3043388 Eh     change       -0.3099427E-02 Eh
   gradient norm :     0.0380983 Eh/a0  converged?    E=F G=F D=F
   step length   :     5.6992920 a0

........................................................................
.............................. CYCLE   29 ..............................
........................................................................
   1   -987.9033000 -0.987903E+03  0.199E-03    0.65       0.0  T
   2   -987.9033018 -0.174704E-05  0.121E-03    0.65       3.6  T
   3   -987.9033024 -0.626218E-06  0.611E-04    0.65       7.1  T
   4   -987.9033023  0.142478E-06  0.500E-04    0.65       8.7  T
   5   -987.9033026 -0.321057E-06  0.114E-04    0.65      38.4  T
   6   -987.9033026 -0.108894E-07  0.478E-05    0.65      91.1  T
     SCC iter.                  ...        0 min,  9.739 sec
     gradient                   ...        0 min,  1.581 sec
 * total energy  :  -973.3071404 Eh     change       -0.2801560E-02 Eh
   gradient norm :     0.0325348 Eh/a0  converged?    E=F G=F D=F
   step length   :     5.4397770 a0

........................................................................
.............................. CYCLE   30 ..............................
........................................................................
   1   -987.9133859 -0.987913E+03  0.195E-03    0.65       0.0  T
   2   -987.9133877 -0.185423E-05  0.124E-03    0.65       3.5  T
   3   -987.9133884 -0.671598E-06  0.611E-04    0.65       7.1  T
   4   -987.9133882  0.180402E-06  0.509E-04    0.65       8.6  T
   5   -987.9133886 -0.340102E-06  0.119E-04    0.65      36.5  T
   6   -987.9133886 -0.124346E-07  0.485E-05    0.65      89.9  T
     SCC iter.                  ...        0 min,  9.770 sec
     gradient                   ...        0 min,  1.559 sec
 * total energy  :  -973.3096472 Eh     change       -0.2506756E-02 Eh
   gradient norm :     0.0264735 Eh/a0  converged?    E=F G=F D=F
   step length   :     5.4247859 a0

........................................................................
.............................. CYCLE   31 ..............................
........................................................................
   1   -987.9247492 -0.987925E+03  0.192E-03    0.66       0.0  T
   2   -987.9247510 -0.174272E-05  0.124E-03    0.66       3.5  T
   3   -987.9247516 -0.646427E-06  0.629E-04    0.66       6.9  T
   4   -987.9247514  0.200514E-06  0.509E-04    0.66       8.6  T
   5   -987.9247518 -0.355046E-06  0.121E-04    0.66      35.9  T
   6   -987.9247518 -0.143757E-07  0.470E-05    0.66      92.8  T
     SCC iter.                  ...        0 min,  9.758 sec
     gradient                   ...        0 min,  1.559 sec
 * total energy  :  -973.3118817 Eh     change       -0.2234559E-02 Eh
   gradient norm :     0.0205146 Eh/a0  converged?    E=F G=F D=F
   step length   :     5.1497791 a0

........................................................................
.............................. CYCLE   32 ..............................
........................................................................
   1   -987.9369795 -0.987937E+03  0.186E-03    0.66       0.0  T
   2   -987.9369811 -0.155698E-05  0.123E-03    0.66       3.6  T
   3   -987.9369817 -0.613576E-06  0.635E-04    0.66       6.9  T
   4   -987.9369815  0.207804E-06  0.506E-04    0.66       8.6  T
   5   -987.9369818 -0.365920E-06  0.124E-04    0.66      35.1  T
   6   -987.9369818 -0.160826E-07  0.489E-05    0.66      89.1  T
     SCC iter.                  ...        0 min,  9.759 sec
     gradient                   ...        0 min,  1.561 sec
 * total energy  :  -973.3138556 Eh     change       -0.1973889E-02 Eh
   gradient norm :     0.0150219 Eh/a0  converged?    E=F G=F D=F
   step length   :     4.6816725 a0

........................................................................
.............................. CYCLE   33 ..............................
........................................................................
   1   -987.9486760 -0.987949E+03  0.176E-03    0.67       0.0  T
   2   -987.9486773 -0.133519E-05  0.116E-03    0.67       3.8  T
   3   -987.9486779 -0.539313E-06  0.619E-04    0.67       7.0  T
   4   -987.9486777  0.163506E-06  0.474E-04    0.67       9.2  T
   5   -987.9486780 -0.318902E-06  0.126E-04    0.67      34.6  T
   6   -987.9486780 -0.181669E-07  0.474E-05    0.67      91.9  T
     SCC iter.                  ...        0 min,  9.742 sec
     gradient                   ...        0 min,  1.571 sec
 * total energy  :  -973.3155858 Eh     change       -0.1730202E-02 Eh
   gradient norm :     0.0107365 Eh/a0  converged?    E=F G=F D=F
   step length   :     4.6894243 a0

........................................................................
.............................. CYCLE   34 ..............................
........................................................................
   1   -987.9597776 -0.987960E+03  0.167E-03    0.67       0.0  T
   2   -987.9597787 -0.111107E-05  0.109E-03    0.67       4.0  T
   3   -987.9597792 -0.486575E-06  0.597E-04    0.67       7.3  T
   4   -987.9597791  0.116535E-06  0.440E-04    0.67       9.9  T
   5   -987.9597794 -0.271915E-06  0.126E-04    0.67      34.6  T
   6   -987.9597794 -0.199013E-07  0.482E-05    0.67      90.5  T
     SCC iter.                  ...        0 min,  9.748 sec
     gradient                   ...        0 min,  1.566 sec
 * total energy  :  -973.3171198 Eh     change       -0.1533961E-02 Eh
   gradient norm :     0.0080767 Eh/a0  converged?    E=F G=F D=F
   step length   :     4.9521339 a0

........................................................................
.............................. CYCLE   35 ..............................
........................................................................
   1   -987.9702723 -0.987970E+03  0.155E-03    0.68       0.0  T
   2   -987.9702732 -0.903740E-06  0.103E-03    0.68       4.3  T
   3   -987.9702736 -0.450040E-06  0.567E-04    0.68       7.7  T
   4   -987.9702736  0.745054E-07  0.402E-04    0.68      10.8  T
   5   -987.9702738 -0.217938E-06  0.125E-04    0.68      34.8  T
   6   -987.9702738 -0.205587E-07  0.458E-05    0.68      95.2  T
     SCC iter.                  ...        0 min,  9.765 sec
     gradient                   ...        0 min,  1.547 sec
 * total energy  :  -973.3184989 Eh     change       -0.1379154E-02 Eh
   gradient norm :     0.0079124 Eh/a0  converged?    E=F G=F D=F
   step length   :     4.4808095 a0

........................................................................
.............................. CYCLE   36 ..............................
........................................................................
   1   -987.9800629 -0.987980E+03  0.141E-03    0.68       0.0  T
   2   -987.9800636 -0.733753E-06  0.932E-04    0.68       4.7  T
   3   -987.9800640 -0.397181E-06  0.523E-04    0.68       8.3  T
   4   -987.9800639  0.358237E-07  0.351E-04    0.68      12.4  T
   5   -987.9800641 -0.152793E-06  0.128E-04    0.68      34.0  T
   6   -987.9800641 -0.236710E-07  0.434E-05    0.68     100.5  T
     SCC iter.                  ...        0 min,  9.747 sec
     gradient                   ...        0 min,  1.567 sec
 * total energy  :  -973.3197722 Eh     change       -0.1273305E-02 Eh
   gradient norm :     0.0092367 Eh/a0  converged?    E=F G=F D=F
   step length   :     4.3208283 a0

........................................................................
.............................. CYCLE   37 ..............................
........................................................................
   1   -987.9888875 -0.987989E+03  0.130E-03    0.68       0.0  T
   2   -987.9888881 -0.599829E-06  0.861E-04    0.68       5.1  T
   3   -987.9888884 -0.372876E-06  0.478E-04    0.68       9.1  T
   4   -987.9888884  0.131362E-07  0.314E-04    0.68      13.9  T
   5   -987.9888885 -0.109755E-06  0.124E-04    0.68      35.1  T
   6   -987.9888886 -0.228590E-07  0.398E-05    0.68     109.5  T
     SCC iter.                  ...        0 min,  9.756 sec
     gradient                   ...        0 min,  1.552 sec
 * total energy  :  -973.3209739 Eh     change       -0.1201694E-02 Eh
   gradient norm :     0.0109454 Eh/a0  converged?    E=F G=F D=F
   step length   :     4.7632896 a0

........................................................................
.............................. CYCLE   38 ..............................
........................................................................
   1   -987.9965753 -0.987997E+03  0.120E-03    0.68       0.0  T
   2   -987.9965758 -0.501700E-06  0.794E-04    0.68       5.5  T
   3   -987.9965761 -0.332746E-06  0.440E-04    0.68       9.9  T
   4   -987.9965761  0.251828E-08  0.278E-04    0.68      15.7  T
   5   -987.9965762 -0.783763E-07  0.123E-04    0.68      35.6  T
   6   -987.9965762 -0.233750E-07  0.369E-05    0.68     118.1  T
     SCC iter.                  ...        0 min,  9.756 sec
     gradient                   ...        0 min,  1.558 sec
 * total energy  :  -973.3221260 Eh     change       -0.1152089E-02 Eh
   gradient norm :     0.0126018 Eh/a0  converged?    E=F G=F D=F
   step length   :     5.5765711 a0

........................................................................
.............................. CYCLE   39 ..............................
........................................................................
   1   -988.0036029 -0.988004E+03  0.111E-03    0.69       0.0  T
   2   -988.0036034 -0.435642E-06  0.727E-04    0.69       6.0  T
   3   -988.0036037 -0.291126E-06  0.399E-04    0.69      10.9  T
   4   -988.0036037 -0.373450E-08  0.248E-04    0.69      17.6  T
   5   -988.0036037 -0.539010E-07  0.119E-04    0.69      36.7  T
   6   -988.0036037 -0.221094E-07  0.332E-05    0.69     131.3  T
     SCC iter.                  ...        0 min,  9.750 sec
     gradient                   ...        0 min,  1.563 sec
 * total energy  :  -973.3232568 Eh     change       -0.1130738E-02 Eh
   gradient norm :     0.0137833 Eh/a0  converged?    E=F G=F D=F
   step length   :     5.7960522 a0

........................................................................
.............................. CYCLE   40 ..............................
........................................................................
   1   -988.0101541 -0.988010E+03  0.104E-03    0.69       0.0  T
   2   -988.0101545 -0.384451E-06  0.675E-04    0.69       6.5  T
   3   -988.0101547 -0.248357E-06  0.367E-04    0.69      11.9  T
   4   -988.0101547 -0.484397E-08  0.224E-04    0.69      19.5  T
   5   -988.0101548 -0.396251E-07  0.115E-04    0.69      38.0  T
   6   -988.0101548 -0.209393E-07  0.302E-05    0.69     144.5  T
     SCC iter.                  ...        0 min,  9.733 sec
     gradient                   ...        0 min,  1.574 sec
 * total energy  :  -973.3243894 Eh     change       -0.1132658E-02 Eh
   gradient norm :     0.0146631 Eh/a0  converged?    E=F G=F D=F
   step length   :     5.9830577 a0

........................................................................
.............................. CYCLE   41 ..............................
........................................................................
   1   -988.0161156 -0.988016E+03  0.990E-04    0.69       0.0  T
   2   -988.0161160 -0.346501E-06  0.619E-04    0.69       7.0  T
   3   -988.0161162 -0.199178E-06  0.339E-04    0.69      12.9  T
   4   -988.0161162 -0.817738E-08  0.204E-04    0.69      21.4  T
   5   -988.0161162 -0.293804E-07  0.109E-04    0.69      40.0  T
   6   -988.0161162 -0.191470E-07  0.277E-05    0.69     157.5  T
     SCC iter.                  ...        0 min,  9.774 sec
     gradient                   ...        0 min,  1.563 sec
 * total energy  :  -973.3255318 Eh     change       -0.1142337E-02 Eh
   gradient norm :     0.0151072 Eh/a0  converged?    E=F G=F D=F
   step length   :     6.6844133 a0

........................................................................
.............................. CYCLE   42 ..............................
........................................................................
   1   -988.0448532 -0.988045E+03  0.337E-03    0.69       0.0  T
   2   -988.0448561 -0.292158E-05  0.164E-03    0.69       2.7  T
   3   -988.0448564 -0.272883E-06  0.970E-04    0.69       4.5  T
   4   -988.0448562  0.182975E-06  0.513E-04    0.69       8.5  T
   5   -988.0448565 -0.313917E-06  0.157E-04    0.69      27.7  T
   6   -988.0448566 -0.411611E-07  0.484E-05    0.69      90.2  T
     SCC iter.                  ...        0 min,  9.755 sec
     gradient                   ...        0 min,  1.561 sec
 * total energy  :  -973.3275804 Eh     change       -0.2048699E-02 Eh
   gradient norm :     0.0149671 Eh/a0  converged?    E=F G=F D=F
   step length   :     7.3599436 a0
 * RMSD in coord.:     0.8611702 a0     energy gain  -0.5903194E-01 Eh
 * calculating model hessian...
Using Lindh-Hessian (1995)
 Shifting diagonal of input Hessian by    1.0003416027311687E-002
 Lowest  eigenvalues of input Hessian
    0.010000    0.010000    0.010001    0.010001    0.010002    0.010002
    0.010003    0.010003    0.000000    0.000000    0.000000    0.000000
    0.000000    0.000000    0.010004    0.010004    0.010005    0.010005
 Highest eigenvalues
    2.817542    2.817846    2.839360    2.839621    2.858990    2.859363


........................................................................
.............................. CYCLE   43 ..............................
........................................................................
   1   -988.0214188 -0.988021E+03  0.271E-03    0.68       0.0  T
   2   -988.0214202 -0.136366E-05  0.155E-03    0.68       2.8  T
   3   -988.0214202 -0.427926E-07  0.863E-04    0.68       5.1  T
   4   -988.0214200  0.171387E-06  0.494E-04    0.68       8.8  T
   5   -988.0214204 -0.363544E-06  0.143E-04    0.68      30.5  T
   6   -988.0214204 -0.322513E-07  0.276E-05    0.68     158.1  T
     SCC iter.                  ...        0 min,  9.739 sec
     gradient                   ...        0 min,  1.563 sec
 * total energy  :  -973.3284106 Eh     change       -0.8301360E-03 Eh
   gradient norm :     0.0069979 Eh/a0  converged?    E=F G=F D=F
   step length   :     0.2229231 a0

........................................................................
.............................. CYCLE   44 ..............................
........................................................................
   1   -987.9489415 -0.987949E+03  0.859E-03    0.67       0.0  T
   2   -987.9489570 -0.154426E-04  0.521E-03    0.67       1.0  T
   3   -987.9489593 -0.233723E-05  0.296E-03    0.67       1.5  T
   4   -987.9489552  0.413777E-05  0.196E-03    0.67       2.2  T
   5   -987.9489618 -0.658025E-05  0.627E-04    0.67       7.0  T
   6   -987.9489625 -0.727235E-06  0.140E-04    0.67      31.1  T
   7   -987.9489625 -0.322387E-07  0.533E-05    0.67      81.8  T
     SCC iter.                  ...        0 min, 11.379 sec
     gradient                   ...        0 min,  1.567 sec
 * total energy  :  -973.3283047 Eh     change        0.1059263E-03 Eh
   gradient norm :     0.0292532 Eh/a0  converged?    E=F G=F D=F
   step length   :     1.0717574 a0

........................................................................
.............................. CYCLE   45 ..............................
........................................................................
   1   -987.9594201 -0.987959E+03  0.351E-03    0.66       0.0  T
   2   -987.9594224 -0.231476E-05  0.284E-03    0.66       1.5  T
   3   -987.9594242 -0.180694E-05  0.149E-03    0.66       2.9  T
   4   -987.9594219  0.225554E-05  0.105E-03    0.66       4.2  T
   5   -987.9594244 -0.246843E-05  0.172E-04    0.66      25.4  T
   6   -987.9594244 -0.598330E-07  0.575E-05    0.66      75.8  T
   7   -987.9594245 -0.497016E-08  0.174E-05    0.66     251.1  T
     SCC iter.                  ...        0 min, 11.361 sec
     gradient                   ...        0 min,  1.572 sec
 * total energy  :  -973.3306043 Eh     change       -0.2299681E-02 Eh
   gradient norm :     0.0247062 Eh/a0  converged?    E=F G=F D=F
   step length   :     0.6108384 a0

........................................................................
.............................. CYCLE   46 ..............................
........................................................................
   1   -988.0001399 -0.988000E+03  0.410E-03    0.67       0.0  T
   2   -988.0001423 -0.238742E-05  0.241E-03    0.67       1.8  T
   3   -988.0001422  0.154421E-06  0.128E-03    0.67       3.4  T
   4   -988.0001418  0.381441E-06  0.810E-04    0.67       5.4  T
   5   -988.0001427 -0.935902E-06  0.207E-04    0.67      21.1  T
   6   -988.0001428 -0.670576E-07  0.465E-05    0.67      93.7  T
   7   -988.0001428 -0.286616E-08  0.181E-05    0.67     241.4  T
     SCC iter.                  ...        0 min, 11.371 sec
     gradient                   ...        0 min,  1.558 sec
 * total energy  :  -973.3317917 Eh     change       -0.1187316E-02 Eh
   gradient norm :     0.0130953 Eh/a0  converged?    E=F G=F D=F
   step length   :     0.3036740 a0

........................................................................
.............................. CYCLE   47 ..............................
........................................................................
   1   -988.0413914 -0.988041E+03  0.413E-03    0.67       0.0  T
   2   -988.0413936 -0.221333E-05  0.255E-03    0.67       1.7  T
   3   -988.0413932  0.360396E-06  0.148E-03    0.67       2.9  T
   4   -988.0413934 -0.173412E-06  0.898E-04    0.67       4.9  T
   5   -988.0413945 -0.114605E-05  0.281E-04    0.67      15.5  T
   6   -988.0413947 -0.142250E-06  0.565E-05    0.67      77.2  T
   7   -988.0413947 -0.470152E-08  0.202E-05    0.67     216.1  T
     SCC iter.                  ...        0 min, 11.353 sec
     gradient                   ...        0 min,  1.579 sec
 * total energy  :  -973.3333867 Eh     change       -0.1595019E-02 Eh
   gradient norm :     0.0098027 Eh/a0  converged?    E=F G=F D=F
   step length   :     1.4133278 a0

........................................................................
.............................. CYCLE   48 ..............................
........................................................................
   1   -988.0591482 -0.988059E+03  0.220E-03    0.67       0.0  T
   2   -988.0591491 -0.870230E-06  0.144E-03    0.67       3.0  T
   3   -988.0591495 -0.422826E-06  0.842E-04    0.67       5.2  T
   4   -988.0591495 -0.317790E-07  0.496E-04    0.67       8.8  T
   5   -988.0591498 -0.291792E-06  0.179E-04    0.67      24.4  T
   6   -988.0591499 -0.555971E-07  0.441E-05    0.67      98.9  T
     SCC iter.                  ...        0 min,  9.769 sec
     gradient                   ...        0 min,  1.560 sec
 * total energy  :  -973.3347428 Eh     change       -0.1356136E-02 Eh
   gradient norm :     0.0114312 Eh/a0  converged?    E=F G=F D=F
   step length   :     4.2089901 a0

........................................................................
.............................. CYCLE   49 ..............................
........................................................................
   1   -988.0607702 -0.988061E+03  0.147E-03    0.67       0.0  T
   2   -988.0607708 -0.620519E-06  0.884E-04    0.67       4.9  T
   3   -988.0607712 -0.337955E-06  0.503E-04    0.67       8.7  T
   4   -988.0607712 -0.613617E-07  0.316E-04    0.67      13.8  T
   5   -988.0607713 -0.881464E-07  0.120E-04    0.67      36.3  T
   6   -988.0607713 -0.228604E-07  0.391E-05    0.67     111.5  T
     SCC iter.                  ...        0 min,  9.775 sec
     gradient                   ...        0 min,  1.570 sec
 * total energy  :  -973.3357429 Eh     change       -0.1000119E-02 Eh
   gradient norm :     0.0118984 Eh/a0  converged?    E=F G=F D=F
   step length   :     3.8182749 a0

........................................................................
.............................. CYCLE   50 ..............................
........................................................................
   1   -988.0609624 -0.988061E+03  0.138E-03    0.67       0.0  T
   2   -988.0609629 -0.512575E-06  0.752E-04    0.67       5.8  T
   3   -988.0609631 -0.168706E-06  0.463E-04    0.67       9.4  T
   4   -988.0609631 -0.770966E-07  0.280E-04    0.67      15.6  T
   5   -988.0609632 -0.755722E-07  0.102E-04    0.67      42.7  T
   6   -988.0609632 -0.148418E-07  0.371E-05    0.67     117.5  T
     SCC iter.                  ...        0 min,  9.762 sec
     gradient                   ...        0 min,  1.567 sec
 * total energy  :  -973.3365836 Eh     change       -0.8406513E-03 Eh
   gradient norm :     0.0115402 Eh/a0  converged?    E=F G=F D=F
   step length   :     4.4272067 a0

........................................................................
.............................. CYCLE   51 ..............................
........................................................................
   1   -988.0654345 -0.988065E+03  0.127E-03    0.67       0.0  T
   2   -988.0654350 -0.455124E-06  0.659E-04    0.67       6.6  T
   3   -988.0654351 -0.947551E-07  0.405E-04    0.67      10.8  T
   4   -988.0654351 -0.247018E-07  0.253E-04    0.67      17.2  T
   5   -988.0654352 -0.744963E-07  0.832E-05    0.67      52.4  T
   6   -988.0654352 -0.844977E-08  0.273E-05    0.67     159.5  T
     SCC iter.                  ...        0 min,  9.748 sec
     gradient                   ...        0 min,  1.563 sec
 * total energy  :  -973.3373465 Eh     change       -0.7629352E-03 Eh
   gradient norm :     0.0103328 Eh/a0  converged?    E=F G=F D=F
   step length   :     3.4621983 a0

........................................................................
.............................. CYCLE   52 ..............................
........................................................................
   1   -988.0698041 -0.988070E+03  0.126E-03    0.67       0.0  T
   2   -988.0698046 -0.469755E-06  0.628E-04    0.67       6.9  T
   3   -988.0698047 -0.926643E-07  0.387E-04    0.67      11.3  T
   4   -988.0698047 -0.139382E-07  0.234E-04    0.67      18.7  T
   5   -988.0698048 -0.605862E-07  0.902E-05    0.67      48.3  T
   6   -988.0698048 -0.115184E-07  0.305E-05    0.67     142.8  T
     SCC iter.                  ...        0 min,  9.751 sec
     gradient                   ...        0 min,  1.574 sec
 * total energy  :  -973.3380323 Eh     change       -0.6858069E-03 Eh
   gradient norm :     0.0089839 Eh/a0  converged?    E=F G=F D=F
   step length   :     3.1581937 a0

........................................................................
.............................. CYCLE   53 ..............................
........................................................................
   1   -988.0744358 -0.988074E+03  0.127E-03    0.67       0.0  T
   2   -988.0744363 -0.493333E-06  0.632E-04    0.67       6.9  T
   3   -988.0744364 -0.132717E-06  0.384E-04    0.67      11.4  T
   4   -988.0744364 -0.258075E-07  0.223E-04    0.67      19.6  T
   5   -988.0744365 -0.435758E-07  0.102E-04    0.67      42.7  T
   6   -988.0744365 -0.169991E-07  0.337E-05    0.67     129.3  T
     SCC iter.                  ...        0 min,  9.756 sec
     gradient                   ...        0 min,  1.563 sec
 * total energy  :  -973.3386959 Eh     change       -0.6635664E-03 Eh
   gradient norm :     0.0078280 Eh/a0  converged?    E=F G=F D=F
   step length   :     3.4690322 a0

........................................................................
.............................. CYCLE   54 ..............................
........................................................................
   1   -988.0802579 -0.988080E+03  0.127E-03    0.67       0.0  T
   2   -988.0802585 -0.548985E-06  0.664E-04    0.67       6.6  T
   3   -988.0802587 -0.204510E-06  0.383E-04    0.67      11.4  T
   4   -988.0802587 -0.304982E-07  0.217E-04    0.67      20.1  T
   5   -988.0802587 -0.260019E-07  0.114E-04    0.67      38.4  T
   6   -988.0802587 -0.235435E-07  0.351E-05    0.67     124.2  T
     SCC iter.                  ...        0 min,  9.752 sec
     gradient                   ...        0 min,  1.574 sec
 * total energy  :  -973.3393712 Eh     change       -0.6753537E-03 Eh
   gradient norm :     0.0069106 Eh/a0  converged?    E=F G=F D=F
   step length   :     3.9199624 a0

........................................................................
.............................. CYCLE   55 ..............................
........................................................................
   1   -988.0847132 -0.988085E+03  0.119E-03    0.67       0.0  T
   2   -988.0847137 -0.476745E-06  0.624E-04    0.67       7.0  T
   3   -988.0847139 -0.222883E-06  0.349E-04    0.67      12.5  T
   4   -988.0847140 -0.376691E-07  0.193E-04    0.67      22.6  T
   5   -988.0847140 -0.112501E-07  0.113E-04    0.67      38.5  T
     SCC iter.                  ...        0 min,  8.140 sec
     gradient                   ...        0 min,  1.571 sec
 * total energy  :  -973.3400551 Eh     change       -0.6838687E-03 Eh
   gradient norm :     0.0064394 Eh/a0  converged?    E=F G=F D=F
   step length   :     4.6321635 a0

........................................................................
.............................. CYCLE   56 ..............................
........................................................................
   1   -988.0897454 -0.988090E+03  0.115E-03    0.67       0.0  T
   2   -988.0897459 -0.474728E-06  0.631E-04    0.67       6.9  T
   3   -988.0897462 -0.264715E-06  0.334E-04    0.67      13.1  T
   4   -988.0897462 -0.354008E-07  0.177E-04    0.67      24.6  T
   5   -988.0897462 -0.251362E-08  0.101E-04    0.67      43.1  T
     SCC iter.                  ...        0 min,  8.141 sec
     gradient                   ...        0 min,  1.564 sec
 * total energy  :  -973.3407688 Eh     change       -0.7136502E-03 Eh
   gradient norm :     0.0063264 Eh/a0  converged?    E=F G=F D=F
   step length   :     5.5258768 a0

........................................................................
.............................. CYCLE   57 ..............................
........................................................................
   1   -988.0938253 -0.988094E+03  0.104E-03    0.67       0.0  T
   2   -988.0938257 -0.387281E-06  0.574E-04    0.67       7.6  T
   3   -988.0938259 -0.234128E-06  0.295E-04    0.67      14.8  T
   4   -988.0938260 -0.282857E-07  0.155E-04    0.67      28.1  T
   5   -988.0938260  0.143939E-08  0.934E-05    0.67      46.7  T
     SCC iter.                  ...        0 min,  8.135 sec
     gradient                   ...        0 min,  1.573 sec
 * total energy  :  -973.3414983 Eh     change       -0.7295525E-03 Eh
   gradient norm :     0.0065729 Eh/a0  converged?    E=F G=F D=F
   step length   :     6.6454530 a0

........................................................................
.............................. CYCLE   58 ..............................
........................................................................
   1   -988.0979697 -0.988098E+03  0.969E-04    0.67       0.0  T
   2   -988.0979700 -0.351252E-06  0.550E-04    0.67       7.9  T
   3   -988.0979702 -0.222141E-06  0.275E-04    0.67      15.8  T
   4   -988.0979703 -0.227312E-07  0.148E-04    0.67      29.4  T
   5   -988.0979703  0.252760E-08  0.907E-05    0.67      48.1  T
     SCC iter.                  ...        0 min,  8.157 sec
     gradient                   ...        0 min,  1.562 sec
 * total energy  :  -973.3422491 Eh     change       -0.7507418E-03 Eh
   gradient norm :     0.0069444 Eh/a0  converged?    E=F G=F D=F
   step length   :     7.8750735 a0

........................................................................
.............................. CYCLE   59 ..............................
........................................................................
   1   -988.1017380 -0.988102E+03  0.878E-04    0.67       0.0  T
   2   -988.1017383 -0.284172E-06  0.503E-04    0.67       8.7  T
   3   -988.1017385 -0.186264E-06  0.250E-04    0.67      17.4  T
   4   -988.1017385 -0.173559E-07  0.136E-04    0.67      32.2  T
   5   -988.1017385  0.220064E-08  0.838E-05    0.67      52.1  T
     SCC iter.                  ...        0 min,  8.139 sec
     gradient                   ...        0 min,  1.574 sec
 * total energy  :  -973.3430100 Eh     change       -0.7609908E-03 Eh
   gradient norm :     0.0074647 Eh/a0  converged?    E=F G=F D=F
   step length   :     9.1962132 a0

........................................................................
.............................. CYCLE   60 ..............................
........................................................................
   1   -988.1052589 -0.988105E+03  0.814E-04    0.67       0.0  T
   2   -988.1052592 -0.245810E-06  0.471E-04    0.67       9.3  T
   3   -988.1052593 -0.162514E-06  0.233E-04    0.67      18.7  T
   4   -988.1052594 -0.134728E-07  0.129E-04    0.67      33.7  T
   5   -988.1052594  0.216437E-08  0.810E-05    0.67      53.8  T
     SCC iter.                  ...        0 min,  8.146 sec
     gradient                   ...        0 min,  1.563 sec
 * total energy  :  -973.3437808 Eh     change       -0.7707582E-03 Eh
   gradient norm :     0.0079274 Eh/a0  converged?    E=F G=F D=F
   step length   :    10.2657816 a0

........................................................................
.............................. CYCLE   61 ..............................
........................................................................
   1   -988.1089329 -0.988109E+03  0.758E-04    0.67       0.0  T
   2   -988.1089331 -0.214360E-06  0.440E-04    0.67       9.9  T
   3   -988.1089333 -0.136127E-06  0.219E-04    0.67      19.9  T
   4   -988.1089333 -0.102589E-07  0.122E-04    0.67      35.7  T
   5   -988.1089333  0.667796E-09  0.730E-05    0.67      59.8  T
     SCC iter.                  ...        0 min,  8.154 sec
     gradient                   ...        0 min,  1.558 sec
 * total energy  :  -973.3445608 Eh     change       -0.7800384E-03 Eh
   gradient norm :     0.0084008 Eh/a0  converged?    E=F G=F D=F
   step length   :    10.7938847 a0

........................................................................
.............................. CYCLE   62 ..............................
........................................................................
   1   -988.1121678 -0.988112E+03  0.699E-04    0.67       0.0  T
   2   -988.1121680 -0.177614E-06  0.404E-04    0.67      10.8  T
   3   -988.1121681 -0.108126E-06  0.204E-04    0.67      21.4  T
   4   -988.1121681 -0.694183E-08  0.115E-04    0.67      37.9  T
   5   -988.1121681 -0.200203E-09  0.682E-05    0.67      63.9  T
     SCC iter.                  ...        0 min,  8.160 sec
     gradient                   ...        0 min,  1.565 sec
 * total energy  :  -973.3453437 Eh     change       -0.7828142E-03 Eh
[...]
   290   6 C      291   6 C                                       1.4098179
   291   6 C      292   6 C                                       1.4087323
   292   6 C      293   6 C                                       1.4185852
   293   6 C      294   6 C                                       1.3682948
   294   6 C      295   6 C                                       1.4214788
   295   6 C      296   6 C                                       1.4006260
   297   6 C      298   6 C                                       1.3974459
   298   6 C      299   6 C                                       1.3826024
   299   6 C      300   6 C                                       1.3961621
   301   6 C      302   8 O                                       1.3414047
   301   6 C      303   8 O                                       1.2046483
   300   6 C      304   6 C                                       1.3950948
   297   6 C      305   6 C                                       1.3971643
   304   6 C      305   6 C                                       1.3839996
   296   6 C      306   6 C                                       1.3958936
   306   6 C      307   6 C                                       1.4521864
   307   6 C      308   6 C                                       1.3490401
   279   6 C      309   6 C                                       1.4096898
   308   6 C      309   6 C                                       1.4495042
   306   6 C      310   7 N                                       1.3616630
   309   6 C      310   7 N                                       1.3482368
   292   6 C      311   7 N                                       1.3628791
   295   6 C      311   7 N                                       1.3691534
   312   6 C      313   6 C                                       1.3974505
   313   6 C      314   6 C                                       1.3826956
   314   6 C      315   6 C                                       1.3961116
   316   6 C      317   8 O                                       1.3413987
   316   6 C      318   8 O                                       1.2046618
   315   6 C      319   6 C                                       1.3951649
   312   6 C      320   6 C                                       1.3971848
   319   6 C      320   6 C                                       1.3838785
   281   6 C      321   1 H                                       1.0780007
   282   6 C      322   1 H                                       1.0776831
   284   7 N      323   1 H                                       1.0145235
   287   6 C      324   1 H                                       1.0778718
   288   6 C      325   1 H                                       1.0782375
   293   6 C      326   1 H                                       1.0780058
   294   6 C      327   1 H                                       1.0777000
   298   6 C      328   1 H                                       1.0840149
   299   6 C      329   1 H                                       1.0844721
   302   8 O      330   1 H                                       0.9710346
   304   6 C      331   1 H                                       1.0835828
   305   6 C      332   1 H                                       1.0842343
   307   6 C      333   1 H                                       1.0778492
   308   6 C      334   1 H                                       1.0782351
   311   7 N      335   1 H                                       1.0145243
   313   6 C      336   1 H                                       1.0841265
   314   6 C      337   1 H                                       1.0844896
   317   8 O      338   1 H                                       0.9710068
   319   6 C      339   1 H                                       1.0835655
   320   6 C      340   1 H                                       1.0841199
   341   6 C      342   6 C                                       1.4087484
   342   6 C      343   6 C                                       1.4185863
   343   6 C      344   6 C                                       1.3682992
   344   6 C      345   6 C                                       1.4214560
   342   6 C      346   7 N                                       1.3628972
   345   6 C      346   7 N                                       1.3691186
   345   6 C      347   6 C                                       1.4007035
   347   6 C      348   6 C                                       1.3958397
   348   6 C      349   6 C                                       1.4521978
   349   6 C      350   6 C                                       1.3490452
   348   6 C      351   7 N                                       1.3616877
   350   6 C      352   6 C                                       1.4495384
   351   7 N      352   6 C                                       1.3481436
   352   6 C      353   6 C                                       1.4097301
   353   6 C      354   6 C                                       1.4086678
   354   6 C      355   6 C                                       1.4185817
   355   6 C      356   6 C                                       1.3682932
   356   6 C      357   6 C                                       1.4214641
   357   6 C      358   6 C                                       1.4006405
   359   6 C      360   6 C                                       1.3974098
   360   6 C      361   6 C                                       1.3826351
   361   6 C      362   6 C                                       1.3961441
   363   6 C      364   8 O                                       1.3414389
   363   6 C      365   8 O                                       1.2046312
   362   6 C      366   6 C                                       1.3951186
   359   6 C      367   6 C                                       1.3971881
   366   6 C      367   6 C                                       1.3839640
   358   6 C      368   6 C                                       1.3958333
   368   6 C      369   6 C                                       1.4521606
   369   6 C      370   6 C                                       1.3490489
   341   6 C      371   6 C                                       1.4098049
   370   6 C      371   6 C                                       1.4495387
   368   6 C      372   7 N                                       1.3617432
   371   6 C      372   7 N                                       1.3481974
   354   6 C      373   7 N                                       1.3628371
   357   6 C      373   7 N                                       1.3691067
   374   6 C      375   6 C                                       1.3974383
   375   6 C      376   6 C                                       1.3827038
   376   6 C      377   6 C                                       1.3961061
   378   6 C      379   8 O                                       1.3413944
   378   6 C      380   8 O                                       1.2046726
   377   6 C      381   6 C                                       1.3951682
   374   6 C      382   6 C                                       1.3971981
   381   6 C      382   6 C                                       1.3838819
   343   6 C      383   1 H                                       1.0779999
   344   6 C      384   1 H                                       1.0776875
   346   7 N      385   1 H                                       1.0145252
   349   6 C      386   1 H                                       1.0778706
   350   6 C      387   1 H                                       1.0782395
   355   6 C      388   1 H                                       1.0780052
   356   6 C      389   1 H                                       1.0776962
   360   6 C      390   1 H                                       1.0840133
   361   6 C      391   1 H                                       1.0844785
   364   8 O      392   1 H                                       0.9710336
   366   6 C      393   1 H                                       1.0835775
   367   6 C      394   1 H                                       1.0842320
   369   6 C      395   1 H                                       1.0778622
   370   6 C      396   1 H                                       1.0782329
   373   7 N      397   1 H                                       1.0145208
   375   6 C      398   1 H                                       1.0841225
   376   6 C      399   1 H                                       1.0844928
   379   8 O      400   1 H                                       0.9710101
   381   6 C      401   1 H                                       1.0835673
   382   6 C      402   1 H                                       1.0841260
   403   6 C      404   6 C                                       1.4087246
   404   6 C      405   6 C                                       1.4186769
   405   6 C      406   6 C                                       1.3682780
   406   6 C      407   6 C                                       1.4214173
   404   6 C      408   7 N                                       1.3627875
   407   6 C      408   7 N                                       1.3691876
   407   6 C      409   6 C                                       1.4005590
   409   6 C      410   6 C                                       1.3958795
   410   6 C      411   6 C                                       1.4521090
   411   6 C      412   6 C                                       1.3490468
   410   6 C      413   7 N                                       1.3616519
   412   6 C      414   6 C                                       1.4495622
   413   7 N      414   6 C                                       1.3481503
   414   6 C      415   6 C                                       1.4095421
   415   6 C      416   6 C                                       1.4085992
   416   6 C      417   6 C                                       1.4186003
   417   6 C      418   6 C                                       1.3682870
   418   6 C      419   6 C                                       1.4214242
   419   6 C      420   6 C                                       1.4006235
   421   6 C      422   6 C                                       1.3973805
   422   6 C      423   6 C                                       1.3826657
   423   6 C      424   6 C                                       1.3961382
   425   6 C      426   8 O                                       1.3414917
   425   6 C      427   8 O                                       1.2046371
   424   6 C      428   6 C                                       1.3951415
   421   6 C      429   6 C                                       1.3972173
   428   6 C      429   6 C                                       1.3839341
   420   6 C      430   6 C                                       1.3957447
   430   6 C      431   6 C                                       1.4520646
   431   6 C      432   6 C                                       1.3490513
   403   6 C      433   6 C                                       1.4098078
   432   6 C      433   6 C                                       1.4496409
   430   6 C      434   7 N                                       1.3618023
   433   6 C      434   7 N                                       1.3481023
   416   6 C      435   7 N                                       1.3627846
   419   6 C      435   7 N                                       1.3690250
   436   6 C      437   6 C                                       1.3974160
   437   6 C      438   6 C                                       1.3827253
   438   6 C      439   6 C                                       1.3961074
   440   6 C      441   8 O                                       1.3413852
   440   6 C      442   8 O                                       1.2046808
   439   6 C      443   6 C                                       1.3951737
   436   6 C      444   6 C                                       1.3972277
   443   6 C      444   6 C                                       1.3838637
   405   6 C      445   1 H                                       1.0779976
   406   6 C      446   1 H                                       1.0776932
   408   7 N      447   1 H                                       1.0145335
   411   6 C      448   1 H                                       1.0778701
   412   6 C      449   1 H                                       1.0782357
   417   6 C      450   1 H                                       1.0780048
   418   6 C      451   1 H                                       1.0776901
   422   6 C      452   1 H                                       1.0840126
   423   6 C      453   1 H                                       1.0844819
   426   8 O      454   1 H                                       0.9710207
   428   6 C      455   1 H                                       1.0835735
   429   6 C      456   1 H                                       1.0842252
   431   6 C      457   1 H                                       1.0778729
   432   6 C      458   1 H                                       1.0782299
   435   7 N      459   1 H                                       1.0145244
   437   6 C      460   1 H                                       1.0841213
   438   6 C      461   1 H                                       1.0844943
   441   8 O      462   1 H                                       0.9710323
   443   6 C      463   1 H                                       1.0835700
   444   6 C      464   1 H                                       1.0841266
   465   6 C      466   6 C                                       1.4083938
   466   6 C      467   6 C                                       1.4190103
   467   6 C      468   6 C                                       1.3680561
   468   6 C      469   6 C                                       1.4216838
   466   6 C      470   7 N                                       1.3627085
   469   6 C      470   7 N                                       1.3692847
   469   6 C      471   6 C                                       1.4000119
   471   6 C      472   6 C                                       1.3966432
   472   6 C      473   6 C                                       1.4523435
   473   6 C      474   6 C                                       1.3488830
   472   6 C      475   7 N                                       1.3604341
   474   6 C      476   6 C                                       1.4496970
   475   7 N      476   6 C                                       1.3493784
   476   6 C      477   6 C                                       1.4078568
   477   6 C      478   6 C                                       1.4071482
   478   6 C      479   6 C                                       1.4190332
   479   6 C      480   6 C                                       1.3680205
   480   6 C      481   6 C                                       1.4216917
   481   6 C      482   6 C                                       1.4007072
   483   6 C      484   6 C                                       1.3973853
   484   6 C      485   6 C                                       1.3827019
   485   6 C      486   6 C                                       1.3961827
   487   6 C      488   8 O                                       1.3415624
   487   6 C      489   8 O                                       1.2047450
   486   6 C      490   6 C                                       1.3951700
   483   6 C      491   6 C                                       1.3973957
   490   6 C      491   6 C                                       1.3838210
   482   6 C      492   6 C                                       1.3957764
   492   6 C      493   6 C                                       1.4521116
   493   6 C      494   6 C                                       1.3490410
   465   6 C      495   6 C                                       1.4097766
   494   6 C      495   6 C                                       1.4497810
   492   6 C      496   7 N                                       1.3617370
   495   6 C      496   7 N                                       1.3479620
   478   6 C      497   7 N                                       1.3632955
   481   6 C      497   7 N                                       1.3685785
   498   6 C      499   6 C                                       1.3974061
   499   6 C      500   6 C                                       1.3827779
   500   6 C      501   6 C                                       1.3961285
   502   6 C      503   8 O                                       1.3415370
   502   6 C      504   8 O                                       1.2047383
   501   6 C      505   6 C                                       1.3952265
   498   6 C      506   6 C                                       1.3973888
   505   6 C      506   6 C                                       1.3837300
   467   6 C      507   1 H                                       1.0780019
   468   6 C      508   1 H                                       1.0777062
   470   7 N      509   1 H                                       1.0145056
   473   6 C      510   1 H                                       1.0778750
   474   6 C      511   1 H                                       1.0781865
   479   6 C      512   1 H                                       1.0780028
   480   6 C      513   1 H                                       1.0777151
   484   6 C      514   1 H                                       1.0839970
   485   6 C      515   1 H                                       1.0844833
   488   8 O      516   1 H                                       0.9710420
   490   6 C      517   1 H                                       1.0835792
   491   6 C      518   1 H                                       1.0842495
   493   6 C      519   1 H                                       1.0778717
   494   6 C      520   1 H                                       1.0782425
   497   7 N      521   1 H                                       1.0145270
   499   6 C      522   1 H                                       1.0841194
   500   6 C      523   1 H                                       1.0844981
   503   8 O      524   1 H                                       0.9710081
   505   6 C      525   1 H                                       1.0835615
   506   6 C      526   1 H                                       1.0841263

 * 6 distinct bonds (by element types)

   Z      Z             #   av. dist./Å        max./Å        min./Å
   1 H    6 C         130     1.0810997     1.0853577     1.0776685
   6 C    6 C         268     1.3916724     1.4525110     1.2214200
   1 H    7 N          16     1.0145513     1.0147342     1.0145056
   6 C    7 N          64     1.3604597     1.3695404     1.3479620
   1 H    8 O          16     0.9710148     0.9710420     0.9709810
   6 C    8 O          32     1.2731061     1.3417962     1.2045947


optimized geometry written to: xtbopt.xyz


           -------------------------------------------------
          | TOTAL ENERGY             -973.361150942190 Eh   |
          | GRADIENT NORM               0.000625459134 Eh/α |
          | HOMO-LUMO GAP               0.667627108992 eV   |
           -------------------------------------------------

------------------------------------------------------------------------
 * finished run on 2022/07/30 at 08:06:32.551     
------------------------------------------------------------------------
 total:
 * wall-time:     0 d,  0 h, 27 min, 33.574 sec
 *  cpu-time:     0 d,  0 h, 27 min, 26.009 sec
 * ratio c/w:     0.995 speedup
 SCF:
 * wall-time:     0 d,  0 h,  2 min, 15.210 sec
 *  cpu-time:     0 d,  0 h,  2 min, 14.577 sec
 * ratio c/w:     0.995 speedup
 ANC optimizer:
 * wall-time:     0 d,  0 h, 25 min, 17.760 sec
 *  cpu-time:     0 d,  0 h, 25 min, 10.839 sec
 * ratio c/w:     0.995 speedup

