      -----------------------------------------------------------      
     |                   =====================                   |     
     |                           x T B                           |     
     |                   =====================                   |     
     |                         S. Grimme                         |     
     |          Mulliken Center for Theoretical Chemistry        |     
     |                    University of Bonn                     |     
      -----------------------------------------------------------      

   * xtb version 6.5.1 (b24c23e) compiled by 'conda@728c89f4b128' on 2022-07-12

   xtb is free software: you can redistribute it and/or modify it under
   the terms of the GNU Lesser General Public License as published by
   the Free Software Foundation, either version 3 of the License, or
   (at your option) any later version.
   
   xtb is distributed in the hope that it will be useful,
   but WITHOUT ANY WARRANTY; without even the implied warranty of
   MERCHANTABILITY or FITNESS FOR A PARTICULAR PURPOSE.  See the
   GNU Lesser General Public License for more details.
   
   Cite this work as:
   * C. Bannwarth, E. Caldeweyher, S. Ehlert, A. Hansen, P. Pracht,
     J. Seibert, S. Spicher, S. Grimme, WIREs Comput. Mol. Sci., 2020, 11,
     e01493. DOI: 10.1002/wcms.1493
   
   for GFN2-xTB:
   * C. Bannwarth, S. Ehlert and S. Grimme., J. Chem. Theory Comput., 2019,
     15, 1652-1671. DOI: 10.1021/acs.jctc.8b01176
   for GFN1-xTB:
   * S. Grimme, C. Bannwarth, P. Shushkov, J. Chem. Theory Comput., 2017,
     13, 1989-2009. DOI: 10.1021/acs.jctc.7b00118
   for GFN0-xTB:
   * P. Pracht, E. Caldeweyher, S. Ehlert, S. Grimme, ChemRxiv, 2019, preprint.
     DOI: 10.26434/chemrxiv.8326202.v1
   for GFN-FF:
   * S. Spicher and S. Grimme, Angew. Chem. Int. Ed., 2020, 59, 15665-15673.
     DOI: 10.1002/anie.202004239
   
   for ALPB and GBSA implicit solvation:
   * S. Ehlert, M. Stahn, S. Spicher, S. Grimme, J. Chem. Theory Comput.,
     2021, 17, 4250-4261. DOI: 10.1021/acs.jctc.1c00471
   
   for DFT-D4:
   * E. Caldeweyher, C. Bannwarth and S. Grimme, J. Chem. Phys., 2017,
     147, 034112. DOI: 10.1063/1.4993215
   * E. Caldeweyher, S. Ehlert, A. Hansen, H. Neugebauer, S. Spicher,
     C. Bannwarth and S. Grimme, J. Chem. Phys., 2019, 150, 154122.
     DOI: 10.1063/1.5090222
   * E. Caldeweyher, J.-M. Mewes, S. Ehlert and S. Grimme, Phys. Chem. Chem. Phys.
     2020, 22, 8499-8512. DOI: 10.1039/D0CP00502A
   
   for sTDA-xTB:
   * S. Grimme and C. Bannwarth, J. Chem. Phys., 2016, 145, 054103.
     DOI: 10.1063/1.4959605
   
   in the mass-spec context:
   * V. Asgeirsson, C. Bauer and S. Grimme, Chem. Sci., 2017, 8, 4879.
     DOI: 10.1039/c7sc00601b
   * J. Koopman and S. Grimme, ACS Omega 2019, 4, 12, 15120-15133.
     DOI: 10.1021/acsomega.9b02011
   
   for metadynamics refer to:
   * S. Grimme, J. Chem. Theory Comput., 2019, 155, 2847-2862
     DOI: 10.1021/acs.jctc.9b00143
   
   for SPH calculations refer to:
   * S. Spicher and S. Grimme, J. Chem. Theory Comput., 2021, 17, 1701-1714
     DOI: 10.1021/acs.jctc.0c01306
   
   with help from (in alphabetical order)
   P. Atkinson, C. Bannwarth, F. Bohle, G. Brandenburg, E. Caldeweyher
   M. Checinski, S. Dohm, S. Ehlert, S. Ehrlich, I. Gerasimov, C. Hölzer
   A. Katbashev, J. Koopman, C. Lavigne, S. Lehtola, F. März, M. Müller,
   F. Musil, H. Neugebauer, J. Pisarek, C. Plett, P. Pracht, F. Pultar,
   J. Seibert, P. Shushkov, S. Spicher, M. Stahn, M. Steiner, T. Strunk,
   J. Stückrath, T. Rose, and J. Unsleber
   
 * started run on 2022/07/30 at 08:06:32.574     

           -------------------------------------------------
          |                Calculation Setup                |
           -------------------------------------------------

          program call               : xtb xtbopt.xyz --gfn 1 --vipea
          hostname                   : cx3-14-14.cx3.hpc.ic.ac.uk
          coordinate file            : xtbopt.xyz
          omp threads                :                     1

   ID    Z sym.   atoms
    1    6 C      1-5, 7-10, 12-23, 26-31, 34-38, 41, 42, 64-68, 70-73,
                  75-86, 89-94, 97-101, 104, 105, 127-159, 161-164, 166-177,
                  180-185, 188-192, 195, 196, 217-221, 223-226, 228-239,
                  242-247, 250-254, 257, 258, 279-283, 285-288, 290-301,
                  304-309, 312-316, 319, 320, 341-345, 347-350, 352-363,
                  366-371, 374-378, 381, 382, 403-407, 409-412, 414-425,
                  428-433, 436-440, 443, 444, 465-469, 471-474, 476-487,
                  490-495, 498-502, 505, 506
    2    7 N      6, 11, 32, 33, 69, 74, 95, 96, 160, 165, 186, 187, 222,
                  227, 248, 249, 284, 289, 310, 311, 346, 351, 372, 373, 408,
                  413, 434, 435, 470, 475, 496, 497
    3    8 O      24, 25, 39, 40, 87, 88, 102, 103, 178, 179, 193, 194, 240,
                  241, 255, 256, 302, 303, 317, 318, 364, 365, 379, 380, 426,
                  427, 441, 442, 488, 489, 503, 504
    4    1 H      43-63, 106-126, 197-216, 259-278, 321-340, 383-402,
                  445-464, 507-526

           -------------------------------------------------
          |                 I P E A - x T B                 |
           -------------------------------------------------

        Reference                      10.1039/c7sc00601b
      * Hamiltonian:
        H0-scaling (s, p, d)           2.150000    2.300000    2.000000
        zeta-weighting                 0.000000
      * Dispersion:
        s8                             2.400000
        a1                             0.630000
        a2                             5.000000
        s9                             0.000000
      * Repulsion:
        kExp                           1.500000
        rExp                           1.000000
      * Coulomb:
        alpha                          1.000000
        third order                    atomic
        anisotropic                    false
      * Halogen bond correction:
        rad-scale                      1.300000
        damping                        0.440000


          ...................................................
          :                      SETUP                      :
          :.................................................:
          :  # basis functions                2144          :
          :  # atomic orbitals                2144          :
          :  # shells                         1416          :
          :  # electrons                      1714          :
          :  # halogen bonds                     0          :
          :  max. iterations                   250          :
          :  Hamiltonian                  GFN1-xTB          :
          :  restarted?                      false          :
          :  GBSA solvation                  false          :
          :  PC potential                    false          :
          :  electronic temp.          300.0000000     K    :
          :  accuracy                    1.0000000          :
          :  -> integral cutoff          0.2500000E+02      :
          :  -> integral neglect         0.1000000E-07      :
          :  -> SCF convergence          0.1000000E-05 Eh   :
          :  -> wf. convergence          0.2000000E-04 e    :
          :  Broyden damping             0.4000000          :
          ...................................................

 iter      E             dE          RMSdq      gap      omega  full diag
   1  -1101.4074594 -0.110141E+04  0.101E+01    0.50       0.0  T
   2  -1102.8591786 -0.145172E+01  0.625E+00    1.10       1.0  T
   3  -1087.9181354  0.149410E+02  0.467E+00    0.12       1.0  T
   4  -1106.3956858 -0.184776E+02  0.112E+00    1.07       1.0  T
   5  -1107.9203703 -0.152468E+01  0.270E-01    0.86       1.0  T
   6  -1108.0063806 -0.860102E-01  0.111E-01    0.90       1.0  T
   7  -1108.0170917 -0.107112E-01  0.515E-02    0.88       1.0  T
   8  -1108.0189774 -0.188568E-02  0.309E-02    0.88       1.0  T
   9  -1108.0192622 -0.284809E-03  0.214E-02    0.88       1.0  T
  10  -1108.0196396 -0.377394E-03  0.499E-03    0.88       1.0  T
  11  -1108.0196594 -0.197522E-04  0.201E-03    0.88       2.2  T
  12  -1108.0196625 -0.316151E-05  0.107E-03    0.88       4.1  T
  13  -1108.0196635 -0.986872E-06  0.506E-04    0.88       8.6  T
  14  -1108.0196637 -0.200194E-06  0.204E-04    0.88      21.4  T
  15  -1108.0196637 -0.359937E-07  0.791E-05    0.88      55.1  T
  16  -1108.0196637 -0.559771E-08  0.346E-05    0.88     126.1  T

   *** convergence criteria satisfied after 16 iterations ***

         #    Occupation            Energy/Eh            Energy/eV
      -------------------------------------------------------------
         1        2.0000           -1.0635557             -28.9408
       ...           ...                  ...                  ...
       851        2.0000           -0.3919763             -10.6662
       852        2.0000           -0.3874995             -10.5444
       853        2.0000           -0.3838591             -10.4453
       854        2.0000           -0.3807981             -10.3620
       855        2.0000           -0.3770611             -10.2604
       856        2.0000           -0.3728283             -10.1452
       857        2.0000           -0.3697221             -10.0607 (HOMO)
       858                         -0.3372888              -9.1781 (LUMO)
       859                         -0.3331200              -9.0647
       860                         -0.3280072              -8.9255
       861                         -0.3229445              -8.7878
       862                         -0.3191362              -8.6841
       ...                                ...                  ...
      2144                        574.6239196           15636.3127
      -------------------------------------------------------------
                  HL-Gap            0.0324333 Eh            0.8826 eV
             Fermi-level           -0.3534934 Eh           -9.6190 eV

 SCC (total)                   0 d,  0 h,  0 min, 48.848 sec
 SCC setup                      ...        0 min,  0.029 sec (  0.060%)
 Dispersion                     ...        0 min,  0.033 sec (  0.067%)
 classical contributions        ...        0 min,  0.008 sec (  0.017%)
 integral evaluation            ...        0 min,  1.916 sec (  3.921%)
 iterations                     ...        0 min, 42.814 sec ( 87.648%)
 molecular gradient             ...        0 min,  3.550 sec (  7.267%)
 printout                       ...        0 min,  0.498 sec (  1.020%)

         :::::::::::::::::::::::::::::::::::::::::::::::::::::
         ::                     SUMMARY                     ::
         :::::::::::::::::::::::::::::::::::::::::::::::::::::
         :: total energy           -1087.357443548989 Eh    ::
         :: gradient norm              0.159545295849 Eh/a0 ::
         :: HOMO-LUMO gap              0.882556239177 eV    ::
         ::.................................................::
         :: SCC energy             -1108.019663749218 Eh    ::
         :: -> electrostatic           1.059205752511 Eh    ::
         :: repulsion energy          21.116092505782 Eh    ::
         :: dispersion energy         -0.453872305552 Eh    ::
         :: halogen bond corr.         0.000000000000 Eh    ::
         :: add. restraining           0.000000000000 Eh    ::
         :: total charge               0.000000000041 e     ::
         :::::::::::::::::::::::::::::::::::::::::::::::::::::

           ------------------------------------------------- 
          |        vertical delta SCC IP calculation        |
           ------------------------------------------------- 
   1  -1107.6296224 -0.110763E+04  0.442E-02    0.88       0.0  T
   2  -1107.6252402  0.438218E-02  0.561E-02    0.82       1.0  T
   3  -1107.6323775 -0.713724E-02  0.285E-02    0.87       1.0  T
   4  -1107.6317645  0.612974E-03  0.283E-02    0.87       1.0  T
   5  -1107.6343235 -0.255894E-02  0.145E-02    0.87       1.0  T
   6  -1107.6347130 -0.389521E-03  0.684E-03    0.87       1.0  T
   7  -1107.6347584 -0.454406E-04  0.453E-03    0.87       1.0  T
   8  -1107.6348049 -0.465013E-04  0.198E-03    0.87       2.2  T
   9  -1107.6348111 -0.614365E-05  0.753E-04    0.87       5.8  T
  10  -1107.6348114 -0.386306E-06  0.377E-04    0.87      11.6  T
  11  -1107.6348116 -0.190616E-06  0.177E-04    0.87      24.7  T
  12  -1107.6348117 -0.424373E-07  0.782E-05    0.87      55.8  T
     SCC iter.                  ...        0 min, 32.122 sec
     gradient                   ...        0 min,  3.565 sec
------------------------------------------------------------------------
empirical IP shift (eV):    4.8455
delta SCC IP (eV):    5.6269
------------------------------------------------------------------------
           ------------------------------------------------- 
          |        vertical delta SCC EA calculation        |
           ------------------------------------------------- 
   1  -1108.3253497 -0.110833E+04  0.758E-02    0.13       0.0  T
   2  -1108.3310100 -0.566033E-02  0.698E-02    0.03       1.0  T
   3  -1108.3384035 -0.739351E-02  0.387E-02    0.09       1.0  T
   4  -1108.3388378 -0.434318E-03  0.306E-02    0.06       1.0  T
   5  -1108.3363127  0.252515E-02  0.308E-02    0.08       1.0  T
   6  -1108.3382141 -0.190140E-02  0.230E-02    0.08       1.0  T
   7  -1108.3404519 -0.223782E-02  0.647E-03    0.07       1.0  T
   8  -1108.3405061 -0.542220E-04  0.284E-03    0.06       1.5  T
   9  -1108.3405113 -0.514188E-05  0.194E-03    0.06       2.2  T
  10  -1108.3405152 -0.391172E-05  0.581E-04    0.06       7.5  T
  11  -1108.3405154 -0.254952E-06  0.319E-04    0.06      13.6  T
  12  -1108.3405155 -0.100786E-06  0.137E-04    0.06      31.9  T
  13  -1108.3405156 -0.163645E-07  0.638E-05    0.06      68.3  T
     SCC iter.                  ...        0 min, 34.767 sec
     gradient                   ...        0 min,  3.546 sec
------------------------------------------------------------------------
empirical EA shift (eV):    4.8455
delta SCC EA (eV):    3.8853
------------------------------------------------------------------------
           -------------------------------------------------
          |                Property Printout                |
           -------------------------------------------------

    * Orbital Energies and Occupations

         #    Occupation            Energy/Eh            Energy/eV
      -------------------------------------------------------------
         1        2.0000           -1.0447299             -28.4285
       ...           ...                  ...                  ...
       846        2.0000           -0.3685202             -10.0279
       847        2.0000           -0.3684730             -10.0267
       848        2.0000           -0.3680937             -10.0163
       849        2.0000           -0.3680166             -10.0142
       850        2.0000           -0.3644406              -9.9169
       851        2.0000           -0.3629234              -9.8756
       852        2.0000           -0.3601572              -9.8004
       853        2.0000           -0.3568694              -9.7109
       854        2.0000           -0.3523940              -9.5891
       855        2.0000           -0.3470882              -9.4447
       856        2.0000           -0.3417348              -9.2991
       857        2.0000           -0.3371522              -9.1744
       858        0.7683           -0.3047214              -8.2919 (HOMO)
       859        0.2261           -0.3024136              -8.2291 (LUMO)
       860        0.0053           -0.2986115              -8.1256
       861        0.0002           -0.2955253              -8.0417
       862        0.0000           -0.2935837              -7.9888
       863        0.0000           -0.2924892              -7.9590
       864        0.0000           -0.2908889              -7.9155
       865                         -0.2881762              -7.8417
       866                         -0.2872700              -7.8170
       867                         -0.2861019              -7.7852
       868                         -0.2850173              -7.7557
       869                         -0.2848824              -7.7520
       ...                                ...                  ...
      2144                        574.6557933           15637.1801
      -------------------------------------------------------------
                  HL-Gap            0.0023078 Eh            0.0628 eV
             Fermi-level           -0.3122781 Eh           -8.4975 eV

  Mulliken/CM5 charges         n(s)   n(p)   n(d)
     1C    -0.01958 -0.06042   1.090  2.930  0.000
     2C     0.06342  0.12381   1.105  2.831  0.000
     3C    -0.03270 -0.07803   1.082  2.951  0.000
     4C    -0.03151 -0.07648   1.076  2.955  0.000
     5C     0.06425  0.12823   1.102  2.834  0.000
     6N    -0.15759 -0.51056   1.312  3.846  0.000
     7C     0.00964  0.01539   1.091  2.899  0.000
     8C     0.06091  0.12910   1.119  2.820  0.000
     9C    -0.03646 -0.08248   1.085  2.951  0.000
    10C    -0.03611 -0.08157   1.091  2.945  0.000
    11N    -0.28352 -0.47016   1.293  3.991  0.000
    12C     0.06551  0.13623   1.130  2.804  0.000
    13C     0.01951  0.02671   1.086  2.894  0.000
    14C     0.06756  0.13243   1.110  2.823  0.000
    15C    -0.03119 -0.07564   1.081  2.951  0.000
    16C    -0.03130 -0.07628   1.075  2.956  0.000
    17C     0.06358  0.12698   1.100  2.837  0.000
    18C     0.00903  0.01484   1.091  2.900  0.000
    19C     0.01446  0.00586   1.092  2.894  0.000
    20C    -0.01800 -0.07119   1.076  2.942  0.000
    21C    -0.01192 -0.06351   1.090  2.922  0.000
    22C     0.00644  0.00295   1.089  2.905  0.000
    23C     0.23346  0.28837   1.194  2.573  0.000
    24O    -0.28006 -0.47659   1.680  4.600  0.000
    25O    -0.32936 -0.37907   1.629  4.701  0.000
    26C    -0.01403 -0.06566   1.088  2.926  0.000
    27C    -0.01819 -0.07149   1.078  2.940  0.000
    28C     0.06200  0.13143   1.121  2.817  0.000
    29C    -0.03693 -0.08295   1.087  2.950  0.000
    30C    -0.03789 -0.08429   1.092  2.945  0.000
    31C     0.06041  0.12608   1.126  2.814  0.000
    32N    -0.28562 -0.47271   1.293  3.993  0.000
    33N    -0.15578 -0.50799   1.314  3.842  0.000
    34C     0.01455  0.00592   1.092  2.893  0.000
    35C    -0.01931 -0.07250   1.076  2.943  0.000
    36C    -0.01438 -0.06601   1.088  2.927  0.000
    37C     0.00658  0.00309   1.089  2.905  0.000
    38C     0.23357  0.28849   1.194  2.573  0.000
    39O    -0.28027 -0.47680   1.681  4.600  0.000
    40O    -0.32883 -0.37853   1.629  4.700  0.000
    41C    -0.01133 -0.06293   1.091  2.921  0.000
    42C    -0.01671 -0.06997   1.078  2.938  0.000
    43H     0.03219  0.09123   0.968  0.000  0.000
    44H     0.04283  0.09952   0.957  0.000  0.000
    45H     0.03378  0.09249   0.966  0.000  0.000
    46H     0.16554  0.37387   0.834  0.000  0.000
    47H     0.02503  0.08380   0.975  0.000  0.000
    48H     0.02765  0.08573   0.972  0.000  0.000
    49H     0.03747  0.09561   0.963  0.000  0.000
    50H     0.03452  0.09331   0.965  0.000  0.000
    51H     0.03282  0.09074   0.967  0.000  0.000
    52H     0.04718  0.10767   0.953  0.000  0.000
    53H     0.24406  0.41988   0.756  0.000  0.000
    54H     0.04751  0.10875   0.952  0.000  0.000
    55H     0.03128  0.08924   0.969  0.000  0.000
    56H     0.02407  0.08275   0.976  0.000  0.000
    57H     0.03276  0.08920   0.967  0.000  0.000
    58H     0.16421  0.37250   0.836  0.000  0.000
    59H     0.03150  0.08942   0.968  0.000  0.000
    60H     0.04730  0.10854   0.953  0.000  0.000
    61H     0.24408  0.41988   0.756  0.000  0.000
    62H     0.04772  0.10821   0.952  0.000  0.000
    63H     0.03292  0.09083   0.967  0.000  0.000
    64C    -0.01969 -0.06052   1.090  2.930  0.000
    65C     0.06342  0.12381   1.105  2.831  0.000
    66C    -0.03273 -0.07805   1.082  2.951  0.000
    67C    -0.03155 -0.07653   1.076  2.955  0.000
    68C     0.06421  0.12818   1.102  2.834  0.000
    69N    -0.15767 -0.51065   1.312  3.846  0.000
    70C     0.00946  0.01521   1.091  2.899  0.000
    71C     0.06084  0.12905   1.119  2.821  0.000
    72C    -0.03654 -0.08257   1.085  2.952  0.000
    73C    -0.03620 -0.08167   1.091  2.945  0.000
    74N    -0.28353 -0.47025   1.293  3.991  0.000
    75C     0.06538  0.13606   1.130  2.804  0.000
    76C     0.01947  0.02668   1.087  2.894  0.000
    77C     0.06734  0.13220   1.110  2.823  0.000
    78C    -0.03132 -0.07577   1.081  2.951  0.000
    79C    -0.03141 -0.07640   1.075  2.956  0.000
    80C     0.06350  0.12692   1.100  2.837  0.000
    81C     0.00888  0.01469   1.091  2.900  0.000
    82C     0.01440  0.00581   1.092  2.894  0.000
    83C    -0.01799 -0.07116   1.076  2.942  0.000
    84C    -0.01199 -0.06357   1.090  2.922  0.000
    85C     0.00640  0.00291   1.089  2.905  0.000
    86C     0.23343  0.28834   1.194  2.573  0.000
    87O    -0.28001 -0.47654   1.680  4.600  0.000
    88O    -0.32950 -0.37920   1.629  4.701  0.000
    89C    -0.01406 -0.06570   1.088  2.926  0.000
    90C    -0.01823 -0.07155   1.078  2.940  0.000
    91C     0.06197  0.13139   1.121  2.817  0.000
    92C    -0.03692 -0.08295   1.086  2.950  0.000
    93C    -0.03789 -0.08429   1.092  2.945  0.000
    94C     0.06043  0.12611   1.126  2.814  0.000
    95N    -0.28571 -0.47277   1.293  3.993  0.000
    96N    -0.15580 -0.50806   1.314  3.842  0.000
    97C     0.01451  0.00590   1.092  2.893  0.000
    98C    -0.01926 -0.07247   1.076  2.943  0.000
    99C    -0.01434 -0.06596   1.087  2.927  0.000
   100C     0.00657  0.00308   1.089  2.905  0.000
   101C     0.23355  0.28847   1.194  2.573  0.000
   102O    -0.28015 -0.47668   1.680  4.600  0.000
   103O    -0.32905 -0.37875   1.629  4.700  0.000
   104C    -0.01146 -0.06306   1.091  2.921  0.000
   105C    -0.01677 -0.07001   1.078  2.938  0.000
   106H     0.03220  0.09123   0.968  0.000  0.000
   107H     0.04284  0.09953   0.957  0.000  0.000
   108H     0.03372  0.09244   0.966  0.000  0.000
   109H     0.16549  0.37384   0.835  0.000  0.000
   110H     0.02495  0.08371   0.975  0.000  0.000
   111H     0.02773  0.08582   0.972  0.000  0.000
   112H     0.03749  0.09559   0.963  0.000  0.000
   113H     0.03441  0.09318   0.966  0.000  0.000
   114H     0.03287  0.09083   0.967  0.000  0.000
   115H     0.04712  0.10762   0.953  0.000  0.000
   116H     0.24409  0.41990   0.756  0.000  0.000
   117H     0.04750  0.10873   0.952  0.000  0.000
   118H     0.03116  0.08911   0.969  0.000  0.000
   119H     0.02409  0.08278   0.976  0.000  0.000
   120H     0.03279  0.08923   0.967  0.000  0.000
   121H     0.16414  0.37245   0.836  0.000  0.000
   122H     0.03162  0.08954   0.968  0.000  0.000
   123H     0.04742  0.10866   0.953  0.000  0.000
   124H     0.24414  0.41994   0.756  0.000  0.000
   125H     0.04748  0.10797   0.953  0.000  0.000
   126H     0.03257  0.09053   0.967  0.000  0.000
   127C    -0.01718 -0.01805   1.061  2.957  0.000
   128C    -0.01845 -0.02011   1.089  2.929  0.000
   129C    -0.02015 -0.02100   1.058  2.962  0.000
   130C    -0.01538 -0.01699   1.093  2.922  0.000
   131C    -0.01927 -0.02011   1.060  2.959  0.000
   132C    -0.01882 -0.02042   1.089  2.929  0.000
   133C    -0.02047 -0.02130   1.059  2.962  0.000
   134C    -0.01750 -0.01909   1.091  2.926  0.000
   135C    -0.01981 -0.02063   1.060  2.960  0.000
   136C    -0.01824 -0.01983   1.090  2.928  0.000
   137C    -0.01991 -0.02074   1.060  2.960  0.000
   138C    -0.01799 -0.01957   1.090  2.928  0.000
   139C    -0.01979 -0.02062   1.060  2.960  0.000
   140C    -0.01808 -0.01966   1.090  2.928  0.000
   141C    -0.01981 -0.02063   1.060  2.960  0.000
   142C    -0.01802 -0.01960   1.090  2.928  0.000
   143C    -0.01997 -0.02079   1.060  2.960  0.000
   144C    -0.01809 -0.01967   1.090  2.928  0.000
   145C    -0.01987 -0.02070   1.060  2.960  0.000
   146C    -0.01824 -0.01983   1.090  2.928  0.000
   147C    -0.02067 -0.02150   1.059  2.962  0.000
   148C    -0.01761 -0.01920   1.091  2.927  0.000
   149C    -0.01935 -0.02019   1.060  2.959  0.000
   150C    -0.01898 -0.02058   1.089  2.930  0.000
   151C    -0.02041 -0.02125   1.058  2.962  0.000
   152C    -0.01541 -0.01700   1.093  2.922  0.000
   153C    -0.01727 -0.01813   1.061  2.956  0.000
   154C    -0.01862 -0.02027   1.089  2.929  0.000
   155C     0.01585  0.02309   1.083  2.901  0.000
   156C     0.06669  0.13154   1.110  2.823  0.000
   157C    -0.03390 -0.07836   1.079  2.955  0.000
   158C    -0.03239 -0.07735   1.075  2.957  0.000
   159C     0.06170  0.12518   1.097  2.841  0.000
   160N    -0.15562 -0.50805   1.313  3.843  0.000
   161C     0.01156  0.01721   1.093  2.896  0.000
   162C     0.05914  0.12715   1.117  2.824  0.000
   163C    -0.03750 -0.08352   1.085  2.952  0.000
   164C    -0.03783 -0.08328   1.090  2.948  0.000
   165N    -0.28331 -0.46955   1.293  3.991  0.000
   166C     0.06496  0.13583   1.130  2.805  0.000
   167C     0.01782  0.02505   1.085  2.897  0.000
   168C     0.06695  0.13190   1.110  2.823  0.000
   169C    -0.03288 -0.07732   1.079  2.954  0.000
   170C    -0.03233 -0.07728   1.075  2.957  0.000
   171C     0.06183  0.12521   1.098  2.841  0.000
   172C     0.01135  0.01701   1.092  2.896  0.000
   173C     0.01513  0.00644   1.092  2.892  0.000
   174C    -0.01666 -0.06995   1.078  2.939  0.000
   175C    -0.01155 -0.06316   1.090  2.921  0.000
   176C     0.00649  0.00299   1.088  2.905  0.000
   177C     0.23353  0.28848   1.194  2.573  0.000
   178O    -0.28000 -0.47653   1.681  4.599  0.000
   179O    -0.32959 -0.37930   1.629  4.701  0.000
   180C    -0.01408 -0.06571   1.088  2.927  0.000
   181C    -0.01862 -0.07182   1.076  2.943  0.000
   182C     0.05969  0.12788   1.117  2.823  0.000
   183C    -0.03704 -0.08307   1.085  2.952  0.000
   184C    -0.03796 -0.08344   1.091  2.947  0.000
   185C     0.06482  0.13548   1.130  2.805  0.000
   186N    -0.28416 -0.47036   1.292  3.992  0.000
   187N    -0.15502 -0.50744   1.313  3.842  0.000
   188C     0.01516  0.00648   1.092  2.892  0.000
   189C    -0.01782 -0.07104   1.076  2.942  0.000
   190C    -0.01205 -0.06365   1.090  2.922  0.000
   191C     0.00644  0.00294   1.089  2.905  0.000
   192C     0.23349  0.28844   1.194  2.573  0.000
   193O    -0.27973 -0.47627   1.680  4.599  0.000
   194O    -0.32990 -0.37961   1.629  4.701  0.000
   195C    -0.01372 -0.06536   1.088  2.926  0.000
   196C    -0.01748 -0.07078   1.078  2.940  0.000
   197H     0.03473  0.09282   0.965  0.000  0.000
   198H     0.03253  0.09141   0.967  0.000  0.000
   199H     0.16408  0.37204   0.836  0.000  0.000
   200H     0.02320  0.08199   0.977  0.000  0.000
   201H     0.02585  0.08388   0.974  0.000  0.000
   202H     0.03653  0.09462   0.963  0.000  0.000
   203H     0.03306  0.09187   0.967  0.000  0.000
   204H     0.03222  0.09013   0.968  0.000  0.000
   205H     0.04674  0.10723   0.953  0.000  0.000
   206H     0.24379  0.41958   0.756  0.000  0.000
   207H     0.04739  0.10863   0.953  0.000  0.000
   208H     0.03197  0.08987   0.968  0.000  0.000
   209H     0.02335  0.08220   0.977  0.000  0.000
   210H     0.02518  0.08324   0.975  0.000  0.000
   211H     0.16388  0.37185   0.836  0.000  0.000
   212H     0.03237  0.09028   0.968  0.000  0.000
   213H     0.04639  0.10689   0.954  0.000  0.000
   214H     0.24392  0.41971   0.756  0.000  0.000
   215H     0.04765  0.10888   0.952  0.000  0.000
   216H     0.03173  0.08968   0.968  0.000  0.000
   217C     0.01640  0.02364   1.084  2.900  0.000
   218C     0.06677  0.13169   1.110  2.823  0.000
   219C    -0.03368 -0.07812   1.078  2.955  0.000
   220C    -0.03252 -0.07748   1.075  2.958  0.000
   221C     0.06132  0.12475   1.097  2.842  0.000
   222N    -0.15523 -0.50769   1.313  3.842  0.000
   223C     0.01173  0.01738   1.093  2.895  0.000
   224C     0.05892  0.12690   1.116  2.825  0.000
   225C    -0.03756 -0.08359   1.085  2.952  0.000
   226C    -0.03812 -0.08358   1.090  2.948  0.000
   227N    -0.28355 -0.46973   1.293  3.991  0.000
   228C     0.06486  0.13573   1.131  2.805  0.000
   229C     0.01701  0.02425   1.085  2.898  0.000
   230C     0.06682  0.13176   1.110  2.823  0.000
   231C    -0.03335 -0.07779   1.079  2.955  0.000
   232C    -0.03252 -0.07748   1.075  2.958  0.000
   233C     0.06138  0.12477   1.097  2.842  0.000
   234C     0.01166  0.01731   1.093  2.895  0.000
   235C     0.01525  0.00656   1.093  2.892  0.000
   236C    -0.01659 -0.06987   1.078  2.938  0.000
   237C    -0.01164 -0.06324   1.090  2.921  0.000
   238C     0.00640  0.00290   1.088  2.905  0.000
   239C     0.23347  0.28842   1.194  2.573  0.000
   240O    -0.28004 -0.47657   1.681  4.599  0.000
   241O    -0.32976 -0.37947   1.629  4.701  0.000
   242C    -0.01412 -0.06575   1.087  2.927  0.000
   243C    -0.01855 -0.07177   1.076  2.943  0.000
   244C     0.05898  0.12700   1.116  2.825  0.000
   245C    -0.03750 -0.08352   1.085  2.952  0.000
   246C    -0.03834 -0.08380   1.090  2.948  0.000
   247C     0.06480  0.13564   1.130  2.805  0.000
   248N    -0.28372 -0.46991   1.293  3.991  0.000
   249N    -0.15518 -0.50759   1.314  3.842  0.000
   250C     0.01526  0.00657   1.093  2.892  0.000
   251C    -0.01763 -0.07084   1.076  2.941  0.000
   252C    -0.01198 -0.06358   1.090  2.922  0.000
   253C     0.00639  0.00290   1.088  2.905  0.000
   254C     0.23346  0.28841   1.194  2.573  0.000
   255O    -0.27988 -0.47642   1.680  4.599  0.000
   256O    -0.32996 -0.37966   1.629  4.701  0.000
   257C    -0.01379 -0.06543   1.088  2.926  0.000
   258C    -0.01748 -0.07078   1.078  2.940  0.000
   259H     0.03554  0.09362   0.964  0.000  0.000
   260H     0.03246  0.09133   0.968  0.000  0.000
   261H     0.16379  0.37173   0.836  0.000  0.000
   262H     0.02291  0.08171   0.977  0.000  0.000
   263H     0.02539  0.08341   0.975  0.000  0.000
   264H     0.03603  0.09410   0.964  0.000  0.000
   265H     0.03262  0.09146   0.967  0.000  0.000
   266H     0.03213  0.09005   0.968  0.000  0.000
   267H     0.04653  0.10703   0.953  0.000  0.000
   268H     0.24366  0.41944   0.756  0.000  0.000
   269H     0.04723  0.10847   0.953  0.000  0.000
   270H     0.03193  0.08985   0.968  0.000  0.000
   271H     0.02280  0.08163   0.977  0.000  0.000
   272H     0.02497  0.08299   0.975  0.000  0.000
   273H     0.16377  0.37170   0.836  0.000  0.000
   274H     0.03257  0.09049   0.967  0.000  0.000
   275H     0.04638  0.10688   0.954  0.000  0.000
   276H     0.24369  0.41948   0.756  0.000  0.000
   277H     0.04737  0.10861   0.953  0.000  0.000
   278H     0.03150  0.08944   0.968  0.000  0.000
   279C     0.01701  0.02426   1.085  2.898  0.000
   280C     0.06683  0.13174   1.110  2.823  0.000
   281C    -0.03333 -0.07778   1.079  2.955  0.000
   282C    -0.03238 -0.07733   1.075  2.957  0.000
   283C     0.06151  0.12493   1.097  2.841  0.000
   284N    -0.15514 -0.50757   1.313  3.842  0.000
   285C     0.01172  0.01736   1.093  2.895  0.000
   286C     0.05903  0.12702   1.116  2.824  0.000
   287C    -0.03750 -0.08353   1.085  2.952  0.000
   288C    -0.03811 -0.08356   1.090  2.948  0.000
   289N    -0.28353 -0.46969   1.293  3.991  0.000
   290C     0.06486  0.13572   1.131  2.805  0.000
   291C     0.01703  0.02427   1.085  2.898  0.000
   292C     0.06684  0.13175   1.110  2.823  0.000
   293C    -0.03330 -0.07775   1.079  2.955  0.000
   294C    -0.03245 -0.07740   1.075  2.957  0.000
   295C     0.06149  0.12489   1.097  2.841  0.000
   296C     0.01171  0.01735   1.093  2.895  0.000
   297C     0.01525  0.00655   1.093  2.892  0.000
   298C    -0.01656 -0.06983   1.078  2.938  0.000
   299C    -0.01160 -0.06320   1.090  2.921  0.000
   300C     0.00642  0.00293   1.088  2.905  0.000
   301C     0.23349  0.28844   1.194  2.573  0.000
   302O    -0.28003 -0.47657   1.681  4.599  0.000
   303O    -0.32971 -0.37942   1.629  4.701  0.000
   304C    -0.01412 -0.06575   1.087  2.927  0.000
   305C    -0.01855 -0.07179   1.076  2.943  0.000
   306C     0.05907  0.12708   1.117  2.824  0.000
   307C    -0.03743 -0.08345   1.085  2.952  0.000
   308C    -0.03811 -0.08357   1.090  2.948  0.000
   309C     0.06486  0.13570   1.131  2.805  0.000
   310N    -0.28353 -0.46968   1.293  3.991  0.000
   311N    -0.15517 -0.50759   1.313  3.842  0.000
   312C     0.01525  0.00654   1.093  2.892  0.000
   313C    -0.01760 -0.07081   1.076  2.941  0.000
   314C    -0.01193 -0.06353   1.090  2.922  0.000
   315C     0.00642  0.00293   1.088  2.905  0.000
   316C     0.23348  0.28844   1.194  2.573  0.000
   317O    -0.27990 -0.47644   1.680  4.599  0.000
   318O    -0.32987 -0.37957   1.629  4.701  0.000
   319C    -0.01379 -0.06543   1.088  2.926  0.000
   320C    -0.01750 -0.07080   1.078  2.940  0.000
   321H     0.03591  0.09398   0.964  0.000  0.000
   322H     0.03266  0.09152   0.967  0.000  0.000
   323H     0.16381  0.37173   0.836  0.000  0.000
   324H     0.02294  0.08175   0.977  0.000  0.000
   325H     0.02537  0.08339   0.975  0.000  0.000
   326H     0.03602  0.09409   0.964  0.000  0.000
   327H     0.03266  0.09152   0.967  0.000  0.000
   328H     0.03222  0.09014   0.968  0.000  0.000
   329H     0.04661  0.10711   0.953  0.000  0.000
   330H     0.24366  0.41944   0.756  0.000  0.000
   331H     0.04722  0.10845   0.953  0.000  0.000
   332H     0.03191  0.08983   0.968  0.000  0.000
   333H     0.02293  0.08176   0.977  0.000  0.000
   334H     0.02527  0.08329   0.975  0.000  0.000
   335H     0.16382  0.37174   0.836  0.000  0.000
   336H     0.03266  0.09057   0.967  0.000  0.000
   337H     0.04647  0.10697   0.954  0.000  0.000
   338H     0.24369  0.41948   0.756  0.000  0.000
   339H     0.04734  0.10858   0.953  0.000  0.000
   340H     0.03147  0.08940   0.969  0.000  0.000
   341C     0.01704  0.02428   1.085  2.898  0.000
   342C     0.06687  0.13178   1.110  2.823  0.000
   343C    -0.03328 -0.07773   1.079  2.955  0.000
   344C    -0.03234 -0.07729   1.075  2.957  0.000
   345C     0.06150  0.12491   1.097  2.841  0.000
   346N    -0.15516 -0.50758   1.313  3.842  0.000
   347C     0.01173  0.01737   1.093  2.895  0.000
   348C     0.05899  0.12699   1.116  2.825  0.000
   349C    -0.03754 -0.08356   1.085  2.952  0.000
   350C    -0.03819 -0.08365   1.090  2.948  0.000
   351N    -0.28353 -0.46970   1.293  3.991  0.000
   352C     0.06481  0.13567   1.130  2.805  0.000
   353C     0.01694  0.02418   1.085  2.898  0.000
   354C     0.06680  0.13172   1.110  2.823  0.000
   355C    -0.03341 -0.07785   1.079  2.955  0.000
   356C    -0.03250 -0.07746   1.075  2.958  0.000
   357C     0.06144  0.12485   1.097  2.841  0.000
   358C     0.01171  0.01734   1.093  2.895  0.000
   359C     0.01525  0.00655   1.093  2.892  0.000
   360C    -0.01655 -0.06982   1.078  2.938  0.000
   361C    -0.01159 -0.06319   1.090  2.921  0.000
   362C     0.00642  0.00292   1.088  2.905  0.000
   363C     0.23348  0.28844   1.194  2.573  0.000
   364O    -0.28008 -0.47662   1.681  4.600  0.000
   365O    -0.32969 -0.37939   1.629  4.701  0.000
   366C    -0.01414 -0.06577   1.087  2.927  0.000
   367C    -0.01855 -0.07179   1.076  2.943  0.000
   368C     0.05906  0.12705   1.117  2.824  0.000
   369C    -0.03740 -0.08342   1.085  2.952  0.000
   370C    -0.03807 -0.08352   1.090  2.948  0.000
   371C     0.06489  0.13574   1.131  2.805  0.000
   372N    -0.28355 -0.46971   1.293  3.991  0.000
   373N    -0.15516 -0.50760   1.313  3.842  0.000
   374C     0.01525  0.00655   1.093  2.892  0.000
   375C    -0.01759 -0.07079   1.076  2.941  0.000
   376C    -0.01192 -0.06352   1.090  2.922  0.000
   377C     0.00642  0.00293   1.088  2.905  0.000
   378C     0.23348  0.28843   1.194  2.573  0.000
   379O    -0.27992 -0.47646   1.680  4.599  0.000
   380O    -0.32985 -0.37956   1.629  4.701  0.000
   381C    -0.01381 -0.06544   1.088  2.926  0.000
   382C    -0.01751 -0.07081   1.078  2.940  0.000
   383H     0.03600  0.09407   0.964  0.000  0.000
   384H     0.03271  0.09157   0.967  0.000  0.000
   385H     0.16380  0.37172   0.836  0.000  0.000
   386H     0.02287  0.08169   0.977  0.000  0.000
   387H     0.02525  0.08327   0.975  0.000  0.000
   388H     0.03589  0.09396   0.964  0.000  0.000
   389H     0.03258  0.09143   0.967  0.000  0.000
   390H     0.03225  0.09017   0.968  0.000  0.000
   391H     0.04664  0.10713   0.953  0.000  0.000
   392H     0.24363  0.41942   0.756  0.000  0.000
   393H     0.04717  0.10842   0.953  0.000  0.000
   394H     0.03188  0.08980   0.968  0.000  0.000
   395H     0.02297  0.08178   0.977  0.000  0.000
   396H     0.02535  0.08337   0.975  0.000  0.000
   397H     0.16382  0.37174   0.836  0.000  0.000
   398H     0.03269  0.09060   0.967  0.000  0.000
   399H     0.04651  0.10700   0.953  0.000  0.000
   400H     0.24368  0.41946   0.756  0.000  0.000
   401H     0.04730  0.10854   0.953  0.000  0.000
   402H     0.03143  0.08937   0.969  0.000  0.000
   403C     0.01697  0.02421   1.085  2.898  0.000
   404C     0.06684  0.13177   1.110  2.823  0.000
   405C    -0.03337 -0.07781   1.079  2.955  0.000
   406C    -0.03246 -0.07741   1.075  2.958  0.000
   407C     0.06136  0.12476   1.097  2.842  0.000
   408N    -0.15519 -0.50762   1.314  3.842  0.000
   409C     0.01163  0.01728   1.093  2.895  0.000
   410C     0.05885  0.12685   1.116  2.825  0.000
   411C    -0.03766 -0.08368   1.085  2.953  0.000
   412C    -0.03847 -0.08393   1.090  2.949  0.000
   413N    -0.28377 -0.46998   1.293  3.991  0.000
   414C     0.06474  0.13559   1.130  2.805  0.000
   415C     0.01620  0.02345   1.084  2.900  0.000
   416C     0.06669  0.13163   1.110  2.823  0.000
   417C    -0.03384 -0.07828   1.078  2.955  0.000
   418C    -0.03270 -0.07766   1.075  2.958  0.000
   419C     0.06118  0.12461   1.097  2.842  0.000
   420C     0.01171  0.01736   1.093  2.895  0.000
   421C     0.01529  0.00659   1.093  2.892  0.000
   422C    -0.01654 -0.06980   1.078  2.938  0.000
   423C    -0.01160 -0.06319   1.090  2.921  0.000
   424C     0.00637  0.00288   1.088  2.905  0.000
   425C     0.23346  0.28841   1.194  2.573  0.000
   426O    -0.28017 -0.47672   1.681  4.600  0.000
   427O    -0.32969 -0.37939   1.629  4.701  0.000
   428C    -0.01420 -0.06583   1.087  2.927  0.000
   429C    -0.01858 -0.07181   1.076  2.943  0.000
   430C     0.05889  0.12688   1.116  2.825  0.000
   431C    -0.03747 -0.08349   1.085  2.952  0.000
   432C    -0.03812 -0.08358   1.090  2.948  0.000
   433C     0.06489  0.13576   1.131  2.805  0.000
   434N    -0.28360 -0.46977   1.293  3.991  0.000
   435N    -0.15528 -0.50774   1.313  3.842  0.000
   436C     0.01527  0.00658   1.093  2.892  0.000
   437C    -0.01758 -0.07078   1.076  2.941  0.000
   438C    -0.01192 -0.06352   1.090  2.922  0.000
   439C     0.00637  0.00288   1.088  2.905  0.000
   440C     0.23346  0.28841   1.194  2.573  0.000
   441O    -0.27999 -0.47652   1.681  4.599  0.000
   442O    -0.32986 -0.37957   1.629  4.701  0.000
   443C    -0.01386 -0.06550   1.088  2.926  0.000
   444C    -0.01755 -0.07085   1.078  2.940  0.000
   445H     0.03598  0.09405   0.964  0.000  0.000
   446H     0.03264  0.09148   0.967  0.000  0.000
   447H     0.16373  0.37167   0.836  0.000  0.000
   448H     0.02266  0.08148   0.977  0.000  0.000
   449H     0.02487  0.08289   0.975  0.000  0.000
   450H     0.03543  0.09351   0.965  0.000  0.000
   451H     0.03231  0.09116   0.968  0.000  0.000
   452H     0.03229  0.09020   0.968  0.000  0.000
   453H     0.04665  0.10713   0.953  0.000  0.000
   454H     0.24357  0.41935   0.756  0.000  0.000
   455H     0.04705  0.10830   0.953  0.000  0.000
   456H     0.03179  0.08971   0.968  0.000  0.000
   457H     0.02291  0.08171   0.977  0.000  0.000
   458H     0.02535  0.08338   0.975  0.000  0.000
   459H     0.16378  0.37172   0.836  0.000  0.000
   460H     0.03271  0.09061   0.967  0.000  0.000
   461H     0.04651  0.10700   0.953  0.000  0.000
   462H     0.24361  0.41939   0.756  0.000  0.000
   463H     0.04717  0.10841   0.953  0.000  0.000
   464H     0.03132  0.08926   0.969  0.000  0.000
   465C     0.01772  0.02496   1.085  2.897  0.000
   466C     0.06695  0.13189   1.110  2.823  0.000
   467C    -0.03288 -0.07732   1.079  2.954  0.000
   468C    -0.03233 -0.07729   1.075  2.957  0.000
   469C     0.06178  0.12517   1.097  2.841  0.000
   470N    -0.15510 -0.50755   1.313  3.842  0.000
   471C     0.01106  0.01673   1.092  2.897  0.000
   472C     0.05951  0.12773   1.117  2.823  0.000
   473C    -0.03735 -0.08338   1.085  2.952  0.000
   474C    -0.03819 -0.08367   1.090  2.948  0.000
   475N    -0.28425 -0.47055   1.292  3.992  0.000
   476C     0.06459  0.13522   1.130  2.805  0.000
   477C     0.01557  0.02283   1.083  2.901  0.000
   478C     0.06647  0.13132   1.110  2.824  0.000
   479C    -0.03421 -0.07866   1.079  2.955  0.000
   480C    -0.03276 -0.07772   1.075  2.958  0.000
   481C     0.06149  0.12498   1.097  2.841  0.000
   482C     0.01137  0.01703   1.093  2.896  0.000
   483C     0.01518  0.00650   1.093  2.892  0.000
   484C    -0.01656 -0.06983   1.078  2.938  0.000
   485C    -0.01160 -0.06320   1.090  2.921  0.000
   486C     0.00632  0.00282   1.089  2.905  0.000
   487C     0.23339  0.28833   1.194  2.573  0.000
   488O    -0.28029 -0.47683   1.681  4.600  0.000
   489O    -0.32957 -0.37926   1.629  4.701  0.000
   490C    -0.01435 -0.06598   1.087  2.927  0.000
   491C    -0.01872 -0.07194   1.076  2.943  0.000
   492C     0.05910  0.12711   1.117  2.824  0.000
   493C    -0.03743 -0.08346   1.085  2.953  0.000
   494C    -0.03778 -0.08324   1.090  2.948  0.000
   495C     0.06503  0.13592   1.131  2.804  0.000
   496N    -0.28337 -0.46962   1.293  3.991  0.000
   497N    -0.15566 -0.50813   1.313  3.843  0.000
   498C     0.01514  0.00646   1.092  2.892  0.000
   499C    -0.01761 -0.07081   1.076  2.941  0.000
   500C    -0.01190 -0.06349   1.090  2.922  0.000
   501C     0.00636  0.00287   1.088  2.905  0.000
   502C     0.23341  0.28835   1.194  2.573  0.000
   503O    -0.28012 -0.47667   1.681  4.600  0.000
   504O    -0.32978 -0.37947   1.629  4.701  0.000
   505C    -0.01393 -0.06557   1.088  2.926  0.000
   506C    -0.01764 -0.07094   1.078  2.940  0.000
   507H     0.03650  0.09458   0.963  0.000  0.000
   508H     0.03299  0.09181   0.967  0.000  0.000
   509H     0.16379  0.37179   0.836  0.000  0.000
   510H     0.02296  0.08177   0.977  0.000  0.000
   511H     0.02507  0.08311   0.975  0.000  0.000
   512H     0.03453  0.09259   0.965  0.000  0.000
   513H     0.03206  0.09090   0.968  0.000  0.000
   514H     0.03243  0.09034   0.968  0.000  0.000
   515H     0.04688  0.10736   0.953  0.000  0.000
   516H     0.24360  0.41938   0.756  0.000  0.000
   517H     0.04702  0.10827   0.953  0.000  0.000
   518H     0.03176  0.08972   0.968  0.000  0.000
   519H     0.02322  0.08201   0.977  0.000  0.000
   520H     0.02587  0.08390   0.974  0.000  0.000
   521H     0.16403  0.37204   0.836  0.000  0.000
   522H     0.03287  0.09077   0.967  0.000  0.000
   523H     0.04670  0.10719   0.953  0.000  0.000
   524H     0.24359  0.41937   0.756  0.000  0.000
   525H     0.04717  0.10842   0.953  0.000  0.000
   526H     0.03120  0.08918   0.969  0.000  0.000

Wiberg/Mayer (AO) data.
largest (>0.10) Wiberg bond orders for each atom

 ---------------------------------------------------------------------------
     #   Z sym  total        # sym  WBO       # sym  WBO       # sym  WBO
 ---------------------------------------------------------------------------
     1   6 C    3.820 --    31 C    1.386     2 C    1.374    43 H    0.995
     2   6 C    3.925 --     1 C    1.374     3 C    1.239     6 N    1.230
     3   6 C    3.842 --     4 C    1.602     2 C    1.239    44 H    0.992
     4   6 C    3.825 --     3 C    1.602     5 C    1.249    45 H    0.998
     5   6 C    3.901 --     7 C    1.342     4 C    1.249     6 N    1.232
     6   7 N    3.248 --     5 C    1.232     2 C    1.230    46 H    0.960
     7   6 C    3.846 --     8 C    1.366     5 C    1.342    34 C    1.054
     8   6 C    3.927 --     7 C    1.366    11 N    1.359     9 C    1.159
     9   6 C    3.840 --    10 C    1.697     8 C    1.159    47 H    0.998
    10   6 C    3.854 --     9 C    1.697    12 C    1.163    48 H    0.998
    11   7 N    2.569 --    12 C    1.410     8 C    1.359
    12   6 C    3.946 --    11 N    1.410    13 C    1.296    10 C    1.163
    13   6 C    3.853 --    12 C    1.296    14 C    1.295   128 C    1.206
    14   6 C    3.906 --    13 C    1.295    15 C    1.263    33 N    1.248
    15   6 C    3.836 --    16 C    1.589    14 C    1.263    49 H    0.998
    16   6 C    3.820 --    15 C    1.589    17 C    1.255    50 H    0.997
    17   6 C    3.896 --    18 C    1.346    16 C    1.255    33 N    1.224
    18   6 C    3.834 --    28 C    1.354    17 C    1.346    19 C    1.056
    19   6 C    3.895 --    27 C    1.417    20 C    1.416    18 C    1.056
    20   6 C    3.859 --    21 C    1.465    19 C    1.416    51 H    0.987
    21   6 C    3.896 --    20 C    1.465    22 C    1.401    52 H    0.985
    22   6 C    3.899 --    21 C    1.401    26 C    1.401    23 C    1.040
    23   6 C    4.098 --    25 O    1.818    24 O    1.210    22 C    1.040
    24   8 O    2.366 --    23 C    1.210    53 H    0.943    25 O    0.184
    25   8 O    2.031 --    23 C    1.818    24 O    0.184
    26   6 C    3.893 --    27 C    1.463    22 C    1.401    54 H    0.985
    27   6 C    3.863 --    26 C    1.463    19 C    1.417    55 H    0.988
    28   6 C    3.946 --    32 N    1.384    18 C    1.354    29 C    1.152
    29   6 C    3.843 --    30 C    1.709    28 C    1.152    56 H    0.999
    30   6 C    3.864 --    29 C    1.709    31 C    1.146    57 H    0.992
    31   6 C    3.967 --     1 C    1.386    32 N    1.374    30 C    1.146
    32   7 N    2.557 --    28 C    1.384    31 C    1.374
    33   7 N    3.259 --    14 C    1.248    17 C    1.224    58 H    0.959
    34   6 C    3.896 --    35 C    1.418    42 C    1.417     7 C    1.054
    35   6 C    3.860 --    36 C    1.463    34 C    1.418    59 H    0.988
    36   6 C    3.893 --    35 C    1.463    37 C    1.401    60 H    0.985
    37   6 C    3.900 --    41 C    1.401    36 C    1.401    38 C    1.039
    38   6 C    4.098 --    40 O    1.819    39 O    1.210    37 C    1.039
    39   8 O    2.366 --    38 C    1.210    61 H    0.942    40 O    0.184
    40   8 O    2.032 --    38 C    1.819    39 O    0.184
    41   6 C    3.896 --    42 C    1.465    37 C    1.401    62 H    0.985
    42   6 C    3.863 --    41 C    1.465    34 C    1.417    63 H    0.988
    43   1 H    1.031 --     1 C    0.995
    44   1 H    1.014 --     3 C    0.992
    45   1 H    1.030 --     4 C    0.998
    46   1 H    1.080 --     6 N    0.960
    47   1 H    1.034 --     9 C    0.998
    48   1 H    1.029 --    10 C    0.998
    49   1 H    1.025 --    15 C    0.998
    50   1 H    1.030 --    16 C    0.997
    51   1 H    1.045 --    20 C    0.987
    52   1 H    1.030 --    21 C    0.985
    53   1 H    0.978 --    24 O    0.943
    54   1 H    1.021 --    26 C    0.985
    55   1 H    1.048 --    27 C    0.988
    56   1 H    1.034 --    29 C    0.999
    57   1 H    1.017 --    30 C    0.992
    58   1 H    1.084 --    33 N    0.959
    59   1 H    1.044 --    35 C    0.988
    60   1 H    1.021 --    36 C    0.985
    61   1 H    0.978 --    39 O    0.942
    62   1 H    1.030 --    41 C    0.985
    63   1 H    1.048 --    42 C    0.988
    64   6 C    3.820 --    94 C    1.386    65 C    1.374   106 H    0.995
    65   6 C    3.924 --    64 C    1.374    66 C    1.239    69 N    1.230
    66   6 C    3.842 --    67 C    1.602    65 C    1.239   107 H    0.992
    67   6 C    3.825 --    66 C    1.602    68 C    1.249   108 H    0.998
    68   6 C    3.901 --    70 C    1.342    67 C    1.249    69 N    1.232
    69   7 N    3.248 --    68 C    1.232    65 C    1.230   109 H    0.960
    70   6 C    3.845 --    71 C    1.365    68 C    1.342    97 C    1.055
    71   6 C    3.927 --    70 C    1.365    74 N    1.360    72 C    1.159
    72   6 C    3.840 --    73 C    1.696    71 C    1.159   110 H    0.998
    73   6 C    3.853 --    72 C    1.696    75 C    1.164   111 H    0.998
    74   7 N    2.568 --    75 C    1.409    71 C    1.360
    75   6 C    3.946 --    74 N    1.409    76 C    1.296    73 C    1.164
    76   6 C    3.853 --    75 C    1.296    77 C    1.295   154 C    1.206
    77   6 C    3.906 --    76 C    1.295    78 C    1.263    96 N    1.248
    78   6 C    3.836 --    79 C    1.589    77 C    1.263   112 H    0.997
    79   6 C    3.820 --    78 C    1.589    80 C    1.255   113 H    0.997
    80   6 C    3.896 --    81 C    1.345    79 C    1.255    96 N    1.225
    81   6 C    3.833 --    91 C    1.355    80 C    1.345    82 C    1.057
    82   6 C    3.895 --    90 C    1.417    83 C    1.415    81 C    1.057
    83   6 C    3.859 --    84 C    1.466    82 C    1.415   114 H    0.987
    84   6 C    3.896 --    83 C    1.466    85 C    1.401   115 H    0.985
    85   6 C    3.899 --    89 C    1.401    84 C    1.401    86 C    1.040
    86   6 C    4.098 --    88 O    1.818    87 O    1.210    85 C    1.040
    87   8 O    2.366 --    86 C    1.210   116 H    0.943    88 O    0.184
    88   8 O    2.031 --    86 C    1.818    87 O    0.184
    89   6 C    3.893 --    90 C    1.463    85 C    1.401   117 H    0.985
    90   6 C    3.863 --    89 C    1.463    82 C    1.417   118 H    0.988
    91   6 C    3.946 --    95 N    1.384    81 C    1.355    92 C    1.152
    92   6 C    3.843 --    93 C    1.709    91 C    1.152   119 H    0.999
    93   6 C    3.864 --    92 C    1.709    94 C    1.146   120 H    0.992
    94   6 C    3.967 --    64 C    1.386    95 N    1.374    93 C    1.146
    95   7 N    2.557 --    91 C    1.384    94 C    1.374
    96   7 N    3.259 --    77 C    1.248    80 C    1.225   121 H    0.959
    97   6 C    3.896 --    98 C    1.418   105 C    1.416    70 C    1.055
    98   6 C    3.859 --    99 C    1.463    97 C    1.418   122 H    0.988
    99   6 C    3.893 --    98 C    1.463   100 C    1.401   123 H    0.985
   100   6 C    3.900 --    99 C    1.401   104 C    1.401   101 C    1.040
   101   6 C    4.098 --   103 O    1.818   102 O    1.210   100 C    1.040
   102   8 O    2.366 --   101 C    1.210   124 H    0.942   103 O    0.184
   103   8 O    2.032 --   101 C    1.818   102 O    0.184
   104   6 C    3.896 --   105 C    1.465   100 C    1.401   125 H    0.985
   105   6 C    3.863 --   104 C    1.465    97 C    1.416   126 H    0.988
   106   1 H    1.031 --    64 C    0.995
   107   1 H    1.014 --    66 C    0.992
   108   1 H    1.030 --    67 C    0.998
   109   1 H    1.080 --    69 N    0.960
   110   1 H    1.034 --    72 C    0.998
   111   1 H    1.029 --    73 C    0.998
   112   1 H    1.025 --    78 C    0.997
   113   1 H    1.030 --    79 C    0.997
   114   1 H    1.045 --    83 C    0.987
   115   1 H    1.030 --    84 C    0.985
   116   1 H    0.978 --    87 O    0.943
   117   1 H    1.021 --    89 C    0.985
   118   1 H    1.048 --    90 C    0.988
   119   1 H    1.034 --    92 C    0.999
   120   1 H    1.017 --    93 C    0.992
   121   1 H    1.084 --    96 N    0.959
   122   1 H    1.044 --    98 C    0.988
   123   1 H    1.021 --    99 C    0.985
   124   1 H    0.978 --   102 O    0.942
   125   1 H    1.030 --   104 C    0.985
   126   1 H    1.048 --   105 C    0.988
   127   6 C    3.802 --   128 C    2.513   129 C    1.316
   128   6 C    3.797 --   127 C    2.513    13 C    1.206   130 C    0.180
   129   6 C    3.797 --   130 C    2.510   127 C    1.316
   130   6 C    3.800 --   129 C    2.510   155 C    1.210   128 C    0.180
   131   6 C    3.799 --   132 C    2.492   133 C    1.334
   132   6 C    3.801 --   131 C    2.492   167 C    1.227   134 C    0.180
   133   6 C    3.799 --   134 C    2.492   131 C    1.334
   134   6 C    3.801 --   133 C    2.492   217 C    1.228   132 C    0.180
   135   6 C    3.799 --   136 C    2.491   137 C    1.334
   136   6 C    3.801 --   135 C    2.491   229 C    1.228   138 C    0.180
   137   6 C    3.799 --   138 C    2.491   135 C    1.334
   138   6 C    3.801 --   137 C    2.491   279 C    1.228   136 C    0.180
   139   6 C    3.799 --   140 C    2.492   141 C    1.334
   140   6 C    3.801 --   139 C    2.492   291 C    1.227   142 C    0.180
   141   6 C    3.799 --   142 C    2.492   139 C    1.334
   142   6 C    3.801 --   141 C    2.492   341 C    1.227   140 C    0.180
   143   6 C    3.799 --   144 C    2.491   145 C    1.334
   144   6 C    3.801 --   143 C    2.491   353 C    1.228   146 C    0.180
   145   6 C    3.799 --   146 C    2.491   143 C    1.334
   146   6 C    3.801 --   145 C    2.491   403 C    1.228   144 C    0.180
   147   6 C    3.798 --   148 C    2.491   149 C    1.334
   148   6 C    3.801 --   147 C    2.491   415 C    1.228   150 C    0.180
   149   6 C    3.799 --   150 C    2.491   147 C    1.334
   150   6 C    3.800 --   149 C    2.491   465 C    1.228   148 C    0.180
   151   6 C    3.797 --   152 C    2.510   153 C    1.316
   152   6 C    3.799 --   151 C    2.510   477 C    1.210   154 C    0.180
   153   6 C    3.802 --   154 C    2.513   151 C    1.316
   154   6 C    3.796 --   153 C    2.513    76 C    1.206   152 C    0.180
   155   6 C    3.831 --   185 C    1.292   156 C    1.288   130 C    1.210
   156   6 C    3.907 --   155 C    1.288   157 C    1.268   160 N    1.250
   157   6 C    3.828 --   158 C    1.582   156 C    1.268   197 H    0.998
   158   6 C    3.820 --   157 C    1.582   159 C    1.261   198 H    0.998
   159   6 C    3.887 --   161 C    1.338   158 C    1.261   160 N    1.223
   160   7 N    3.249 --   156 C    1.250   159 C    1.223   199 H    0.961
   161   6 C    3.837 --   162 C    1.371   159 C    1.338   188 C    1.053
   162   6 C    3.924 --   161 C    1.371   165 N    1.354   163 C    1.161
   163   6 C    3.839 --   164 C    1.692   162 C    1.161   200 H    0.999
   164   6 C    3.849 --   163 C    1.692   166 C    1.167   201 H    0.999
   165   7 N    2.554 --   166 C    1.416   162 C    1.354
   166   6 C    3.943 --   165 N    1.416   167 C    1.285   164 C    1.167
   167   6 C    3.832 --   166 C    1.285   168 C    1.282   132 C    1.227
   168   6 C    3.904 --   167 C    1.282   169 C    1.271   187 N    1.252
   169   6 C    3.829 --   170 C    1.579   168 C    1.271   202 H    0.998
   170   6 C    3.817 --   169 C    1.579   171 C    1.263   203 H    0.998
   171   6 C    3.887 --   172 C    1.336   170 C    1.263   187 N    1.224
   172   6 C    3.834 --   182 C    1.372   171 C    1.336   173 C    1.053
   173   6 C    3.896 --   181 C    1.419   174 C    1.417   172 C    1.053
   174   6 C    3.863 --   175 C    1.465   173 C    1.417   204 H    0.988
   175   6 C    3.896 --   174 C    1.465   176 C    1.401   205 H    0.985
   176   6 C    3.900 --   175 C    1.401   180 C    1.401   177 C    1.039
   177   6 C    4.098 --   179 O    1.818   178 O    1.211   176 C    1.039
   178   8 O    2.366 --   177 C    1.211   206 H    0.943   179 O    0.184
   179   8 O    2.032 --   177 C    1.818   178 O    0.184
   180   6 C    3.892 --   181 C    1.462   176 C    1.401   207 H    0.985
   181   6 C    3.859 --   180 C    1.462   173 C    1.419   208 H    0.988
   182   6 C    3.926 --   172 C    1.372   186 N    1.355   183 C    1.159
   183   6 C    3.840 --   184 C    1.696   182 C    1.159   209 H    0.999
   184   6 C    3.850 --   183 C    1.696   185 C    1.165   210 H    0.999
   185   6 C    3.947 --   186 N    1.412   155 C    1.292   184 C    1.165
   186   7 N    2.550 --   185 C    1.412   182 C    1.355
   187   7 N    3.252 --   168 C    1.252   171 C    1.224   211 H    0.961
   188   6 C    3.896 --   196 C    1.419   189 C    1.417   161 C    1.053
   189   6 C    3.859 --   190 C    1.465   188 C    1.417   212 H    0.988
   190   6 C    3.896 --   189 C    1.465   191 C    1.401   213 H    0.985
   191   6 C    3.900 --   190 C    1.401   195 C    1.401   192 C    1.039
   192   6 C    4.098 --   194 O    1.818   193 O    1.211   191 C    1.039
   193   8 O    2.367 --   192 C    1.211   214 H    0.943   194 O    0.184
   194   8 O    2.031 --   192 C    1.818   193 O    0.184
   195   6 C    3.892 --   196 C    1.463   191 C    1.401   215 H    0.985
   196   6 C    3.863 --   195 C    1.463   188 C    1.419   216 H    0.988
   197   1 H    1.026 --   157 C    0.998
   198   1 H    1.031 --   158 C    0.998
   199   1 H    1.082 --   160 N    0.961
   200   1 H    1.034 --   163 C    0.999
   201   1 H    1.029 --   164 C    0.999
   202   1 H    1.025 --   169 C    0.998
   203   1 H    1.030 --   170 C    0.998
   204   1 H    1.048 --   174 C    0.988
   205   1 H    1.030 --   175 C    0.985
   206   1 H    0.978 --   178 O    0.943
   207   1 H    1.021 --   180 C    0.985
   208   1 H    1.045 --   181 C    0.988
   209   1 H    1.034 --   183 C    0.999
   210   1 H    1.030 --   184 C    0.999
   211   1 H    1.082 --   187 N    0.961
   212   1 H    1.045 --   189 C    0.988
   213   1 H    1.030 --   190 C    0.985
   214   1 H    0.978 --   193 O    0.943
   215   1 H    1.021 --   195 C    0.985
   216   1 H    1.048 --   196 C    0.988
   217   6 C    3.829 --   247 C    1.284   218 C    1.281   134 C    1.228
   218   6 C    3.905 --   217 C    1.281   219 C    1.271   222 N    1.252
   219   6 C    3.828 --   220 C    1.578   218 C    1.271   259 H    0.998
   220   6 C    3.819 --   219 C    1.578   221 C    1.264   260 H    0.998
   221   6 C    3.887 --   223 C    1.335   220 C    1.264   222 N    1.223
   222   7 N    3.250 --   218 C    1.252   221 C    1.223   261 H    0.961
   223   6 C    3.834 --   224 C    1.373   221 C    1.335   250 C    1.053
   224   6 C    3.925 --   223 C    1.373   227 N    1.352   225 C    1.161
   225   6 C    3.839 --   226 C    1.692   224 C    1.161   262 H    0.999
   226   6 C    3.849 --   225 C    1.692   228 C    1.167   263 H    0.999
   227   7 N    2.550 --   228 C    1.417   224 C    1.352
   228   6 C    3.944 --   227 N    1.417   229 C    1.284   226 C    1.167
   229   6 C    3.829 --   228 C    1.284   230 C    1.281   136 C    1.228
   230   6 C    3.905 --   229 C    1.281   231 C    1.271   249 N    1.252
   231   6 C    3.828 --   232 C    1.578   230 C    1.271   264 H    0.998
   232   6 C    3.820 --   231 C    1.578   233 C    1.264   265 H    0.998
   233   6 C    3.887 --   234 C    1.335   232 C    1.264   249 N    1.223
   234   6 C    3.834 --   244 C    1.373   233 C    1.335   235 C    1.053
   235   6 C    3.896 --   243 C    1.419   236 C    1.417   234 C    1.053
   236   6 C    3.863 --   237 C    1.465   235 C    1.417   266 H    0.988
   237   6 C    3.896 --   236 C    1.465   238 C    1.401   267 H    0.985
   238   6 C    3.899 --   242 C    1.401   237 C    1.401   239 C    1.039
   239   6 C    4.098 --   241 O    1.818   240 O    1.211   238 C    1.039
   240   8 O    2.367 --   239 C    1.211   268 H    0.943   241 O    0.184
   241   8 O    2.032 --   239 C    1.818   240 O    0.184
   242   6 C    3.892 --   243 C    1.462   238 C    1.401   269 H    0.985
   243   6 C    3.859 --   242 C    1.462   235 C    1.419   270 H    0.988
   244   6 C    3.925 --   234 C    1.373   248 N    1.352   245 C    1.161
   245   6 C    3.839 --   246 C    1.693   244 C    1.161   271 H    0.999
   246   6 C    3.849 --   245 C    1.693   247 C    1.167   272 H    0.999
   247   6 C    3.944 --   248 N    1.417   217 C    1.284   246 C    1.167
   248   7 N    2.550 --   247 C    1.417   244 C    1.352
   249   7 N    3.250 --   230 C    1.252   233 C    1.223   273 H    0.961
   250   6 C    3.896 --   258 C    1.419   251 C    1.417   223 C    1.053
   251   6 C    3.859 --   252 C    1.465   250 C    1.417   274 H    0.988
   252   6 C    3.896 --   251 C    1.465   253 C    1.401   275 H    0.985
   253   6 C    3.899 --   252 C    1.401   257 C    1.401   254 C    1.039
   254   6 C    4.098 --   256 O    1.818   255 O    1.211   253 C    1.039
   255   8 O    2.367 --   254 C    1.211   276 H    0.943   256 O    0.184
   256   8 O    2.031 --   254 C    1.818   255 O    0.184
   257   6 C    3.892 --   258 C    1.463   253 C    1.401   277 H    0.985
   258   6 C    3.863 --   257 C    1.463   250 C    1.419   278 H    0.988
   259   1 H    1.025 --   219 C    0.998
   260   1 H    1.030 --   220 C    0.998
   261   1 H    1.082 --   222 N    0.961
   262   1 H    1.036 --   225 C    0.999
   263   1 H    1.029 --   226 C    0.999
   264   1 H    1.025 --   231 C    0.998
   265   1 H    1.030 --   232 C    0.998
   266   1 H    1.048 --   236 C    0.988
   267   1 H    1.031 --   237 C    0.985
   268   1 H    0.979 --   240 O    0.943
   269   1 H    1.021 --   242 C    0.985
   270   1 H    1.045 --   243 C    0.988
   271   1 H    1.036 --   245 C    0.999
   272   1 H    1.030 --   246 C    0.999
   273   1 H    1.082 --   249 N    0.961
   274   1 H    1.045 --   251 C    0.988
   275   1 H    1.030 --   252 C    0.985
   276   1 H    0.979 --   255 O    0.943
   277   1 H    1.021 --   257 C    0.985
   278   1 H    1.048 --   258 C    0.988
   279   6 C    3.831 --   309 C    1.284   280 C    1.281   138 C    1.228
   280   6 C    3.905 --   279 C    1.281   281 C    1.272   284 N    1.252
   281   6 C    3.829 --   282 C    1.578   280 C    1.272   321 H    0.998
   282   6 C    3.819 --   281 C    1.578   283 C    1.263   322 H    0.998
   283   6 C    3.887 --   285 C    1.335   282 C    1.263   284 N    1.224
   284   7 N    3.250 --   280 C    1.252   283 C    1.224   323 H    0.961
   285   6 C    3.834 --   286 C    1.373   283 C    1.335   312 C    1.053
   286   6 C    3.925 --   285 C    1.373   289 N    1.352   287 C    1.161
   287   6 C    3.839 --   288 C    1.693   286 C    1.161   324 H    0.999
   288   6 C    3.849 --   287 C    1.693   290 C    1.167   325 H    0.999
   289   7 N    2.551 --   290 C    1.417   286 C    1.352
   290   6 C    3.944 --   289 N    1.417   291 C    1.284   288 C    1.167
   291   6 C    3.831 --   290 C    1.284   292 C    1.281   140 C    1.227
   292   6 C    3.905 --   291 C    1.281   293 C    1.271   311 N    1.252
   293   6 C    3.829 --   294 C    1.578   292 C    1.271   326 H    0.998
   294   6 C    3.820 --   293 C    1.578   295 C    1.263   327 H    0.998
   295   6 C    3.887 --   296 C    1.336   294 C    1.263   311 N    1.223
   296   6 C    3.835 --   306 C    1.373   295 C    1.336   297 C    1.053
   297   6 C    3.896 --   305 C    1.419   298 C    1.417   296 C    1.053
   298   6 C    3.863 --   299 C    1.465   297 C    1.417   328 H    0.988
   299   6 C    3.896 --   298 C    1.465   300 C    1.401   329 H    0.985
   300   6 C    3.899 --   304 C    1.401   299 C    1.401   301 C    1.039
   301   6 C    4.098 --   303 O    1.818   302 O    1.211   300 C    1.039
   302   8 O    2.367 --   301 C    1.211   330 H    0.943   303 O    0.184
   303   8 O    2.032 --   301 C    1.818   302 O    0.184
   304   6 C    3.892 --   305 C    1.462   300 C    1.401   331 H    0.985
   305   6 C    3.859 --   304 C    1.462   297 C    1.419   332 H    0.988
   306   6 C    3.925 --   296 C    1.373   310 N    1.353   307 C    1.161
   307   6 C    3.839 --   308 C    1.693   306 C    1.161   333 H    0.999
   308   6 C    3.849 --   307 C    1.693   309 C    1.167   334 H    0.999
   309   6 C    3.944 --   310 N    1.417   279 C    1.284   308 C    1.167
   310   7 N    2.551 --   309 C    1.417   306 C    1.353
   311   7 N    3.250 --   292 C    1.252   295 C    1.223   335 H    0.961
   312   6 C    3.896 --   320 C    1.419   313 C    1.417   285 C    1.053
   313   6 C    3.859 --   314 C    1.465   312 C    1.417   336 H    0.988
   314   6 C    3.896 --   313 C    1.465   315 C    1.401   337 H    0.985
   315   6 C    3.899 --   314 C    1.401   319 C    1.401   316 C    1.039
   316   6 C    4.098 --   318 O    1.818   317 O    1.211   315 C    1.039
   317   8 O    2.367 --   316 C    1.211   338 H    0.943   318 O    0.184
   318   8 O    2.031 --   316 C    1.818   317 O    0.184
   319   6 C    3.892 --   320 C    1.463   315 C    1.401   339 H    0.985
   320   6 C    3.863 --   319 C    1.463   312 C    1.419   340 H    0.988
   321   1 H    1.025 --   281 C    0.998
   322   1 H    1.030 --   282 C    0.998
   323   1 H    1.082 --   284 N    0.961
   324   1 H    1.036 --   287 C    0.999
   325   1 H    1.029 --   288 C    0.999
   326   1 H    1.025 --   293 C    0.998
   327   1 H    1.030 --   294 C    0.998
   328   1 H    1.048 --   298 C    0.988
   329   1 H    1.030 --   299 C    0.985
   330   1 H    0.979 --   302 O    0.943
   331   1 H    1.021 --   304 C    0.985
   332   1 H    1.045 --   305 C    0.988
   333   1 H    1.036 --   307 C    0.999
   334   1 H    1.030 --   308 C    0.999
   335   1 H    1.082 --   311 N    0.961
   336   1 H    1.045 --   313 C    0.988
   337   1 H    1.030 --   314 C    0.985
   338   1 H    0.979 --   317 O    0.943
   339   1 H    1.021 --   319 C    0.985
   340   1 H    1.048 --   320 C    0.988
   341   6 C    3.831 --   371 C    1.284   342 C    1.281   142 C    1.227
   342   6 C    3.905 --   341 C    1.281   343 C    1.271   346 N    1.252
   343   6 C    3.829 --   344 C    1.578   342 C    1.271   383 H    0.998
   344   6 C    3.820 --   343 C    1.578   345 C    1.263   384 H    0.998
   345   6 C    3.887 --   347 C    1.336   344 C    1.263   346 N    1.223
   346   7 N    3.250 --   342 C    1.252   345 C    1.223   385 H    0.961
   347   6 C    3.835 --   348 C    1.373   345 C    1.336   374 C    1.053
   348   6 C    3.925 --   347 C    1.373   351 N    1.352   349 C    1.161
   349   6 C    3.839 --   350 C    1.693   348 C    1.161   386 H    0.999
   350   6 C    3.849 --   349 C    1.693   352 C    1.167   387 H    0.999
   351   7 N    2.551 --   352 C    1.417   348 C    1.352
   352   6 C    3.944 --   351 N    1.417   353 C    1.284   350 C    1.167
   353   6 C    3.831 --   352 C    1.284   354 C    1.281   144 C    1.228
   354   6 C    3.905 --   353 C    1.281   355 C    1.271   373 N    1.252
   355   6 C    3.829 --   356 C    1.578   354 C    1.271   388 H    0.998
   356   6 C    3.820 --   355 C    1.578   357 C    1.263   389 H    0.998
   357   6 C    3.887 --   358 C    1.336   356 C    1.263   373 N    1.223
   358   6 C    3.834 --   368 C    1.373   357 C    1.336   359 C    1.053
   359   6 C    3.896 --   367 C    1.419   360 C    1.418   358 C    1.053
   360   6 C    3.863 --   361 C    1.465   359 C    1.418   390 H    0.988
   361   6 C    3.896 --   360 C    1.465   362 C    1.401   391 H    0.985
   362   6 C    3.900 --   361 C    1.401   366 C    1.401   363 C    1.039
   363   6 C    4.098 --   365 O    1.818   364 O    1.211   362 C    1.039
   364   8 O    2.366 --   363 C    1.211   392 H    0.943   365 O    0.184
   365   8 O    2.032 --   363 C    1.818   364 O    0.184
   366   6 C    3.892 --   367 C    1.463   362 C    1.401   393 H    0.985
   367   6 C    3.859 --   366 C    1.463   359 C    1.419   394 H    0.988
   368   6 C    3.925 --   358 C    1.373   372 N    1.352   369 C    1.161
   369   6 C    3.839 --   370 C    1.693   368 C    1.161   395 H    0.999
   370   6 C    3.849 --   369 C    1.693   371 C    1.167   396 H    0.999
   371   6 C    3.944 --   372 N    1.417   341 C    1.284   370 C    1.167
   372   7 N    2.551 --   371 C    1.417   368 C    1.352
   373   7 N    3.250 --   354 C    1.252   357 C    1.223   397 H    0.961
   374   6 C    3.896 --   382 C    1.419   375 C    1.417   347 C    1.053
   375   6 C    3.859 --   376 C    1.465   374 C    1.417   398 H    0.988
   376   6 C    3.896 --   375 C    1.465   377 C    1.401   399 H    0.985
   377   6 C    3.900 --   376 C    1.401   381 C    1.401   378 C    1.039
   378   6 C    4.098 --   380 O    1.818   379 O    1.211   377 C    1.039
   379   8 O    2.367 --   378 C    1.211   400 H    0.943   380 O    0.184
   380   8 O    2.031 --   378 C    1.818   379 O    0.184
   381   6 C    3.892 --   382 C    1.463   377 C    1.401   401 H    0.985
   382   6 C    3.863 --   381 C    1.463   374 C    1.419   402 H    0.988
   383   1 H    1.025 --   343 C    0.998
   384   1 H    1.030 --   344 C    0.998
   385   1 H    1.082 --   346 N    0.961
   386   1 H    1.036 --   349 C    0.999
   387   1 H    1.030 --   350 C    0.999
   388   1 H    1.025 --   355 C    0.998
   389   1 H    1.030 --   356 C    0.998
   390   1 H    1.048 --   360 C    0.988
   391   1 H    1.030 --   361 C    0.985
   392   1 H    0.979 --   364 O    0.943
   393   1 H    1.021 --   366 C    0.985
   394   1 H    1.045 --   367 C    0.988
   395   1 H    1.036 --   369 C    0.999
   396   1 H    1.030 --   370 C    0.999
   397   1 H    1.082 --   373 N    0.961
   398   1 H    1.045 --   375 C    0.988
   399   1 H    1.030 --   376 C    0.985
   400   1 H    0.979 --   379 O    0.943
   401   1 H    1.021 --   381 C    0.985
   402   1 H    1.048 --   382 C    0.988
   403   6 C    3.829 --   433 C    1.284   404 C    1.281   146 C    1.228
   404   6 C    3.905 --   403 C    1.281   405 C    1.272   408 N    1.252
   405   6 C    3.828 --   406 C    1.578   404 C    1.272   445 H    0.998
   406   6 C    3.819 --   405 C    1.578   407 C    1.264   446 H    0.998
   407   6 C    3.887 --   409 C    1.335   406 C    1.264   408 N    1.223
   408   7 N    3.250 --   404 C    1.252   407 C    1.223   447 H    0.961
   409   6 C    3.834 --   410 C    1.374   407 C    1.335   436 C    1.053
   410   6 C    3.925 --   409 C    1.374   413 N    1.352   411 C    1.161
   411   6 C    3.839 --   412 C    1.692   410 C    1.161   448 H    0.999
   412   6 C    3.849 --   411 C    1.692   414 C    1.167   449 H    0.999
   413   7 N    2.550 --   414 C    1.418   410 C    1.352
   414   6 C    3.944 --   413 N    1.418   415 C    1.284   412 C    1.167
   415   6 C    3.829 --   414 C    1.284   416 C    1.280   148 C    1.228
   416   6 C    3.905 --   415 C    1.280   417 C    1.272   435 N    1.252
   417   6 C    3.828 --   418 C    1.577   416 C    1.272   450 H    0.998
   418   6 C    3.819 --   417 C    1.577   419 C    1.264   451 H    0.998
   419   6 C    3.887 --   420 C    1.335   418 C    1.264   435 N    1.223
   420   6 C    3.834 --   430 C    1.373   419 C    1.335   421 C    1.053
   421   6 C    3.896 --   429 C    1.418   422 C    1.418   420 C    1.053
   422   6 C    3.863 --   423 C    1.465   421 C    1.418   452 H    0.988
   423   6 C    3.896 --   422 C    1.465   424 C    1.401   453 H    0.985
   424   6 C    3.899 --   423 C    1.401   428 C    1.401   425 C    1.039
   425   6 C    4.098 --   427 O    1.818   426 O    1.210   424 C    1.039
   426   8 O    2.366 --   425 C    1.210   454 H    0.943   427 O    0.184
   427   8 O    2.032 --   425 C    1.818   426 O    0.184
   428   6 C    3.892 --   429 C    1.463   424 C    1.401   455 H    0.985
   429   6 C    3.859 --   428 C    1.463   421 C    1.418   456 H    0.988
   430   6 C    3.925 --   420 C    1.373   434 N    1.352   431 C    1.161
   431   6 C    3.839 --   432 C    1.693   430 C    1.161   457 H    0.999
   432   6 C    3.849 --   431 C    1.693   433 C    1.167   458 H    0.999
   433   6 C    3.944 --   434 N    1.418   403 C    1.284   432 C    1.167
   434   7 N    2.550 --   433 C    1.418   430 C    1.352
   435   7 N    3.249 --   416 C    1.252   419 C    1.223   459 H    0.961
   436   6 C    3.896 --   444 C    1.419   437 C    1.417   409 C    1.053
   437   6 C    3.859 --   438 C    1.465   436 C    1.417   460 H    0.988
   438   6 C    3.896 --   437 C    1.465   439 C    1.401   461 H    0.985
   439   6 C    3.899 --   438 C    1.401   443 C    1.401   440 C    1.039
   440   6 C    4.098 --   442 O    1.818   441 O    1.211   439 C    1.039
   441   8 O    2.367 --   440 C    1.211   462 H    0.943   442 O    0.184
   442   8 O    2.031 --   440 C    1.818   441 O    0.184
   443   6 C    3.892 --   444 C    1.463   439 C    1.401   463 H    0.986
   444   6 C    3.863 --   443 C    1.463   436 C    1.419   464 H    0.988
   445   1 H    1.025 --   405 C    0.998
   446   1 H    1.030 --   406 C    0.998
   447   1 H    1.082 --   408 N    0.961
   448   1 H    1.036 --   411 C    0.999
   449   1 H    1.030 --   412 C    0.999
   450   1 H    1.025 --   417 C    0.998
   451   1 H    1.030 --   418 C    0.998
   452   1 H    1.048 --   422 C    0.988
   453   1 H    1.030 --   423 C    0.985
   454   1 H    0.979 --   426 O    0.943
   455   1 H    1.021 --   428 C    0.985
   456   1 H    1.045 --   429 C    0.988
   457   1 H    1.036 --   431 C    0.999
   458   1 H    1.030 --   432 C    0.999
   459   1 H    1.082 --   435 N    0.961
   460   1 H    1.045 --   437 C    0.988
   461   1 H    1.030 --   438 C    0.985
   462   1 H    0.979 --   441 O    0.943
   463   1 H    1.021 --   443 C    0.986
   464   1 H    1.048 --   444 C    0.988
   465   6 C    3.832 --   495 C    1.284   466 C    1.282   150 C    1.228
   466   6 C    3.904 --   465 C    1.282   467 C    1.271   470 N    1.252
   467   6 C    3.829 --   468 C    1.578   466 C    1.271   507 H    0.998
   468   6 C    3.817 --   467 C    1.578   469 C    1.263   508 H    0.998
   469   6 C    3.887 --   471 C    1.336   468 C    1.263   470 N    1.224
   470   7 N    3.251 --   466 C    1.252   469 C    1.224   509 H    0.961
   471   6 C    3.833 --   472 C    1.371   469 C    1.336   498 C    1.054
   472   6 C    3.926 --   471 C    1.371   475 N    1.356   473 C    1.159
   473   6 C    3.841 --   474 C    1.695   472 C    1.159   510 H    0.999
   474   6 C    3.850 --   473 C    1.695   476 C    1.165   511 H    0.999
   475   7 N    2.549 --   476 C    1.411   472 C    1.356
   476   6 C    3.947 --   475 N    1.411   477 C    1.293   474 C    1.165
   477   6 C    3.830 --   476 C    1.293   478 C    1.288   152 C    1.210
   478   6 C    3.907 --   477 C    1.288   479 C    1.268   497 N    1.250
   479   6 C    3.828 --   480 C    1.581   478 C    1.268   512 H    0.998
   480   6 C    3.820 --   479 C    1.581   481 C    1.262   513 H    0.998
   481   6 C    3.888 --   482 C    1.337   480 C    1.262   497 N    1.223
   482   6 C    3.837 --   492 C    1.371   481 C    1.337   483 C    1.054
   483   6 C    3.896 --   491 C    1.418   484 C    1.418   482 C    1.054
   484   6 C    3.863 --   485 C    1.465   483 C    1.418   514 H    0.988
   485   6 C    3.896 --   484 C    1.465   486 C    1.401   515 H    0.985
   486   6 C    3.899 --   485 C    1.401   490 C    1.401   487 C    1.039
   487   6 C    4.098 --   489 O    1.818   488 O    1.210   486 C    1.039
   488   8 O    2.366 --   487 C    1.210   516 H    0.943   489 O    0.184
   489   8 O    2.032 --   487 C    1.818   488 O    0.184
   490   6 C    3.892 --   491 C    1.463   486 C    1.401   517 H    0.985
   491   6 C    3.859 --   490 C    1.463   483 C    1.418   518 H    0.988
   492   6 C    3.924 --   482 C    1.371   496 N    1.353   493 C    1.161
   493   6 C    3.839 --   494 C    1.692   492 C    1.161   519 H    0.998
   494   6 C    3.849 --   493 C    1.692   495 C    1.167   520 H    0.999
   495   6 C    3.943 --   496 N    1.417   465 C    1.284   494 C    1.167
   496   7 N    2.553 --   495 C    1.417   492 C    1.353
   497   7 N    3.249 --   478 C    1.250   481 C    1.223   521 H    0.961
   498   6 C    3.896 --   506 C    1.418   499 C    1.417   471 C    1.054
   499   6 C    3.858 --   500 C    1.465   498 C    1.417   522 H    0.988
   500   6 C    3.896 --   499 C    1.465   501 C    1.401   523 H    0.985
   501   6 C    3.899 --   500 C    1.401   505 C    1.401   502 C    1.039
   502   6 C    4.098 --   504 O    1.818   503 O    1.210   501 C    1.039
   503   8 O    2.366 --   502 C    1.210   524 H    0.943   504 O    0.184
   504   8 O    2.032 --   502 C    1.818   503 O    0.184
   505   6 C    3.893 --   506 C    1.463   501 C    1.401   525 H    0.985
   506   6 C    3.863 --   505 C    1.463   498 C    1.418   526 H    0.988
   507   1 H    1.025 --   467 C    0.998
   508   1 H    1.030 --   468 C    0.998
   509   1 H    1.082 --   470 N    0.961
   510   1 H    1.034 --   473 C    0.999
   511   1 H    1.030 --   474 C    0.999
   512   1 H    1.026 --   479 C    0.998
   513   1 H    1.030 --   480 C    0.998
   514   1 H    1.048 --   484 C    0.988
   515   1 H    1.030 --   485 C    0.985
   516   1 H    0.979 --   488 O    0.943
   517   1 H    1.021 --   490 C    0.985
   518   1 H    1.045 --   491 C    0.988
   519   1 H    1.034 --   493 C    0.998
   520   1 H    1.029 --   494 C    0.999
   521   1 H    1.082 --   497 N    0.961
   522   1 H    1.045 --   499 C    0.988
   523   1 H    1.030 --   500 C    0.985
   524   1 H    0.979 --   503 O    0.943
   525   1 H    1.021 --   505 C    0.985
   526   1 H    1.048 --   506 C    0.988
 ---------------------------------------------------------------------------

Topologies differ in total number of bonds
Writing topology from bond orders to xtbtopo.mol

 dipole moment from electron density (au)
     X       Y       Z   
-321.8815   0.1319   0.1321  total (Debye):  818.141


           -------------------------------------------------
          | TOTAL ENERGY            -1087.678295353925 Eh   |
          | GRADIENT NORM               0.158806701392 Eh/α |
          | HOMO-LUMO GAP               0.062797715057 eV   |
           -------------------------------------------------
########################################################################
[WARNING] Runtime exception occurred
-1- restart_readRestart: Dimension missmatch in restart file.
########################################################################

------------------------------------------------------------------------
 * finished run on 2022/07/30 at 08:08:41.824     
------------------------------------------------------------------------
 total:
 * wall-time:     0 d,  0 h,  2 min,  9.250 sec
 *  cpu-time:     0 d,  0 h,  2 min,  8.602 sec
 * ratio c/w:     0.995 speedup
 SCF:
 * wall-time:     0 d,  0 h,  2 min,  7.819 sec
 *  cpu-time:     0 d,  0 h,  2 min,  7.182 sec
 * ratio c/w:     0.995 speedup

