608
 energy: -913.455872245305 gnorm: 0.000565419784 xtb: 6.5.1 (b24c23e)
C          121.89256677918713       -0.16527260973038       -0.02833100725269
C          122.50438109016781       -1.40981185108553        0.05018683548642
C          121.86625345489003       -2.68032335437107        0.12486017563947
C          122.83990800669017       -3.63767992294374        0.18280753086602
C          124.10396297420915       -2.98225833749760        0.14631020940285
N          123.85077604202944       -1.64201726509768        0.06741079423312
C          125.36608786331657       -3.57901105418216        0.18078426337679
C          125.39394974068483       -5.06958348398054        0.25694317057561
C          125.39486446341486       -5.82753033803372       -0.91763680936407
C          125.37076338550992       -5.13954640968354       -2.25658936222953
C          125.42288417853521       -7.21470311735979       -0.83582349770381
C          125.45148290590056       -7.85766124502083        0.39752669563685
C          125.46247991306046       -9.36072647523903        0.47154506472367
C          125.45075669662464       -7.09354733930839        1.55977656087368
C          125.42305577734254       -5.70497621012317        1.50152315106747
C          125.42892257158159       -4.88462712852149        2.76393782584778
C          126.58625704255965       -2.90532656770303        0.14642076420571
C          127.87129822748805       -3.57964027372265        0.17742673588491
C          128.81053656663926       -2.61215590275479        0.12544549002430
N          126.76580252172364       -1.55732977769938        0.07707550703584
C          128.09816345667389       -1.35038212505011        0.06422885567058
C          128.74977510431924       -0.10300257758737       -0.01529154982099
C          128.11276928322880        1.14867098991295       -0.10248201353102
C          128.74292553349056        2.42012575702711       -0.16387570679209
C          127.76481802205755        3.37391020159232       -0.22542811622522
C          126.50586102163017        2.71206307406059       -0.20037599962983
N          126.76780413664396        1.36963630870664       -0.12576718028119
C          125.24477134068910        3.31007998625348       -0.24091214779334
C          125.21988774832508        4.79969124535269       -0.32939599499815
C          125.23107743144043        5.42434524607016       -1.57969343736072
C          125.26522419243615        4.59372768839753       -2.83492625909057
C          125.21169910658929        6.81249687280740       -1.65057155349444
C          125.18263689020286        7.58672082564505       -0.49547950827757
C          125.14286179556856        9.08850114274255       -0.58395269743890
C          125.16999779545763        6.95438554113395        0.74368341762865
C          125.18884844443120        5.56790404963570        0.83816209301068
C          125.17798876939068        4.89118580057329        2.18302031860488
C          124.02371257015321        2.63518563116670       -0.20319562914952
C          122.73160915823978        3.30180069222734       -0.24700964844726
C          121.79866503618389        2.33003729407639       -0.18649686258368
C          122.52059023332561        1.07172145095618       -0.10610168015609
N          123.85748965991627        1.29349041329780       -0.11908707888097
H          120.80747936975955       -0.16887125477388       -0.02979242842434
H          120.79810175212374       -2.82853851007226        0.13169052724345
H          122.70694215747811       -4.70580210512301        0.24613163035892
H          124.56357027835963       -0.92154673297470        0.02590234774421
H          124.46495109665895       -4.53864202710332       -2.35813782006672
H          125.40036084427464       -5.86599055177117       -3.06813734064909
H          126.22760827981843       -4.47030540566895       -2.35381775671139
H          125.42536434137914       -7.80282611548308       -1.74777702060784
H          124.43838483946048       -9.74110435305433        0.45627687673966
H          125.99433580737340       -9.78716782935406       -0.37943324501163
H          125.93747548743339       -9.70162360066176        1.39171636429084
H          125.47491219538773       -7.58634833256968        2.52627633375542
H          124.53589359198052       -4.25870046412684        2.81394979959967
H          125.45630389342877       -5.52540907760795        3.64475596742453
H          126.29927154127101       -4.22599553070443        2.78286692732704
H          128.00734229507401       -4.64801381020509        0.22916750761438
H          129.88354922715291       -2.71763861744408        0.11954951511614
H          129.80937658731330        2.57634046512382       -0.15585335503992
H          127.89408872530031        4.44277964546352       -0.27969327422457
H          126.05836226641399        0.64536070210136       -0.08819955452694
H          125.23594248926206        5.22655370332897       -3.72142438540617
H          126.17517968815901        3.99117652561669       -2.86580445327401
H          124.41295132923955        3.91232123002530       -2.86200662238862
H          125.22128384459909        7.29685847595581       -2.62157564669063
H          125.65099989144178        9.54112375895928        0.26797828125636
H          124.10622701947270        9.43352304258467       -0.58280414625209
H          125.61529268071430        9.43667982417998       -1.50274248506612
H          125.14710263520142        7.55059772572434        1.65008125025453
H          125.14037632443546        5.62477050379665        2.98778437458641
H          124.31185608890780        4.23240892234414        2.26866367605106
H          126.07471519535842        4.28103854769721        2.30754121404171
H          122.59069256395625        4.36883781898927       -0.31527148259216
H          120.72383154381487        2.42291306770268       -0.19339219434908
C          205.64336265235258        0.11027674505509       -0.05539968725807
C          205.02601613407165        1.33379223445946       -0.28167287516790
C          205.65891859966257        2.59000593680266       -0.50176088893943
C          204.68144564668538        3.52816333995567       -0.68116860622736
C          203.42016374660946        2.87465203213133       -0.57702400642228
N          203.67877367026986        1.55490893799059       -0.33626951918695
C          202.15568169915733        3.45562248885313       -0.69445453807923
C          202.12205315050878        4.92563439547193       -0.95178670348849
C          202.11922581944555        5.40565733083363       -2.26435719352593
C          202.14746970089055        4.43884273852022       -3.41811387284311
C          202.08665937780239        6.77685326222961       -2.49075327469217
C          202.05551353927092        7.67570795064159       -1.42981020748458
C          202.03941853519464        9.15875373803918       -1.68502780871286
C          202.05864333438379        7.18675447930156       -0.12733332997475
C          202.09097017479220        5.81993325463934        0.12225818500073
C          202.08820574772503        5.29869468428536        1.53467891650024
C          200.93860839044692        2.78419402900107       -0.58608161621086
C          199.65015916900927        3.44079890921442       -0.71192043848621
C          198.71576636390310        2.48238784876689       -0.54066087179278
N          200.76598445709308        1.45513794089626       -0.34584242608394
C          199.43470656248630        1.24362236237444       -0.31224736032472
C          198.78971947010587        0.01433601533087       -0.06933796240869
C          199.43177288174300       -1.21291350431213        0.17795857591178
C          198.80623838077631       -2.46790877785836        0.40457043320377
C          199.78796461248965       -3.40446816007567        0.57563916903185
C          201.04447302303731       -2.74822673577905        0.45653996603022
N          200.77755994391248       -1.42592251198827        0.21879837940712
C          202.30805450591154       -3.33383776820646        0.55610775538711
C          202.33965455749163       -4.80397202364048        0.81096246392037
C          202.35020965326504       -5.69711448308292       -0.26444393929987
C          202.33158602688738       -5.17419813942632       -1.67615722147891
C          202.37608107844096       -7.06448883747491       -0.01699901143726
C          202.39030724638266       -7.55520612225440        1.28468718347636
C          202.43779577453927       -9.03782911280645        1.53831759929571
C          202.38103451802326       -6.65746346033721        2.34704275216795
C          202.35532084707992       -5.28581331488917        2.12285427807079
C          202.34315546835774       -4.32052379989076        3.27813811959357
C          203.52589997881543       -2.66301207549504        0.43461915041211
C          204.82120605579860       -3.31437298551107        0.55131196145454
C          205.74937363211635       -2.35077508716060        0.38282736466335
C          205.02132122071038       -1.11313104391766        0.16121887151774
N          203.68553550078849       -1.33867635895753        0.19900143348216
H          206.72839778018994        0.12009830248692       -0.04947769195732
H          206.72644292159978        2.74194657329525       -0.51761340899246
H          204.80983191387884        4.58195444186384       -0.86987103018796
H          202.96888267943675        0.84076663553971       -0.21411798673783
H          203.05271165025681        3.82973015804961       -3.38032147750525
H          202.12224475700725        4.96789012981634       -4.37030851986942
H          201.28996819968114        3.76520753919356       -3.36859219134520
H          202.08291087776763        7.14901106430061       -3.51007731142978
H          203.06048089082194        9.54747348660241       -1.68251359167619
H          201.59344561189300        9.38208709291811       -2.65442920851709
H          201.47746492624114        9.67968313112644       -0.90929764937531
H          202.03291509207588        7.88083411682936        0.70641731463024
H          202.98668078079007        4.70779141522936        1.72284709936641
H          202.05251911228109        6.11802843826534        2.25204016136383
H          201.22378321496780        4.65237485163000        1.69782474429809
H          199.50855267718262        4.49251848339356       -0.90290281033281
H          197.64207896564739        2.58054541518333       -0.55545327797977
H          197.74023848772126       -2.62617305956317        0.42658019368851
H          199.66266944934105       -4.45823773839323        0.76541155511185
H          201.48443883877431       -0.71056092546652        0.08513237001786
H          202.36947888453639       -5.99220826928154       -2.39493035859315
H          201.42332543836494       -4.59490209388589       -1.85356014613121
H          203.18554200465078       -4.51646276865525       -1.84815448328808
H          202.38338850291635       -7.75760660498286       -0.85191633069355
H          201.98397197223707       -9.28301406511983        2.49878613353131
H          203.47565475552645       -9.37872693363284        1.55573919145921
H          201.91581448816595       -9.58310291743142        0.75150586138311
H          202.39215259588227       -7.03104798252097        3.36578612927032
H          202.37851865553796       -4.85097256219492        4.22922062842058
H          203.20133823066337       -3.64854779018535        3.21935854720279
H          201.43873422564229       -3.70957124920511        3.25197780072676
H          204.96732192356635       -4.36648520024650        0.73783538469910
H          206.82463739441960       -2.43706422254680        0.39999658537401
C          130.15831185190578       -0.09449015945063       -0.01000161315952
C          131.37546848851645       -0.08487650859544       -0.00661597082564
C          141.13103426701565       -0.06753066686504       -0.01962341112801
C          142.34961238647179       -0.06681456067276       -0.02672535278281
C          152.13067244122260       -0.05890458094201       -0.06608745062915
C          153.35013021072129       -0.05634688893356       -0.06695052138105
C          163.14371358522482       -0.03872674648625       -0.06084132878497
C          164.36318048476275       -0.03661442166594       -0.05524667601948
C          174.15823748464211       -0.04014774720055       -0.05069747500385
C          175.37775747208792       -0.04057420375953       -0.04913725656510
C          185.17618112852534       -0.07217014086935       -0.08211421144026
C          186.39558975239757       -0.07858777735349       -0.08966734086997
C          196.16416272812032       -0.01906432101398       -0.07658263907668
C          197.38106073649791       -0.00170110053411       -0.07280412944733
C          132.78314814364774       -0.08190077751495       -0.00347295428811
C          133.41869531245803       -1.15292109091967        0.65261779832615
C          132.79296891083848       -2.22486028728403        1.34041726331472
C          133.77558127495155       -3.04234322917971        1.82913401699578
C          135.03075028347445       -2.49023341435585        1.45426104090633
N          134.76456799584378       -1.34751009214897        0.74899977456227
C          136.29338899930113       -3.01903658161770        1.73693665973921
C          136.30953623613186       -4.30192034410310        2.50101728233461
C          136.22714279791657       -5.52029045242134        1.82089845807178
C          136.12522666723464       -5.53800675070609        0.31887880561528
C          136.24192781678894       -6.70819787239902        2.54267241600137
C          136.33573907609860       -6.70023377381636        3.93039940472709
C          136.37134500744514       -7.99284338101418        4.70026492742175
C          136.41815075001333       -5.48181485282353        4.59677709048311
C          136.40590782280873       -4.28186491470231        3.89550760352892
C          136.49521513308488       -2.96766976460035        4.62460592893117
C          137.51982596491416       -2.46833762489349        1.37295530990631
C          138.79319035382193       -3.09709407005067        1.67249780165748
C          139.74678708185741       -2.27861280825997        1.18108049758453
N          137.72119490461708       -1.29494419173964        0.71033775993540
C          139.05612964899518       -1.15045176225244        0.58925470554240
C          139.72463057914607       -0.06525169506280       -0.01578687557775
C          139.08565375106826        1.03230734657030       -0.62611897457005
C          139.70827590701782        2.15624819414240       -1.22740655199911
C          138.72501916668563        2.97367317466744       -1.71445376132291
C          137.47113379121544        2.37318766311680       -1.41877054311592
N          137.73959851445460        1.20583581858887       -0.75486933026722
C          136.20961347958718        2.87300327688469       -1.75412226117796
C          136.19686279390424        4.15057955823433       -2.52702917973582
C          136.28134479701734        4.12031717296903       -3.92220094904829
C          136.38067008927410        2.80147657688264       -4.64169836887788
C          136.27000849255342        5.31428389415419       -4.63342323829552
C          136.17521561738130        6.53696976476597       -3.97645943682666
C          136.18530503636663        7.82259267389522       -4.75868020156792
C          136.09131893965775        6.55508442214739       -2.58824002035337
C          136.10043361563390        5.37314882257487       -1.85650347393768
C          136.00611146387484        5.40115724653786       -0.35419775590078
C          134.98196114153626        2.29419919498610       -1.44055513812577
C          133.70706429740571        2.86552896727770       -1.83490074854884
C          132.75377622203689        2.04615182937528       -1.34390384792655
C          133.44773491791850        0.97824773392830       -0.65163947467084
N          134.78299852600534        1.14949857092522       -0.73045325631997
H          131.72747415592633       -2.34588329666923        1.44873294225176
H          133.65009586179278       -3.94704159934260        2.40170139403983
H          135.46717333971742       -0.73009966368995        0.35613920459449
H          135.20463608431285       -5.04777447705603       -0.00411663076434
H          136.96389145834613       -4.99831087211884       -0.12461312665382
H          136.12655588054594       -6.55987128164797       -0.05924207287271
H          136.17821056857440       -7.65383876066807        2.01424408498770
H          135.91200853316136       -7.87301677091643        5.68185716462112
H          135.84856376904148       -8.78215667210319        4.15963380347434
H          137.40669848345158       -8.30942437687221        4.84687942862683
H          136.49166140140665       -5.46611959404204        5.67934099266925
H          135.62472887487772       -2.34854993121459        4.39959684987674
H          136.54497017962191       -3.12287180402216        5.70195296706979
H          137.38495492087768       -2.41965576601166        4.30882874550254
H          138.91296169028419       -4.03887220969553        2.18363540447589
H          140.81648003559079       -2.40874723010549        1.19800448768414
H          140.77261382204310        2.31639356030068       -1.27381162682775
H          138.84911507160109        3.91238872353173       -2.22963929118159
H          137.03825845073649        0.55925203408859       -0.40946521663877
H          136.37952330348173        2.94630871289756       -5.72162571424922
H          135.54087077200430        2.15824597077335       -4.37276472009782
H          137.30039144703815        2.28483040663401       -4.36011692022210
H          136.33396324526748        5.29057978944887       -5.71643610189468
H          135.69728836053872        7.69236883984267       -5.72504682099845
H          137.21516759243147        8.13941389980933       -4.93943978874908
H          135.67705354330315        8.61609700659677       -4.21048891875541
H          136.01591515051956        7.50402030984196       -2.06728107368885
H          136.87421788776084        4.91035606944089        0.08981488316825
H          135.95702627741042        6.42552374720012        0.01382112838171
H          135.11426329734297        4.86684987687975       -0.02128062651491
H          133.58616918232914        3.76830731790664       -2.41192141807869
H          131.68270990319451        2.13073545721201       -1.43466743996821
C          143.75566482415920       -0.07181833639919       -0.03429511484076
C          144.39917620120147       -0.95729126776311        0.85305719548101
C          143.78521581031205       -1.83155389214100        1.78578508938294
C          144.77373754097042       -2.53610692052364        2.41780065502691
C          146.02170428013338       -2.10692449327470        1.89060928308622
N          145.74547700831559       -1.14527078087107        0.95606219845069
C          147.28475096212949       -2.59420393750513        2.23947198606563
C          147.30267104714889       -3.69677013588645        3.24655284014347
C          147.15914957641127       -5.02373623131060        2.83103888484309
C          146.98959716405153       -5.34055157962339        1.36894735372054
C          147.17583741883638       -6.04161686040974        3.77734929865635
C          147.33083935039235       -5.75746322906727        5.13024960575005
C          147.36655658307819       -6.87020722430756        6.14275214006562
C          147.47370145689095       -4.43352010725068        5.53218563586210
C          147.46134453555845       -3.39961790809385        4.60321827523944
C          147.61633448197961       -1.96941560379396        5.04705861754460
C          148.50962819172614       -2.15368306863488        1.74482061743540
C          149.77873499615120       -2.73811650705809        2.13671317701105
C          150.73512842777171       -2.03602909037047        1.49411914155345
N          148.71653785431599       -1.12682210793240        0.87299638854963
C          150.05163931341545       -1.02375408346222        0.71579371268420
C          150.72445893032031       -0.06150355087088       -0.06819247904200
C          150.07854358990835        0.90595978362965       -0.86490537692319
C          150.69061204245799        1.90744115193569       -1.66033569659768
C          149.70169207844643        2.59931321662506       -2.30514109488369
C          148.45394931636642        2.04155244593750       -1.91639687769915
N          148.73155559271598        1.02892959627743       -1.03718494723725
C          147.19143615940993        2.43625812009437       -2.36895612677593
C          147.17631502002766        3.52859278918878       -3.38717075956927
C          147.30656936812491        3.21821242040984       -4.74393154737598
C          147.45970667163942        1.78438903643147       -5.17698747908375
C          147.28985600404511        4.24207249161202       -5.68385720538893
C          147.14534416689833        5.56911281205885       -5.29286308940009
C          147.14854068146886        6.67071813038625       -6.31810290274575
C          147.01761647256822        5.86641069689100       -3.93995278051497
C          147.03068553170601        4.85872068837722       -2.98268960678301
C          146.88784044096187        5.18920917855108       -1.52088734396155
C          145.96506133260939        1.91385683955874       -1.96604188213452
C          144.69431220493223        2.36094368859779       -2.50637743401793
C          143.73819990992314        1.66424557918249       -1.85714788690443
C          144.42501188926596        0.79711253484840       -0.92149619090093
N          145.76016376691504        0.95757111339418       -1.01771203949025
H          142.72334873917032       -1.90441472936503        1.95222303974915
H          144.65623035642366       -3.28477546446358        3.18439719559439
H          146.44066710694378       -0.64343514424844        0.41369470931922
H          146.05992501178153       -4.90827424256960        0.99339502527566
H          147.81233717182644       -4.91655088716777        0.79054200965940
H          146.96359669129149       -6.41735725238187        1.20466317795237
H          147.06500842278143       -7.07167137931850        3.45452181877804
H          147.00561724438606       -6.52567958244944        7.11210785519803
H          146.75477491253034       -7.71173723904903        5.81668603923251
H          148.39216871393128       -7.22509130695446        6.26867491382952
H          147.59506401948880       -4.20235881842465        6.58543719952668
H          146.75962647643880       -1.37585376069085        4.72254543900737
H          147.69617663818423       -1.90500967966028        6.13179556523902
H          148.51274689340394       -1.53128057619600        4.60411188975993
H          149.89447404046086       -3.57374416373959        2.80809866596774
H          151.80266703329309       -2.17669627714935        1.52316918126097
H          151.75210044639178        2.07615638056348       -1.72567217507843
H          149.81923351944758        3.42520030566391       -2.98779857830601
H          148.03697511410564        0.44613565180006       -0.58190643299215
H          147.47958567163809        1.70624150289966       -6.26358132143776
H          146.63266989795076        1.18231634155550       -4.79651527780403
H          148.38711951276113        1.36620597178116       -4.78052604866604
H          147.38860277455552        4.00044583089590       -6.73712586151938
H          146.76515992343329        6.31312776096126       -7.27403105832674
H          148.16842691684056        7.03010850853507       -6.47419133317813
H          146.54006850497046        7.51225550249417       -5.98597322513764
H          146.90397388704699        6.89880300305717       -3.62567370164822
H          147.74551959170810        4.81234636117511       -0.96059483690629
H          146.81717271400566        6.26604243216092       -1.37048130711204
H          145.99056321636846        4.71978430320399       -1.11311898677227
H          144.57795191875755        3.10332607597147       -3.27955672026568
H          142.66940959041466        1.70887519623357       -1.98831166917800
C          154.75622847164641       -0.05750918436619       -0.06581328712083
C          155.40041048147100       -0.93292489989148        0.83236143874397
C          154.78783271378921       -1.80625094650544        1.76615323290117
C          155.77630681447357       -2.50688206999743        2.40219191427483
C          157.02406146102780       -2.07628606549070        1.87630336840003
N          156.74722384897083       -1.11687968101264        0.93933541182413
C          158.28576505880812       -2.56425226502892        2.22934407613448
C          158.29791529353290       -3.66769908533264        3.23573627135222
C          158.16608039281726       -4.99484164803532        2.81682720669628
C          158.01555831453916       -5.31058723017534        1.35243157582731
C          158.17619853331101       -6.01383635277684        3.76199640495609
C          158.31340855961284       -5.73071244484927        5.11705124438403
C          158.34179405692498       -6.84476087793081        6.12835305992598
C          158.44493629517555       -4.40664166220238        5.52231983665778
C          158.43851289029391       -3.37154773045181        4.59456236461548
C          158.57974649966872       -1.94106811340995        5.04203961717376
C          159.51337468517821       -2.12633949850274        1.73972369921150
C          160.78004394625208       -2.71111187164517        2.13896281939838
C          161.74017611491152       -2.01130071852250        1.49944355065703
N          159.72534828138473       -1.10151811396537        0.86683586357594
C          161.06118768670649       -1.00040224473510        0.71551138090738
C          161.73776765804942       -0.04052295571112       -0.06808348467181
C          161.09374614555958        0.92473382284485       -0.86903319450721
C          161.70625392063653        1.92612359471120       -1.66399391724116
C          160.71774083857488        2.61569051148981       -2.31200451637767
C          159.47000222280255        2.05609272173870       -1.92599811454062
N          159.74700270002717        1.04483745056254       -1.04525398768171
C          158.20830346713907        2.44764178593706       -2.38368504359442
C          158.19623882016720        3.54240027381546       -3.39962229929332
C          158.32108576757133        3.23504492199763       -4.75750825366733
C          158.46458606501696        1.80151037101933       -5.19469608564823
C          158.30816962553689        4.26166492793285       -5.69454434680637
C          158.17289023201644        5.58842797335835       -5.29944581022497
C          158.18058235449016        6.69313173100837       -6.32133566583966
C          158.05036100204495        5.88270120018159       -3.94535774797470
C          158.05969616571230        4.87226328563631       -2.99099972942307
C          157.92280689808922        5.19931294619805       -1.52787250643937
C          156.98059831966199        1.92254054086728       -1.98894860886213
C          155.71402237347340        2.36834525119195       -2.53927304294808
C          154.75391038361315        1.67049594282499       -1.89752794940681
C          155.43272466931978        0.80485973371355       -0.95555047650841
N          156.76853766359926        0.96616421171792       -1.04158438833083
H          153.72643967046932       -1.88284921887693        1.93034335838992
H          155.65837365959342       -3.25434036244766        3.16984995733241
H          157.44174338903019       -0.61602744560122        0.39510829915102
H          157.09357419834112       -4.87354455635385        0.96373633204618
H          158.84862996708924       -4.89072453393192        0.78587645850508
H          157.98665858800666       -6.38723533427571        1.18758546396124
H          158.07399895483078       -7.04396915825888        3.43657666808288
H          157.97416851488794       -6.50144541249386        7.09561086126214
H          157.73202773531290       -7.68565218860995        5.79685759804025
H          159.36636219356768       -7.20023821832870        6.26087712953301
H          158.55240768177288       -4.17620648763621        6.57723672177698
H          157.71784192931113       -1.35491986219560        4.71767457689079
H          158.65703804783814       -1.87852840981440        6.12707046338726
H          159.47255362561310       -1.49333654107561        4.60149250212538
H          160.89168868009438       -3.54487526532022        2.81334794073880
H          162.80750322022303       -2.15247582292429        1.53400785259293
H          162.76763453218356        2.09633805148831       -1.72694822532431
H          160.83552894477458        3.44070936833403       -2.99566159297875
H          159.05264305674868        0.46129177810775       -0.59056390194288
H          158.49124811578076        1.72701132444013       -6.28139895555626
H          157.62945568467592        1.20558574245449       -4.82222698444071
H          159.38532175498207        1.37360233866318       -4.79313868071986
H          158.40283208830877        4.02240166772227       -6.74872580905307
H          157.79911368076500        6.33920354182001       -7.27937550348710
H          159.20145932435670        7.05137721978434       -6.47353880926153
H          157.57265749751505        7.53466398034339       -5.98815247134231
H          157.94387184941982        6.91489849793403       -3.62795749830107
H          158.78527267055668        4.82541621824841       -0.97290286650178
H          157.84816909822547        6.27552226625645       -1.37496919048609