      -----------------------------------------------------------      
     |                   =====================                   |     
     |                           x T B                           |     
     |                   =====================                   |     
     |                         S. Grimme                         |     
     |          Mulliken Center for Theoretical Chemistry        |     
     |                    University of Bonn                     |     
      -----------------------------------------------------------      

   * xtb version 6.5.1 (b24c23e) compiled by 'conda@728c89f4b128' on 2022-07-12

   xtb is free software: you can redistribute it and/or modify it under
   the terms of the GNU Lesser General Public License as published by
   the Free Software Foundation, either version 3 of the License, or
   (at your option) any later version.
   
   xtb is distributed in the hope that it will be useful,
   but WITHOUT ANY WARRANTY; without even the implied warranty of
   MERCHANTABILITY or FITNESS FOR A PARTICULAR PURPOSE.  See the
   GNU Lesser General Public License for more details.
   
   Cite this work as:
   * C. Bannwarth, E. Caldeweyher, S. Ehlert, A. Hansen, P. Pracht,
     J. Seibert, S. Spicher, S. Grimme, WIREs Comput. Mol. Sci., 2020, 11,
     e01493. DOI: 10.1002/wcms.1493
   
   for GFN2-xTB:
   * C. Bannwarth, S. Ehlert and S. Grimme., J. Chem. Theory Comput., 2019,
     15, 1652-1671. DOI: 10.1021/acs.jctc.8b01176
   for GFN1-xTB:
   * S. Grimme, C. Bannwarth, P. Shushkov, J. Chem. Theory Comput., 2017,
     13, 1989-2009. DOI: 10.1021/acs.jctc.7b00118
   for GFN0-xTB:
   * P. Pracht, E. Caldeweyher, S. Ehlert, S. Grimme, ChemRxiv, 2019, preprint.
     DOI: 10.26434/chemrxiv.8326202.v1
   for GFN-FF:
   * S. Spicher and S. Grimme, Angew. Chem. Int. Ed., 2020, 59, 15665-15673.
     DOI: 10.1002/anie.202004239
   
   for ALPB and GBSA implicit solvation:
   * S. Ehlert, M. Stahn, S. Spicher, S. Grimme, J. Chem. Theory Comput.,
     2021, 17, 4250-4261. DOI: 10.1021/acs.jctc.1c00471
   
   for DFT-D4:
   * E. Caldeweyher, C. Bannwarth and S. Grimme, J. Chem. Phys., 2017,
     147, 034112. DOI: 10.1063/1.4993215
   * E. Caldeweyher, S. Ehlert, A. Hansen, H. Neugebauer, S. Spicher,
     C. Bannwarth and S. Grimme, J. Chem. Phys., 2019, 150, 154122.
     DOI: 10.1063/1.5090222
   * E. Caldeweyher, J.-M. Mewes, S. Ehlert and S. Grimme, Phys. Chem. Chem. Phys.
     2020, 22, 8499-8512. DOI: 10.1039/D0CP00502A
   
   for sTDA-xTB:
   * S. Grimme and C. Bannwarth, J. Chem. Phys., 2016, 145, 054103.
     DOI: 10.1063/1.4959605
   
   in the mass-spec context:
   * V. Asgeirsson, C. Bauer and S. Grimme, Chem. Sci., 2017, 8, 4879.
     DOI: 10.1039/c7sc00601b
   * J. Koopman and S. Grimme, ACS Omega 2019, 4, 12, 15120-15133.
     DOI: 10.1021/acsomega.9b02011
   
   for metadynamics refer to:
   * S. Grimme, J. Chem. Theory Comput., 2019, 155, 2847-2862
     DOI: 10.1021/acs.jctc.9b00143
   
   for SPH calculations refer to:
   * S. Spicher and S. Grimme, J. Chem. Theory Comput., 2021, 17, 1701-1714
     DOI: 10.1021/acs.jctc.0c01306
   
   with help from (in alphabetical order)
   P. Atkinson, C. Bannwarth, F. Bohle, G. Brandenburg, E. Caldeweyher
   M. Checinski, S. Dohm, S. Ehlert, S. Ehrlich, I. Gerasimov, C. Hölzer
   A. Katbashev, J. Koopman, C. Lavigne, S. Lehtola, F. März, M. Müller,
   F. Musil, H. Neugebauer, J. Pisarek, C. Plett, P. Pracht, F. Pultar,
   J. Seibert, P. Shushkov, S. Spicher, M. Stahn, M. Steiner, T. Strunk,
   J. Stückrath, T. Rose, and J. Unsleber
   
 * started run on 2022/07/30 at 05:25:11.554     

           -------------------------------------------------
          |                Calculation Setup                |
           -------------------------------------------------

          program call               : xtb xtbopt.xyz --gfn 1 --vipea
          hostname                   : cx3-14-28.cx3.hpc.ic.ac.uk
          coordinate file            : xtbopt.xyz
          omp threads                :                     1

   ID    Z sym.   atoms
    1   28 Ni     1, 57, 117
    2    6 C      2-6, 8-11, 13-29, 32-37, 58-62, 64-67, 69-85, 88-93,
                  113-116, 118-122, 124-127, 129-145, 148-153
    3    7 N      7, 12, 30, 31, 63, 68, 86, 87, 123, 128, 146, 147
    4    1 H      38-56, 94-112, 154-171

           -------------------------------------------------
          |                 I P E A - x T B                 |
           -------------------------------------------------

        Reference                      10.1039/c7sc00601b
      * Hamiltonian:
        H0-scaling (s, p, d)           2.150000    2.300000    2.000000
        zeta-weighting                 0.000000
      * Dispersion:
        s8                             2.400000
        a1                             0.630000
        a2                             5.000000
        s9                             0.000000
      * Repulsion:
        kExp                           1.500000
        rExp                           1.000000
      * Coulomb:
        alpha                          1.000000
        third order                    atomic
        anisotropic                    false
      * Halogen bond correction:
        rad-scale                      1.300000
        damping                        0.440000


          ...................................................
          :                      SETUP                      :
          :.................................................:
          :  # basis functions                 702          :
          :  # atomic orbitals                 699          :
          :  # shells                          457          :
          :  # electrons                       546          :
          :  # halogen bonds                     0          :
          :  max. iterations                   250          :
          :  Hamiltonian                  GFN1-xTB          :
          :  restarted?                      false          :
          :  GBSA solvation                  false          :
          :  PC potential                    false          :
          :  electronic temp.          300.0000000     K    :
          :  accuracy                    1.0000000          :
          :  -> integral cutoff          0.2500000E+02      :
          :  -> integral neglect         0.1000000E-07      :
          :  -> SCF convergence          0.1000000E-05 Eh   :
          :  -> wf. convergence          0.2000000E-04 e    :
          :  Broyden damping             0.4000000          :
          ...................................................

 iter      E             dE          RMSdq      gap      omega  full diag
   1   -335.0128464 -0.335013E+03  0.104E+01    1.20       0.0  T
   2   -335.3561646 -0.343318E+00  0.642E+00    0.95       1.0  T
   3   -329.9725704  0.538359E+01  0.470E+00    0.82       1.0  T
   4   -336.0390418 -0.606647E+01  0.872E-01    1.57       1.0  T
   5   -336.3292743 -0.290233E+00  0.221E-01    1.34       1.0  T
   6   -336.3449776 -0.157034E-01  0.900E-02    1.38       1.0  T
   7   -336.3475156 -0.253800E-02  0.367E-02    1.37       1.0  T
   8   -336.3478684 -0.352759E-03  0.216E-02    1.37       1.0  T
   9   -336.3479272 -0.587956E-04  0.118E-02    1.37       1.0  T
  10   -336.3479590 -0.318210E-04  0.371E-03    1.37       2.1  T
  11   -336.3479627 -0.367301E-05  0.133E-03    1.37       5.7  T
  12   -336.3479634 -0.697424E-06  0.315E-04    1.37      24.2  T
  13   -336.3479634 -0.254993E-07  0.108E-04    1.37      71.1  T
  14   -336.3479634 -0.307790E-08  0.481E-05    1.37     158.8  T

   *** convergence criteria satisfied after 14 iterations ***

         #    Occupation            Energy/Eh            Energy/eV
      -------------------------------------------------------------
         1        2.0000           -1.0416136             -28.3437
       ...           ...                  ...                  ...
       267        2.0000           -0.3770845             -10.2610
       268        2.0000           -0.3770772             -10.2608
       269        2.0000           -0.3766818             -10.2500
       270        2.0000           -0.3766705             -10.2497
       271        2.0000           -0.3765836             -10.2474
       272        2.0000           -0.3765818             -10.2473
       273        2.0000           -0.3684828             -10.0269 (HOMO)
       274                         -0.3179598              -8.6521 (LUMO)
       275                         -0.3034997              -8.2586
       276                         -0.3002250              -8.1695
       277                         -0.2996423              -8.1537
       278                         -0.2996314              -8.1534
       ...                                ...                  ...
       699                        548.4887897           14925.1397
      -------------------------------------------------------------
                  HL-Gap            0.0505230 Eh            1.3748 eV
             Fermi-level           -0.3432213 Eh           -9.3395 eV

 SCC (total)                   0 d,  0 h,  0 min,  5.721 sec
 SCC setup                      ...        0 min,  0.007 sec (  0.123%)
 Dispersion                     ...        0 min,  0.010 sec (  0.172%)
 classical contributions        ...        0 min,  0.004 sec (  0.062%)
 integral evaluation            ...        0 min,  0.780 sec ( 13.629%)
 iterations                     ...        0 min,  3.008 sec ( 52.578%)
 molecular gradient             ...        0 min,  1.864 sec ( 32.576%)
 printout                       ...        0 min,  0.049 sec (  0.860%)

         :::::::::::::::::::::::::::::::::::::::::::::::::::::
         ::                     SUMMARY                     ::
         :::::::::::::::::::::::::::::::::::::::::::::::::::::
         :: total energy            -329.742900873778 Eh    ::
         :: gradient norm              0.057209121490 Eh/a0 ::
         :: HOMO-LUMO gap              1.374799703620 eV    ::
         ::.................................................::
         :: SCC energy              -336.347963422924 Eh    ::
         :: -> electrostatic           0.163732653508 Eh    ::
         :: repulsion energy           6.766537714359 Eh    ::
         :: dispersion energy         -0.161475165213 Eh    ::
         :: halogen bond corr.         0.000000000000 Eh    ::
         :: add. restraining           0.000000000000 Eh    ::
         :: total charge               0.000000000000 e     ::
         :::::::::::::::::::::::::::::::::::::::::::::::::::::

           ------------------------------------------------- 
          |        vertical delta SCC IP calculation        |
           ------------------------------------------------- 
   1   -335.9399822 -0.335940E+03  0.118E-01    1.37       0.0  T
   2   -335.9258055  0.141767E-01  0.260E-01    1.35       1.0  T
   3   -335.9477092 -0.219037E-01  0.744E-02    1.36       1.0  T
   4   -335.9486506 -0.941459E-03  0.505E-02    1.36       1.0  T
   5   -335.9489192 -0.268541E-03  0.383E-02    1.36       1.0  T
   6   -335.9489028  0.163638E-04  0.303E-02    1.36       1.0  T
   7   -335.9489717 -0.689159E-04  0.214E-02    1.35       1.0  T
   8   -335.9490034 -0.316663E-04  0.180E-02    1.35       1.0  T
   9   -335.9490793 -0.759234E-04  0.131E-02    1.36       1.0  T
  10   -335.9490992 -0.199157E-04  0.896E-03    1.36       1.0  T
  11   -335.9491095 -0.103319E-04  0.547E-03    1.36       1.4  T
  12   -335.9491136 -0.400580E-05  0.292E-03    1.36       2.6  T
  13   -335.9491151 -0.152097E-05  0.105E-03    1.35       7.3  T
  14   -335.9491152 -0.174910E-06  0.454E-04    1.36      16.9  T
  15   -335.9491153 -0.395141E-07  0.200E-04    1.36      38.3  T
  16   -335.9491153 -0.808171E-08  0.100E-04    1.36      76.5  T
     SCC iter.                  ...        0 min,  3.417 sec
     gradient                   ...        0 min,  1.820 sec
------------------------------------------------------------------------
empirical IP shift (eV):    4.8455
delta SCC IP (eV):    6.0077
------------------------------------------------------------------------
           ------------------------------------------------- 
          |        vertical delta SCC EA calculation        |
           ------------------------------------------------- 
   1   -336.6005321 -0.336601E+03  0.214E-01    0.45       0.0  T
   2   -336.6201334 -0.196013E-01  0.182E-01    0.25       1.0  T
   3   -336.6327618 -0.126284E-01  0.100E-01    0.33       1.0  T
   4   -336.6337754 -0.101362E-02  0.693E-02    0.31       1.0  T
   5   -336.6340106 -0.235216E-03  0.418E-02    0.31       1.0  T
   6   -336.6342114 -0.200750E-03  0.203E-02    0.31       1.0  T
   7   -336.6343363 -0.124987E-03  0.842E-03    0.31       1.0  T
   8   -336.6343518 -0.154792E-04  0.462E-03    0.31       1.7  T
   9   -336.6343572 -0.538128E-05  0.192E-03    0.31       4.0  T
  10   -336.6343581 -0.914470E-06  0.704E-04    0.31      10.9  T
  11   -336.6343582 -0.479216E-07  0.440E-04    0.31      17.4  T
  12   -336.6343582 -0.466439E-07  0.258E-04    0.31      29.7  T
  13   -336.6343582 -0.337844E-07  0.140E-04    0.31      54.5  T
  14   -336.6343583 -0.132618E-07  0.374E-05    0.31     204.7  T
     SCC iter.                  ...        0 min,  2.891 sec
     gradient                   ...        0 min,  1.816 sec
------------------------------------------------------------------------
empirical EA shift (eV):    4.8455
delta SCC EA (eV):    2.9477
------------------------------------------------------------------------
           -------------------------------------------------
          |                Property Printout                |
           -------------------------------------------------

    * Orbital Energies and Occupations

         #    Occupation            Energy/Eh            Energy/eV
      -------------------------------------------------------------
         1        2.0000           -0.9823066             -26.7299
       ...           ...                  ...                  ...
       262        2.0000           -0.3214801              -8.7479
       263        2.0000           -0.3193284              -8.6894
       264        2.0000           -0.3193206              -8.6892
       265        2.0000           -0.3189446              -8.6789
       266        2.0000           -0.3188898              -8.6774
       267        2.0000           -0.3188612              -8.6767
       268        2.0000           -0.3188520              -8.6764
       269        2.0000           -0.3145964              -8.5606
       270        2.0000           -0.3124240              -8.5015
       271        2.0000           -0.3119154              -8.4876
       272        2.0000           -0.3116966              -8.4817
       273        2.0000           -0.3062971              -8.3348
       274        0.9964           -0.2552405              -6.9454 (HOMO)
       275        0.0018           -0.2438770              -6.6362 (LUMO)
       276        0.0009           -0.2432668              -6.6196
       277        0.0009           -0.2432567              -6.6194
       278        0.0000           -0.2361625              -6.4263
       279                         -0.2282285              -6.2104
       280                         -0.2023100              -5.5051
       281                         -0.1999788              -5.4417
       282                         -0.1999331              -5.4405
       283                         -0.1945402              -5.2937
       284                         -0.1928161              -5.2468
       285                         -0.1852923              -5.0421
       ...                                ...                  ...
       699                        548.5524396           14926.8717
      -------------------------------------------------------------
                  HL-Gap            0.0113635 Eh            0.3092 eV
             Fermi-level           -0.2653344 Eh           -7.2201 eV

  Mulliken/CM5 charges         n(s)   n(p)   n(d)
     1Ni    0.26224  0.63672   0.575  0.792  8.371
     2C    -0.02936 -0.07067   1.077  2.952  0.000
     3C     0.05696  0.11756   1.111  2.832  0.000
     4C    -0.04221 -0.08869   1.085  2.958  0.000
     5C    -0.03789 -0.08384   1.080  2.957  0.000
     6C     0.05653  0.12054   1.102  2.841  0.000
     7N    -0.21294 -0.46538   1.314  3.899  0.000
     8C     0.00845  0.01377   1.086  2.905  0.000
     9C     0.05626  0.11958   1.100  2.843  0.000
    10C    -0.03703 -0.08303   1.075  2.962  0.000
    11C    -0.03581 -0.08169   1.079  2.957  0.000
    12N    -0.20879 -0.46095   1.316  3.892  0.000
    13C     0.06185  0.12684   1.115  2.823  0.000
    14C     0.01367  0.02054   1.077  2.909  0.000
    15C     0.06186  0.12682   1.115  2.824  0.000
    16C    -0.03577 -0.08166   1.078  2.958  0.000
    17C    -0.03690 -0.08304   1.075  2.962  0.000
    18C     0.05625  0.11955   1.101  2.843  0.000
    19C     0.00773  0.01304   1.086  2.906  0.000
    20C     0.00737 -0.00152   1.087  2.906  0.000
    21C    -0.02297 -0.07642   1.079  2.944  0.000
    22C    -0.02925 -0.08505   1.086  2.943  0.000
    23C    -0.03106 -0.08690   1.086  2.945  0.000
    24C    -0.02818 -0.08397   1.086  2.942  0.000
    25C    -0.02169 -0.07510   1.079  2.943  0.000
    26C     0.05655  0.12051   1.103  2.841  0.000
    27C    -0.03764 -0.08377   1.080  2.957  0.000
    28C    -0.04211 -0.08860   1.084  2.958  0.000
    29C     0.05696  0.11753   1.111  2.832  0.000
    30N    -0.21295 -0.46550   1.314  3.899  0.000
    31N    -0.20863 -0.46111   1.316  3.893  0.000
    32C     0.00780 -0.00117   1.087  2.905  0.000
    33C    -0.02305 -0.07644   1.079  2.944  0.000
    34C    -0.02889 -0.08468   1.086  2.942  0.000
    35C    -0.03137 -0.08720   1.086  2.946  0.000
    36C    -0.02853 -0.08433   1.086  2.942  0.000
    37C    -0.02260 -0.07603   1.079  2.944  0.000
    38H     0.01745  0.07643   0.983  0.000  0.000
    39H     0.02306  0.07968   0.977  0.000  0.000
    40H     0.01620  0.07507   0.984  0.000  0.000
    41H     0.01817  0.07713   0.982  0.000  0.000
    42H     0.01738  0.07591   0.983  0.000  0.000
    43H     0.01683  0.07535   0.983  0.000  0.000
    44H     0.01684  0.07577   0.983  0.000  0.000
    45H     0.01682  0.07469   0.983  0.000  0.000
    46H     0.02476  0.08062   0.975  0.000  0.000
    47H     0.02498  0.08082   0.975  0.000  0.000
    48H     0.02673  0.08259   0.973  0.000  0.000
    49H     0.01892  0.07680   0.981  0.000  0.000
    50H     0.01547  0.07434   0.985  0.000  0.000
    51H     0.02311  0.07972   0.977  0.000  0.000
    52H     0.01716  0.07475   0.983  0.000  0.000
    53H     0.02514  0.08100   0.975  0.000  0.000
    54H     0.02488  0.08072   0.975  0.000  0.000
    55H     0.02578  0.08164   0.974  0.000  0.000
    56H     0.01753  0.07512   0.982  0.000  0.000
    57Ni    0.26222  0.63658   0.575  0.792  8.371
    58C    -0.02935 -0.07066   1.077  2.952  0.000
    59C     0.05695  0.11755   1.111  2.832  0.000
    60C    -0.04222 -0.08870   1.085  2.958  0.000
    61C    -0.03789 -0.08385   1.080  2.958  0.000
    62C     0.05653  0.12054   1.102  2.841  0.000
    63N    -0.21293 -0.46538   1.314  3.899  0.000
    64C     0.00844  0.01376   1.086  2.905  0.000
    65C     0.05627  0.11958   1.100  2.843  0.000
    66C    -0.03705 -0.08304   1.075  2.962  0.000
    67C    -0.03583 -0.08170   1.079  2.957  0.000
    68N    -0.20880 -0.46094   1.316  3.892  0.000
    69C     0.06184  0.12683   1.115  2.823  0.000
    70C     0.01368  0.02055   1.077  2.909  0.000
    71C     0.06188  0.12684   1.115  2.824  0.000
    72C    -0.03575 -0.08165   1.078  2.958  0.000
    73C    -0.03689 -0.08303   1.075  2.962  0.000
    74C     0.05626  0.11956   1.101  2.843  0.000
    75C     0.00773  0.01305   1.086  2.906  0.000
    76C     0.00737 -0.00152   1.087  2.906  0.000
    77C    -0.02297 -0.07641   1.079  2.944  0.000
    78C    -0.02925 -0.08505   1.086  2.943  0.000
    79C    -0.03106 -0.08689   1.086  2.945  0.000
    80C    -0.02817 -0.08396   1.086  2.942  0.000
    81C    -0.02169 -0.07511   1.079  2.943  0.000
    82C     0.05656  0.12052   1.103  2.841  0.000
    83C    -0.03765 -0.08377   1.080  2.957  0.000
    84C    -0.04210 -0.08859   1.084  2.958  0.000
    85C     0.05696  0.11754   1.111  2.832  0.000
    86N    -0.21296 -0.46544   1.314  3.899  0.000
    87N    -0.20864 -0.46106   1.316  3.893  0.000
    88C     0.00779 -0.00117   1.087  2.905  0.000
    89C    -0.02305 -0.07644   1.079  2.944  0.000
    90C    -0.02890 -0.08469   1.086  2.942  0.000
    91C    -0.03137 -0.08720   1.086  2.946  0.000
    92C    -0.02854 -0.08433   1.086  2.942  0.000
    93C    -0.02259 -0.07603   1.079  2.944  0.000
    94H     0.01745  0.07642   0.983  0.000  0.000
    95H     0.02306  0.07968   0.977  0.000  0.000
    96H     0.01620  0.07508   0.984  0.000  0.000
    97H     0.01816  0.07712   0.982  0.000  0.000
    98H     0.01740  0.07592   0.983  0.000  0.000
    99H     0.01681  0.07534   0.983  0.000  0.000
   100H     0.01685  0.07579   0.983  0.000  0.000
   101H     0.01682  0.07469   0.983  0.000  0.000
   102H     0.02476  0.08062   0.975  0.000  0.000
   103H     0.02499  0.08082   0.975  0.000  0.000
   104H     0.02674  0.08260   0.973  0.000  0.000
   105H     0.01892  0.07680   0.981  0.000  0.000
   106H     0.01547  0.07434   0.985  0.000  0.000
   107H     0.02311  0.07973   0.977  0.000  0.000
   108H     0.01713  0.07473   0.983  0.000  0.000
   109H     0.02513  0.08099   0.975  0.000  0.000
   110H     0.02487  0.08071   0.975  0.000  0.000
   111H     0.02579  0.08165   0.974  0.000  0.000
   112H     0.01755  0.07514   0.982  0.000  0.000
   113C    -0.03347 -0.03583   1.067  2.967  0.000
   114C    -0.02922 -0.03157   1.072  2.957  0.000
   115C    -0.02922 -0.03157   1.072  2.957  0.000
   116C    -0.03347 -0.03583   1.067  2.967  0.000
   117Ni    0.25987  0.63604   0.575  0.793  8.373
   118C     0.00845  0.01535   1.072  2.919  0.000
   119C     0.06133  0.12641   1.115  2.824  0.000
   120C    -0.03865 -0.08452   1.077  2.962  0.000
   121C    -0.03753 -0.08351   1.076  2.961  0.000
   122C     0.05422  0.11751   1.098  2.847  0.000
   123N    -0.21004 -0.46265   1.315  3.895  0.000
   124C     0.01069  0.01600   1.088  2.901  0.000
   125C     0.05425  0.11753   1.098  2.847  0.000
   126C    -0.03748 -0.08347   1.076  2.961  0.000
   127C    -0.03861 -0.08448   1.077  2.962  0.000
   128N    -0.20994 -0.46268   1.315  3.895  0.000
   129C     0.06137  0.12644   1.115  2.824  0.000
   130C     0.00845  0.01535   1.072  2.919  0.000
   131C     0.06132  0.12640   1.115  2.824  0.000
   132C    -0.03866 -0.08452   1.077  2.962  0.000
   133C    -0.03754 -0.08352   1.076  2.961  0.000
   134C     0.05422  0.11751   1.098  2.847  0.000
   135C     0.01069  0.01599   1.088  2.901  0.000
   136C     0.00851 -0.00044   1.088  2.904  0.000
   137C    -0.02241 -0.07584   1.079  2.944  0.000
   138C    -0.02878 -0.08458   1.086  2.942  0.000
   139C    -0.03161 -0.08744   1.086  2.946  0.000
   140C    -0.02875 -0.08455   1.086  2.942  0.000
   141C    -0.02238 -0.07581   1.079  2.944  0.000
   142C     0.05424  0.11752   1.098  2.847  0.000
   143C    -0.03749 -0.08347   1.076  2.961  0.000
   144C    -0.03862 -0.08449   1.077  2.962  0.000
   145C     0.06135  0.12642   1.115  2.824  0.000
   146N    -0.20994 -0.46269   1.315  3.895  0.000
   147N    -0.21004 -0.46265   1.315  3.895  0.000
   148C     0.00851 -0.00043   1.088  2.904  0.000
   149C    -0.02238 -0.07580   1.079  2.944  0.000
   150C    -0.02875 -0.08454   1.086  2.942  0.000
   151C    -0.03161 -0.08744   1.086  2.946  0.000
   152C    -0.02878 -0.08457   1.086  2.942  0.000
   153C    -0.02241 -0.07583   1.079  2.944  0.000
   154H     0.01419  0.07270   0.986  0.000  0.000
   155H     0.01597  0.07490   0.984  0.000  0.000
   156H     0.01589  0.07482   0.984  0.000  0.000
   157H     0.01426  0.07280   0.986  0.000  0.000
   158H     0.01422  0.07272   0.986  0.000  0.000
   159H     0.01597  0.07490   0.984  0.000  0.000
   160H     0.01709  0.07468   0.983  0.000  0.000
   161H     0.02471  0.08057   0.975  0.000  0.000
   162H     0.02388  0.07971   0.976  0.000  0.000
   163H     0.02481  0.08067   0.975  0.000  0.000
   164H     0.01723  0.07482   0.983  0.000  0.000
   165H     0.01589  0.07482   0.984  0.000  0.000
   166H     0.01429  0.07281   0.986  0.000  0.000
   167H     0.01723  0.07482   0.983  0.000  0.000
   168H     0.02481  0.08067   0.975  0.000  0.000
   169H     0.02388  0.07971   0.976  0.000  0.000
   170H     0.02471  0.08057   0.975  0.000  0.000
   171H     0.01710  0.07468   0.983  0.000  0.000

Wiberg/Mayer (AO) data.
largest (>0.10) Wiberg bond orders for each atom

 ---------------------------------------------------------------------------
     #   Z sym  total        # sym  WBO       # sym  WBO       # sym  WBO
 ---------------------------------------------------------------------------
     1  28 Ni   3.340 --    12 N    0.717    31 N    0.717     7 N    0.716
                            30 N    0.715
     2   6 C    3.794 --     3 C    1.388    29 C    1.387    38 H    0.997
     3   6 C    3.946 --     2 C    1.388     7 N    1.255     4 C    1.203
     4   6 C    3.843 --     5 C    1.638     3 C    1.203    39 H    0.994
     5   6 C    3.833 --     4 C    1.638     6 C    1.210    40 H    1.000
     6   6 C    3.913 --     8 C    1.374     7 N    1.242     5 C    1.210
     7   7 N    3.002 --     3 C    1.255     6 C    1.242     1 Ni   0.716
     8   6 C    3.835 --     6 C    1.374     9 C    1.366    32 C    1.039
     9   6 C    3.900 --     8 C    1.366    12 N    1.237    10 C    1.222
    10   6 C    3.816 --    11 C    1.616     9 C    1.222    41 H    0.999
    11   6 C    3.816 --    10 C    1.616    13 C    1.232    42 H    0.999
    12   7 N    3.019 --    13 C    1.279     9 C    1.237     1 Ni   0.717
    13   6 C    3.919 --    14 C    1.296    12 N    1.279    11 C    1.232
    14   6 C    3.815 --    13 C    1.296    15 C    1.295   113 C    1.215
    15   6 C    3.919 --    14 C    1.295    31 N    1.278    16 C    1.233
    16   6 C    3.814 --    17 C    1.614    15 C    1.233    43 H    0.999
    17   6 C    3.816 --    16 C    1.614    18 C    1.223    44 H    0.999
    18   6 C    3.901 --    19 C    1.363    31 N    1.238    17 C    1.223
    19   6 C    3.836 --    26 C    1.371    18 C    1.363    20 C    1.049
    20   6 C    3.895 --    21 C    1.425    25 C    1.425    19 C    1.049
    21   6 C    3.869 --    22 C    1.447    20 C    1.425    45 H    0.990
    22   6 C    3.911 --    21 C    1.447    23 C    1.441    46 H    0.982
    23   6 C    3.904 --    22 C    1.441    24 C    1.441    47 H    0.984
    24   6 C    3.911 --    25 C    1.448    23 C    1.441    48 H    0.982
    25   6 C    3.869 --    24 C    1.448    20 C    1.425    49 H    0.989
    26   6 C    3.914 --    19 C    1.371    30 N    1.243    27 C    1.211
    27   6 C    3.833 --    28 C    1.636    26 C    1.211    50 H    1.000
    28   6 C    3.840 --    27 C    1.636    29 C    1.203    51 H    0.994
    29   6 C    3.946 --     2 C    1.387    30 N    1.255    28 C    1.203
    30   7 N    3.001 --    29 C    1.255    26 C    1.243     1 Ni   0.715
    31   7 N    3.018 --    15 C    1.278    18 C    1.238     1 Ni   0.717
    32   6 C    3.895 --    37 C    1.430    33 C    1.429     8 C    1.039
    33   6 C    3.871 --    34 C    1.445    32 C    1.429    52 H    0.989
    34   6 C    3.912 --    33 C    1.445    35 C    1.442    53 H    0.982
    35   6 C    3.906 --    34 C    1.442    36 C    1.442    54 H    0.984
    36   6 C    3.912 --    37 C    1.446    35 C    1.442    55 H    0.982
    37   6 C    3.871 --    36 C    1.446    32 C    1.430    56 H    0.989
    38   1 H    1.041 --     2 C    0.997
    39   1 H    1.028 --     4 C    0.994
    40   1 H    1.048 --     5 C    1.000
    41   1 H    1.046 --    10 C    0.999
    42   1 H    1.048 --    11 C    0.999
    43   1 H    1.050 --    16 C    0.999
    44   1 H    1.050 --    17 C    0.999
    45   1 H    1.059 --    21 C    0.990
    46   1 H    1.037 --    22 C    0.982
    47   1 H    1.031 --    23 C    0.984
    48   1 H    1.036 --    24 C    0.982
    49   1 H    1.059 --    25 C    0.989
    50   1 H    1.050 --    27 C    1.000
    51   1 H    1.029 --    28 C    0.994
    52   1 H    1.058 --    33 C    0.989
    53   1 H    1.037 --    34 C    0.982
    54   1 H    1.031 --    35 C    0.984
    55   1 H    1.036 --    36 C    0.982
    56   1 H    1.060 --    37 C    0.989
    57  28 Ni   3.339 --    68 N    0.717    87 N    0.717    63 N    0.716
                            86 N    0.715
    58   6 C    3.794 --    59 C    1.388    85 C    1.387    94 H    0.997
    59   6 C    3.946 --    58 C    1.388    63 N    1.255    60 C    1.203
    60   6 C    3.842 --    61 C    1.638    59 C    1.203    95 H    0.994
    61   6 C    3.833 --    60 C    1.638    62 C    1.210    96 H    1.000
    62   6 C    3.913 --    64 C    1.374    63 N    1.242    61 C    1.210
    63   7 N    3.002 --    59 C    1.255    62 C    1.242    57 Ni   0.716
    64   6 C    3.835 --    62 C    1.374    65 C    1.366    88 C    1.039
    65   6 C    3.900 --    64 C    1.366    68 N    1.237    66 C    1.222
    66   6 C    3.816 --    67 C    1.616    65 C    1.222    97 H    0.999
    67   6 C    3.816 --    66 C    1.616    69 C    1.232    98 H    0.999
    68   7 N    3.019 --    69 C    1.279    65 C    1.237    57 Ni   0.717
    69   6 C    3.919 --    70 C    1.296    68 N    1.279    67 C    1.232
    70   6 C    3.815 --    69 C    1.296    71 C    1.295   116 C    1.215
    71   6 C    3.919 --    70 C    1.295    87 N    1.278    72 C    1.233
    72   6 C    3.814 --    73 C    1.614    71 C    1.233    99 H    0.999
    73   6 C    3.816 --    72 C    1.614    74 C    1.223   100 H    0.999
    74   6 C    3.901 --    75 C    1.363    87 N    1.238    73 C    1.223
    75   6 C    3.836 --    82 C    1.371    74 C    1.363    76 C    1.049
    76   6 C    3.895 --    77 C    1.425    81 C    1.425    75 C    1.049
    77   6 C    3.869 --    78 C    1.447    76 C    1.425   101 H    0.990
    78   6 C    3.911 --    77 C    1.447    79 C    1.441   102 H    0.982
    79   6 C    3.904 --    78 C    1.441    80 C    1.441   103 H    0.984
    80   6 C    3.911 --    81 C    1.448    79 C    1.441   104 H    0.982
    81   6 C    3.869 --    80 C    1.448    76 C    1.425   105 H    0.989
    82   6 C    3.914 --    75 C    1.371    86 N    1.243    83 C    1.211
    83   6 C    3.833 --    84 C    1.636    82 C    1.211   106 H    1.000
    84   6 C    3.840 --    83 C    1.636    85 C    1.203   107 H    0.994
    85   6 C    3.946 --    58 C    1.387    86 N    1.255    84 C    1.203
    86   7 N    3.001 --    85 C    1.255    82 C    1.243    57 Ni   0.715
    87   7 N    3.018 --    71 C    1.278    74 C    1.238    57 Ni   0.717
    88   6 C    3.895 --    93 C    1.430    89 C    1.429    64 C    1.039
    89   6 C    3.871 --    90 C    1.445    88 C    1.429   108 H    0.989
    90   6 C    3.912 --    89 C    1.445    91 C    1.442   109 H    0.982
    91   6 C    3.906 --    92 C    1.442    90 C    1.442   110 H    0.984
    92   6 C    3.912 --    93 C    1.446    91 C    1.442   111 H    0.982
    93   6 C    3.871 --    92 C    1.446    88 C    1.430   112 H    0.989
    94   1 H    1.041 --    58 C    0.997
    95   1 H    1.028 --    60 C    0.994
    96   1 H    1.048 --    61 C    1.000
    97   1 H    1.046 --    66 C    0.999
    98   1 H    1.048 --    67 C    0.999
    99   1 H    1.050 --    72 C    0.999
   100   1 H    1.049 --    73 C    0.999
   101   1 H    1.059 --    77 C    0.990
   102   1 H    1.037 --    78 C    0.982
   103   1 H    1.031 --    79 C    0.984
   104   1 H    1.036 --    80 C    0.982
   105   1 H    1.059 --    81 C    0.989
   106   1 H    1.050 --    83 C    1.000
   107   1 H    1.029 --    84 C    0.994
   108   1 H    1.058 --    89 C    0.989
   109   1 H    1.037 --    90 C    0.982
   110   1 H    1.031 --    91 C    0.984
   111   1 H    1.036 --    92 C    0.982
   112   1 H    1.059 --    93 C    0.989
   113   6 C    3.762 --   114 C    2.611    14 C    1.215
   114   6 C    3.764 --   113 C    2.611   118 C    1.216
   115   6 C    3.764 --   116 C    2.611   130 C    1.216
   116   6 C    3.762 --   115 C    2.611    70 C    1.215
   117  28 Ni   3.328 --   146 N    0.716   128 N    0.716   147 N    0.715
                           123 N    0.715
   118   6 C    3.804 --   119 C    1.292   145 C    1.292   114 C    1.216
   119   6 C    3.921 --   118 C    1.292   123 N    1.283   120 C    1.233
   120   6 C    3.813 --   121 C    1.615   119 C    1.233   154 H    0.999
   121   6 C    3.819 --   120 C    1.615   122 C    1.224   155 H    1.000
   122   6 C    3.899 --   124 C    1.371   123 N    1.232   121 C    1.224
   123   7 N    3.004 --   119 C    1.283   122 C    1.232   117 Ni   0.715
   124   6 C    3.832 --   122 C    1.371   125 C    1.371   148 C    1.040
   125   6 C    3.899 --   124 C    1.371   128 N    1.232   126 C    1.224
   126   6 C    3.818 --   127 C    1.615   125 C    1.224   156 H    1.000
   127   6 C    3.813 --   126 C    1.615   129 C    1.233   157 H    0.999
   128   7 N    3.004 --   129 C    1.283   125 C    1.232   117 Ni   0.716
   129   6 C    3.921 --   130 C    1.292   128 N    1.283   127 C    1.233
   130   6 C    3.804 --   131 C    1.292   129 C    1.292   115 C    1.216
   131   6 C    3.921 --   130 C    1.292   147 N    1.283   132 C    1.233
   132   6 C    3.813 --   133 C    1.615   131 C    1.233   158 H    0.999
   133   6 C    3.819 --   132 C    1.615   134 C    1.224   159 H    1.000
   134   6 C    3.899 --   135 C    1.371   147 N    1.232   133 C    1.224
   135   6 C    3.832 --   134 C    1.371   142 C    1.371   136 C    1.040
   136   6 C    3.895 --   137 C    1.430   141 C    1.430   135 C    1.040
   137   6 C    3.871 --   138 C    1.446   136 C    1.430   160 H    0.989
   138   6 C    3.911 --   137 C    1.446   139 C    1.442   161 H    0.982
   139   6 C    3.906 --   138 C    1.442   140 C    1.442   162 H    0.984
   140   6 C    3.911 --   141 C    1.446   139 C    1.442   163 H    0.982
   141   6 C    3.871 --   140 C    1.446   136 C    1.430   164 H    0.989
   142   6 C    3.899 --   135 C    1.371   146 N    1.232   143 C    1.224
   143   6 C    3.818 --   144 C    1.615   142 C    1.224   165 H    1.000
   144   6 C    3.813 --   143 C    1.615   145 C    1.233   166 H    0.999
   145   6 C    3.921 --   118 C    1.292   146 N    1.283   144 C    1.233
   146   7 N    3.004 --   145 C    1.283   142 C    1.232   117 Ni   0.716
   147   7 N    3.004 --   131 C    1.283   134 C    1.232   117 Ni   0.715
   148   6 C    3.895 --   153 C    1.430   149 C    1.430   124 C    1.040
   149   6 C    3.871 --   150 C    1.446   148 C    1.430   167 H    0.989
   150   6 C    3.911 --   149 C    1.446   151 C    1.442   168 H    0.982
   151   6 C    3.906 --   152 C    1.442   150 C    1.442   169 H    0.984
   152   6 C    3.911 --   153 C    1.446   151 C    1.442   170 H    0.982
   153   6 C    3.871 --   152 C    1.446   148 C    1.430   171 H    0.989
   154   1 H    1.048 --   120 C    0.999
   155   1 H    1.047 --   121 C    1.000
   156   1 H    1.047 --   126 C    1.000
   157   1 H    1.048 --   127 C    0.999
   158   1 H    1.048 --   132 C    0.999
   159   1 H    1.047 --   133 C    1.000
   160   1 H    1.060 --   137 C    0.989
   161   1 H    1.037 --   138 C    0.982
   162   1 H    1.031 --   139 C    0.984
   163   1 H    1.037 --   140 C    0.982
   164   1 H    1.060 --   141 C    0.989
   165   1 H    1.047 --   143 C    1.000
   166   1 H    1.047 --   144 C    0.999
   167   1 H    1.060 --   149 C    0.989
   168   1 H    1.037 --   150 C    0.982
   169   1 H    1.031 --   151 C    0.984
   170   1 H    1.037 --   152 C    0.982
   171   1 H    1.060 --   153 C    0.989
 ---------------------------------------------------------------------------

Topologies differ in total number of bonds
Writing topology from bond orders to xtbtopo.mol

 dipole moment from electron density (au)
     X       Y       Z   
 -79.9523  -0.0461   0.0102  total (Debye):  203.219


           -------------------------------------------------
          | TOTAL ENERGY             -330.029295705965 Eh   |
          | GRADIENT NORM               0.072071140865 Eh/α |
          | HOMO-LUMO GAP               0.309215656851 eV   |
           -------------------------------------------------
########################################################################
[WARNING] Runtime exception occurred
-1- restart_readRestart: Dimension missmatch in restart file.
########################################################################

------------------------------------------------------------------------
 * finished run on 2022/07/30 at 05:25:29.632     
------------------------------------------------------------------------
 total:
 * wall-time:     0 d,  0 h,  0 min, 18.078 sec
 *  cpu-time:     0 d,  0 h,  0 min, 17.961 sec
 * ratio c/w:     0.994 speedup
 SCF:
 * wall-time:     0 d,  0 h,  0 min, 17.311 sec
 *  cpu-time:     0 d,  0 h,  0 min, 17.205 sec
 * ratio c/w:     0.994 speedup

