171
 energy: -291.744325936419 gnorm: 0.556903431641 xtb: 6.5.1 (b24c23e)
Ni          30.67435600000000        0.06516700000000        0.01474200000000
C           27.33779300000000       -0.09090400000000        0.00432900000000
C           28.00190200000000       -1.24310800000000       -0.12349900000000
C           27.35222300000000       -2.53984900000000       -0.27388900000000
C           28.29405200000000       -3.46356200000000       -0.32128100000000
C           29.59888100000000       -2.79914100000000       -0.20181300000000
N           29.42059500000000       -1.38756200000000       -0.08137700000000
C           30.78908500000000       -3.43086700000000       -0.15663300000000
C           32.08271800000000       -2.71483000000000       -0.00616500000000
C           33.37326100000000       -3.38962800000000        0.17874600000000
C           34.30797600000000       -2.46315200000000        0.23654000000000
N           32.22333600000000       -1.42577500000000       -0.06613300000000
C           33.62284100000000       -1.18573800000000        0.08113900000000
C           34.21741400000000        0.01669000000000        0.01045000000000
C           33.45640000000000        1.27427300000000       -0.16846000000000
C           33.99336800000000        2.41934400000000       -0.57066400000000
C           32.94963300000000        3.42409500000000       -0.52860600000000
C           31.84361600000000        2.82765000000000       -0.09931300000000
C           30.55850700000000        3.52966300000000        0.15189000000000
C           30.57762700000000        5.00446400000000        0.30985100000000
C           29.91836400000000        5.83041600000000       -0.61639700000000
C           29.95706600000000        7.22052900000000       -0.47130000000000
C           30.65862100000000        7.79448900000000        0.59267500000000
C           31.32466500000000        6.97925500000000        1.51217400000000
C           31.28787000000000        5.58860200000000        1.37125000000000
C           29.39345900000000        2.85966100000000        0.24059300000000
C           28.08110000000000        3.44059700000000        0.51937600000000
C           27.21950700000000        2.44352500000000        0.46689200000000
C           27.97248900000000        1.22657600000000        0.16860900000000
N           29.24064000000000        1.45668400000000        0.03517600000000
N           32.07337500000000        1.43902300000000        0.14771000000000
C           30.82786600000000       -4.90577700000000       -0.24854100000000
C           30.72687700000000       -5.53792800000000       -1.49743700000000
C           30.76497000000000       -6.93317700000000       -1.58202900000000
C           30.90488500000000       -7.70171000000000       -0.42242900000000
C           31.00673400000000       -7.07612800000000        0.82382200000000
C           30.96835200000000       -5.68117700000000        0.91267400000000
H           26.25439100000000       -0.11950400000000        0.00134000000000
H           26.28789700000000       -2.72956600000000       -0.32841300000000
H           28.10861900000000       -4.52542800000000       -0.41906600000000
H           33.55068000000000       -4.45447800000000        0.25085100000000
H           35.36664700000000       -2.64763600000000        0.36139200000000
H           35.02270799999999        2.58702600000000       -0.85782500000000
H           33.06248400000000        4.47073800000000       -0.78002500000000
H           29.37950500000000        5.39710500000000       -1.45007800000000
H           29.44579400000000        7.85296900000000       -1.18545300000000
H           30.68852200000000        8.87075800000000        0.70297000000000
H           31.87046600000000        7.42501600000000        2.33364600000000
H           31.80896000000000        4.96670900000000        2.08887000000000
H           27.83625600000000        4.47280600000000        0.73231400000000
H           26.15223200000000        2.52499300000000        0.62576700000000
H           30.61880200000000       -4.95037900000000       -2.40089600000000
H           30.68640600000000       -7.41864000000000       -2.54615100000000
H           30.93452300000000       -8.78152900000000       -0.48956700000000
H           31.11533100000000       -7.67213700000000        1.72067900000000
H           31.04798900000000       -5.20489200000000        1.88218300000000
Ni          53.95073899999999       -0.03192800000000        0.01263300000000
C           57.28730199999999        0.12444700000000        0.00900700000000
C           56.62319300000000        1.28111500000000       -0.06867000000000
C           57.27287100000000        2.58316400000000       -0.16261100000000
C           56.33104199999999        3.50806300000000       -0.16984900000000
C           55.02621300000000        2.83908100000000       -0.07934400000000
N           55.20449900000000        1.42360400000000       -0.02031500000000
C           53.83600999999999        3.46825000000000       -0.00677600000000
C           52.54237700000000        2.74635400000000        0.11245800000000
C           51.25183400000000        3.41248700000000        0.32649600000000
C           50.31711799999999        2.48437500000000        0.34400600000000
N           52.40175900000000        1.46111900000000       -0.00342700000000
C           51.00225400000000        1.21491400000000        0.13328400000000
C           50.40768000000000        0.01669000000000        0.01045000000000
C           51.16869400000000       -1.23193900000000       -0.22289800000000
C           50.63172600000000       -2.35846500000000       -0.67444400000000
C           51.67546100000000       -3.36409500000000       -0.67605400000000
C           52.78147900000000       -2.78685300000000       -0.22126700000000
C           54.06658700000000       -3.49911200000000       -0.00078300000000
C           54.04746699999999       -4.97938100000000        0.09299000000000
C           54.70672999999999       -5.76433400000000       -0.86824900000000
C           54.66802800000000       -7.15943700000000       -0.78365000000000
C           53.96647300000000       -7.77905500000000        0.25440000000000
C           53.30043000000000       -7.00451600000000        1.20843000000000
C           53.33722399999999       -5.60905600000000        1.12802400000000
C           55.23163500000000       -2.83359300000000        0.11692900000000
C           56.54399400000000       -3.42608700000000        0.37022400000000
C           57.40558700000000       -2.42767600000000        0.36108400000000
C           56.65260500000000       -1.19892300000000        0.11592400000000
N           55.38445400000000       -1.42302000000000       -0.02737400000000
N           52.55172000000000       -1.41026200000000        0.08582100000000
C           53.79722899999999        4.94575900000000       -0.03455400000000
C           53.89821700000000        5.63154400000000       -1.25482200000000
C           53.86012499999999        7.02915000000000       -1.27875000000000
C           53.72020900000000        7.74660600000000       -0.08687300000000
C           53.61836100000000        7.06749900000000        1.13103800000000
C           53.65674200000000        5.67000600000000        1.15923500000000
H           58.37070300000000        0.15315000000000        0.00726300000000
H           58.33719700000000        2.77506900000000       -0.20884500000000
H           56.51647500000000        4.57317400000000       -0.22143300000000
H           51.07441400000000        4.47320200000000        0.44477100000000
H           49.25844799999999        2.66326400000000        0.47675100000000
H           49.60238600000000       -2.51352000000000       -0.96861500000000
H           51.56261100000000       -4.39883300000000       -0.97268200000000
H           55.24558999999999       -5.29523200000000       -1.68232800000000
H           55.17929999999999       -7.76027000000000       -1.52459100000000
H           53.93657300000000       -8.85909800000000        0.31785600000000
H           52.75462800000000       -7.48552600000000        2.00977100000000
H           52.81613500000000       -5.01890900000000        1.87197000000000
H           56.78883900000000       -4.46656800000000        0.53814000000000
H           58.47286300000000       -2.51596600000000        0.51627200000000
H           54.00629200000000        5.08377900000000       -2.18294200000000
H           53.93868899999999        7.55601900000000       -2.22088400000000
H           53.69057100000000        8.82832100000000       -0.10706000000000
H           53.50976299999999        7.62400300000000        2.05292900000000
H           53.57710500000000        5.15207200000000        2.10714900000000
C           36.32264800000000        0.01669000000000        0.01045000000000
C           37.54456600000000        0.01669000000000        0.01045000000000
C           47.08052899999999        0.01669000000000        0.01045000000000
C           48.30244600000000        0.01669000000000        0.01045000000000
Ni          42.24455799999999        0.06175900000000        0.01951600000000
C           38.87035100000000       -0.03520000000000       -0.02204000000000
C           39.52917200000000       -1.20827200000000       -0.02684900000000
C           38.88372400000000       -2.52296100000000       -0.01492800000000
C           39.82347000000000       -3.44564400000000       -0.02320700000000
C           41.12713300000000       -2.77572600000000       -0.04459600000000
N           40.95119800000000       -1.35720500000000       -0.04367600000000
C           42.31366400000000       -3.41497400000000       -0.06304000000000
C           43.62278700000000       -2.71888300000000       -0.08871900000000
C           44.90774900000000       -3.42247400000000       -0.18674800000000
C           45.86239500000000       -2.51828000000000       -0.18104400000000
N           43.78370400000000       -1.43213500000000       -0.02475300000000
C           45.19625600000000       -1.22491100000000       -0.07725300000000
C           45.81832200000000       -0.03520000000000       -0.02204000000000
C           45.09399300000000        1.25315600000000        0.09209200000000
C           45.69474000000000        2.42557300000000        0.24650400000000
C           44.66417100000000        3.43840000000000        0.28609900000000
C           43.49476700000000        2.82481500000000        0.14632600000000
C           42.18795600000000        3.53421700000000        0.11026300000000
C           42.19711900000000        5.01638600000000        0.13291100000000
C           41.82948500000000        5.70888700000000        1.29796700000000
C           41.85353400000000        7.10669300000000        1.32142500000000
C           42.25025000000000        7.81879900000000        0.18531900000000
C           42.62065299999999        7.13443800000000       -0.97624000000000
C           42.59645200000000        5.73633000000000       -1.00422800000000
C           41.00585600000000        2.88916000000000        0.05766500000000
C           39.69719700000000        3.53286700000000       -0.00763400000000
C           38.81150900000000        2.56149900000000       -0.04886800000000
C           39.53980600000000        1.28863200000000       -0.01188000000000
N           40.82457099999999        1.47166800000000        0.04906900000000
N           43.67376400000000        1.41185500000000        0.02188800000000
C           42.33544500000000       -4.89361900000000       -0.06914800000000
C           42.19478099999999       -5.59714000000000       -1.27554200000000
C           42.23244100000000       -6.99483100000000       -1.27986900000000
C           42.41159800000000       -7.69449100000000       -0.08275300000000
C           42.55200599999999       -6.99726400000000        1.12124400000000
C           42.51656900000000       -5.59966200000000        1.12952600000000
H           37.82344699999999       -2.73699400000000        0.00142200000000
H           39.63716299999999       -4.51196500000000       -0.01243000000000
H           45.06425300000000       -4.49046300000000       -0.25708100000000
H           46.92153799999999       -2.72844500000000       -0.24383400000000
H           46.75749800000000        2.60948300000000        0.32414400000000
H           44.82992700000000        4.50043000000000        0.40029700000000
H           41.52915500000000        5.16610500000000        2.18524500000000
H           41.56791400000000        7.63847700000000        2.22063400000000
H           42.27073399999999        8.90045400000000        0.20684400000000
H           42.93008300000000        7.68679800000000       -1.85411500000000
H           42.89013100000000        5.21493000000000       -1.90707200000000
H           39.46995000000000        4.59142500000000       -0.02563500000000
H           37.74137200000000        2.70683500000000       -0.10356700000000
H           42.05951699999999       -5.06307400000000       -2.20773500000000
H           42.12525299999999       -7.53587200000000       -2.21107800000000
H           42.44238900000000       -8.77596300000000       -0.08762700000000
H           42.69074499999999       -7.54073600000000        2.04715400000000
H           42.62999700000000       -5.06707700000000        2.06547700000000
171
 energy: -291.912281646862 gnorm: 0.310782747362 xtb: 6.5.1 (b24c23e)
Ni          30.68874536098594        0.05152748478681        0.01042564453621
C           27.33768332629056       -0.07127465986237        0.00696238981736
C           28.00953215493377       -1.24101717189304       -0.12383984782038
C           27.35481925185643       -2.53041143482574       -0.27342386103985
C           28.30875292488122       -3.46273510203017       -0.32110433639081
C           29.60172724738834       -2.78710449455707       -0.20282391775314
N           29.40425980990961       -1.39760136579296       -0.07822319055100
C           30.80901612910287       -3.42314840633662       -0.15524387830407
C           32.07642204426284       -2.72443117570650       -0.00680830858735
C           33.35702928204749       -3.39907711283815        0.17521400665996
C           34.30628005338459       -2.45541837883473        0.23545331821354
N           32.23964983703701       -1.41015255461455       -0.05502522127789
C           33.64453868956637       -1.17457606330715        0.08109022464855
C           34.25668827586359        0.03669637871259        0.00349242711192
C           33.46587887898006        1.25892953566273       -0.15582088662298
C           33.99988205090825        2.44543335363033       -0.57204971077726
C           32.97557237029203        3.42519855979992       -0.52898302146886
C           31.83727643914877        2.80937416365502       -0.08855832952958
C           30.57798486148776        3.51663959471758        0.15161692779568
C           30.58990312065340        5.00051510400992        0.30369840578805
C           29.92122974186232        5.82924227211493       -0.61023179179464
C           29.95965004001606        7.21470040936560       -0.46640329431327
C           30.65846045656683        7.78870435913230        0.59210833558860
C           31.32075010799588        6.97533294704368        1.50757436592196
C           31.28849142524501        5.59027918219115        1.36521715735416
C           29.39763236620489        2.85234671462842        0.24199455983880
C           28.09271801586369        3.43464459337566        0.51670616062638
C           27.21033869009973        2.42745545387901        0.46305194195359
C           27.95413835616362        1.21419266117975        0.16735692868562
N           29.24892689837154        1.45562586294915        0.04698654329987
N           32.07954782306153        1.43057169230917        0.13199707750432
C           30.83563513440907       -4.90768582147193       -0.24818305539760
C           30.72736630341311       -5.54090654479226       -1.49175044404012
C           30.76487483032011       -6.93038087636430       -1.57613318301886
C           30.90479839495816       -7.69673716702849       -0.42209704039741
C           31.00597974081762       -7.07317109619482        0.81869088607288
C           30.97033464615427       -5.68424851454752        0.90754989485129
H           26.25468154579610       -0.10977964373072        0.00363632126361
H           26.29010460219599       -2.71632099896896       -0.32762543135229
H           28.12668842643969       -4.52473147429953       -0.41882985696349
H           33.53520796001856       -4.46045751808676        0.24929228980158
H           35.36463688272818       -2.63456765792124        0.36069720992459
H           35.02574481352189        2.59924739060806       -0.86058330735425
H           33.07135700032668        4.46991111158975       -0.78234599056823
H           29.38234013541719        5.39568844531247       -1.44656651928172
H           29.44749816787902        7.84912634581712       -1.18314566507000
H           30.68844607691356        8.86763659011180        0.70248910318068
H           31.86828494428100        7.42241293790532        2.33113057035521
H           31.80733146415314        4.96685202718844        2.08574932872258
H           27.85303608176483        4.46886091619136        0.72930232572611
H           26.14728875815693        2.51277775356191        0.62376750333272
H           30.61962734529522       -4.95068856392645       -2.39631540795351
H           30.68655531703925       -7.41653267811565       -2.54315526816475
H           30.93447831103173       -8.77894082483269       -0.48946658076525
H           31.11472063822098       -7.67014066579324        1.71815987638984
H           31.04778734732658       -5.20513804293787        1.87822925590758
Ni          53.93640809569079       -0.01812090844538        0.00893103009256
C           57.28739884492008        0.10474555390622        0.01078849349188
C           56.61558563557349        1.27903969978119       -0.06910003035985
C           57.27027935847466        2.57372146616374       -0.16255883379910
C           56.31634151123431        3.50720890670682       -0.16970020682006
C           55.02336496817618        2.82704472416053       -0.08087612898144
N           55.22081629100852        1.43350399605528       -0.01673650392906
C           53.81600824519096        3.46049057034332       -0.00571574186723
C           52.54875774583605        2.75603345805997        0.11222064657684
C           51.26794867848037        3.42203467631301        0.32340155142809
C           50.31877230075283        2.47673011889391        0.34261613569740
N           52.38573263871967        1.44504338374490        0.00689336361355
C           50.98096770040269        1.20376110578940        0.13275687959098
C           50.37051107527827       -0.00362992866363        0.00285604536001
C           51.15952458951918       -1.21773341471030       -0.20973881413559
C           50.62520955382624       -2.38475388133438       -0.67707345003945
C           51.64954922866965       -3.36530914587760       -0.67649008050902
C           52.78783659683562       -2.76914982729356       -0.20975115212732
C           54.04715075784504       -3.48612604060389       -0.00050942074442
C           54.03518865495786       -4.97519551384293        0.08701327947926
C           54.70388276140535       -5.76343236101372       -0.86204315021415
C           54.66544390797787       -7.15382661961659       -0.77850360414532
C           53.96663370329343       -7.77324426850895        0.25408617635137
C           53.30434633564204       -7.00039947330196        1.20400836692595
C           53.33658108440186       -5.61047091739830        1.12192598885921
C           55.22745882504042       -2.82634566807538        0.11864864104628
C           56.53238603692587       -3.42002136255726        0.36781739959123
C           57.41474985302468       -2.41146880516061        0.35794592618455
C           56.67094365229404       -1.18650873401950        0.11521035144089
N           55.37618004763629       -1.42246288517884       -0.01553188382976
N           52.54570114660660       -1.40129184437804        0.07064492275807
C           53.78944054910598        4.94768362382269       -0.03411068590862
C           53.89773608998352        5.63426773596274       -1.24902383353909
C           53.86022352287093        7.02609755741013       -1.27297693333375
C           53.72030040662627        7.74161294390155       -0.08675560571894
C           53.61912412387089        7.06476660297047        1.12578328259458
C           53.65475954174975        5.67329615146557        1.15426648495855
H           58.37039825850739        0.14334190326279        0.00913189783023
H           58.33498379283794        2.76180484959560       -0.20863281006255
H           56.49838866252774        4.57244661894070       -0.22122508514022
H           51.08981398794669        4.47917923590485        0.44346398015323
H           49.26044231118200        2.65020282945471        0.47545455329237
H           49.59931549493899       -2.52570852157264       -0.97194111277012
H           51.55374952707882       -4.39797066102169       -0.97497985766232
H           55.24275549506901       -5.29396678445033       -1.67876609457449
H           55.17759309409990       -7.75652219529783       -1.52211748951569
H           53.93664776986184       -8.85594658465626        0.31751053121006
H           52.75681157373895       -7.48280793598157        2.00736916055562
H           52.81776359071330       -5.01891497079734        1.86885595898810
H           56.77205729643488       -4.46248875221190        0.53530060384838
H           58.47779359638144       -2.50367502198458        0.51480506522299
H           54.00545997685431        5.08388333553935       -2.17836018925954
H           53.93853542230153        7.55376903884531       -2.21797709753410
H           53.69061175520786        8.82571578836359       -0.10707183354154
H           53.51037019415380        7.62210407360834        2.05032085231498
H           53.57730169457531        5.15248573755134        2.10321805202051
C           36.22629453995189        0.01379510854505        0.00819553758880
C           37.45881243211958        0.02089029376124        0.01060294162452
C           47.17664107070203        0.03106992286201        0.00821032631605
C           48.40991946254522        0.01653091359334        0.00953355986923
Ni          42.25583389893445        0.05036549037497        0.01451796154949
C           38.85588246169858       -0.01451089844872       -0.01935025961715
C           39.53496982440586       -1.20783292391261       -0.02546994871251
C           38.88464216429518       -2.51013005415394       -0.01479597119169
C           39.83780065778992       -3.44421967675898       -0.02317367131811
C           41.12834425056639       -2.76447917359855       -0.04367460972573
N           40.93312795396819       -1.36604843627825       -0.04368485914073
C           42.33006095035926       -3.41095421175831       -0.06380873987204
C           43.60972463741280       -2.73726212685881       -0.08852273911121
C           44.88658736142387       -3.43500111769082       -0.18616870028589
C           45.85284262355990       -2.50794009347222       -0.18046182394002
N           43.78420651641957       -1.42742554997343       -0.02823391382301
C           45.18176487040343       -1.22703354457086       -0.07772927730100
C           45.80608942070921       -0.01619130344335       -0.01420756619414
C           45.07017713134785        1.24499462282657        0.08964770990158
C           45.69274141842360        2.45090449978542        0.24764938794371
C           44.68614022833208        3.44219343480227        0.28571369036032
C           43.48046714342215        2.81092435051942        0.14286901732114
C           42.20636679548615        3.52119160759908        0.11074194782464
C           42.20913236466514        5.01335282717908        0.13536599079333
C           41.83124897714480        5.70942201414059        1.29176460361722
C           41.85487619997517        7.10220873919725        1.31530546375512
C           42.24986629031134        7.81313018571656        0.18511987186761
C           42.61844442791705        7.13026501597348       -0.97092957360288
C           42.59820833808349        5.73765354861678       -0.99806734842196
C           41.01035675022317        2.88185795719870        0.05759719016126
C           39.70976183143075        3.52639541570699       -0.00715658396571
C           38.80196089861796        2.54348497344541       -0.04881217901455
C           39.52309947661661        1.27957292956087       -0.01185272910654
N           40.83080338308094        1.47290427629655        0.04717913379259
N           43.66784750484897        1.41488616662215        0.02603442809149
C           42.34233288192562       -4.89733070645439       -0.07007717254144
C           42.19562956323804       -5.60071624461414       -1.27041535398155
C           42.23266705498570       -6.99231070787685       -1.27443428591047
C           42.41132548605002       -7.68965564263111       -0.08263496820724
C           42.55105895854791       -6.99486655135172        1.11596913871272
C           42.51747676358832       -5.60332512179254        1.12434489951791
H           37.82356468937999       -2.71963143034490        0.00122540909440
H           39.65473391356645       -4.51061143794458       -0.01301337644150
H           45.04903164545060       -4.49802125405597       -0.25648762186857
H           46.91539358351614       -2.71041286739913       -0.24242568679779
H           46.75632538817304        2.61738872680605        0.32507736855440
H           44.83878109961530        4.50257383611372        0.40098083557021
H           41.53049191080458        5.16541820371446        2.18109558422684
H           41.56895933243648        7.63510045808309        2.21716416578018
H           42.27069382608880        8.89754289350470        0.20659987203311
H           42.92853278071678        7.68409208136876       -1.85134637716725
H           42.88896672241888        5.21494197664224       -1.90336205109848
H           39.48734787250640        4.58622912287073       -0.02475265343533
H           37.73536160185866        2.69147360049101       -0.10364433570924
H           42.06014789288903       -5.06332883706885       -2.20349456040228
H           42.12539513881340       -7.53398225883893       -2.20843551529717
H           42.44224656781598       -8.77368585713975       -0.08764066620881
H           42.69017398261632       -7.53882196059420        2.04451710913726
H           42.62963563253338       -5.06747869527432        2.06138734867716
171
 energy: -292.025802114294 gnorm: 0.132136240606 xtb: 6.5.1 (b24c23e)
Ni          30.71509349696324        0.03815827943362        0.01509217669829
C           27.34277342023000       -0.05061424554886        0.01090370696034
C           28.02173087670259       -1.24152820858436       -0.12442801773968
C           27.36117793784559       -2.51970150420044       -0.27293804742926
C           28.32642029830661       -3.45883178420134       -0.32105427240010
C           29.60342083743486       -2.77172812100515       -0.20302862667217
N           29.38865928171760       -1.40842106608981       -0.07992338268181
C           30.83399064919049       -3.40806887688136       -0.15241350379187
C           32.07134348442565       -2.72992566706479       -0.00735974256372
C           33.34056613227853       -3.40144126124082        0.17022029729775
C           34.30186475645056       -2.44886370707995        0.23284342528919
N           32.26336168666349       -1.38539027632576       -0.04416257596680
C           33.67030655036188       -1.16730576387483        0.08514406143788
C           34.33164780971459        0.05307355583425       -0.00221666903162
C           33.49331497016833        1.23773109810219       -0.14404497211234
C           34.00767170380357        2.47570719738136       -0.56694773449995
C           33.00851752355140        3.41932189822269       -0.52364752289806
C           31.83554253064153        2.78398467604263       -0.07817444025372
C           30.60755099744917        3.49478368361155        0.14921885420394
C           30.60605595852441        4.99050598275235        0.29455617915367
C           29.92653415671320        5.82395010347478       -0.60599690888452
C           29.96152758788922        7.20654502597791       -0.46195983084261
C           30.65836017900407        7.78312859155324        0.59165062154529
C           31.31789190699951        6.97014639199640        1.50348923527096
C           31.29124771043818        5.58880294453566        1.35815145062439
C           29.40190167508683        2.83683499694436        0.24658323792142
C           28.10775002578135        3.42299927680387        0.51265700669854
C           27.20745046937565        2.41212785973463        0.45669982908758
C           27.93600018223781        1.20065054986589        0.16689490336202
N           29.26090100955182        1.45554580731532        0.05982358774720
N           32.10233252983795        1.41945256083831        0.10693030834527
C           30.84351404255167       -4.90427293255495       -0.24716345999814
C           30.72880336983799       -5.54055257778604       -1.48632835783486
C           30.76445760101283       -6.92650342518799       -1.57104551674045
C           30.90466221009446       -7.69273761595089       -0.42176736955612
C           31.00525183921975       -7.06976275200543        0.81476930992242
C           30.97287439682536       -5.68452178643550        0.90347576909988
H           26.25860095772931       -0.10294260830487        0.00727188077551
H           26.29575734484999       -2.70031011254537       -0.32653843052388