240
 energy: -414.859096437687 gnorm: 2.224273260139 xtb: 6.5.1 (b24c23e)
C           48.72170700000000       -0.03029200000000        0.09116500000000
C           49.44992600000000        1.34567200000000        0.16991800000000
C           48.84261800000000        2.56733200000000        0.34828600000000
C           49.86523799999999        3.55016600000000        0.30121400000000
C           51.06270800000000        2.89441000000000        0.08613800000000
N           50.80196300000000        1.54714300000000        0.05477300000000
C           52.48554900000000        3.56321200000000       -0.11681200000000
C           52.52494599999999        5.02918700000000       -0.32054200000000
C           52.82929500000000        5.88049600000000        0.74871900000000
C           52.85822799999999        7.26420000000000        0.56169300000000
C           52.58172800000000        7.80402500000000       -0.69896100000000
C           52.61252200000000        9.22378000000000       -0.89485000000000
N           52.63624699999999       10.37326400000000       -1.05913800000000
C           52.27503200000000        6.95661700000000       -1.76943400000000
C           52.24680799999999        5.57264500000000       -1.57874800000000
C           53.61582199999999        2.80672700000000       -0.14029500000000
C           54.91891499999999        3.38762200000000       -0.39238200000000
C           55.82234200000000        2.41500300000000       -0.37622300000000
N           53.81394000000000        1.46123100000000        0.02748500000000
C           55.14590100000000        1.16228200000000       -0.10173100000000
C           55.81726700000000       -0.01737100000000       -0.01640900000000
C           55.04412099999999       -1.36536800000000        0.31051400000000
C           55.59782100000000       -2.51679300000000        0.83771800000000
C           54.57050700000000       -3.48995000000000        0.91033000000000
C           53.41681300000000       -2.90386000000000        0.43476800000000
N           53.70225600000000       -1.59527600000000        0.12829500000000
C           52.00373299999999       -3.60670800000000        0.28025000000000
C           51.97135299999999       -5.08248500000000        0.19350800000000
C           51.62899299999999       -5.85309600000000        1.31179100000000
C           51.60759299999999       -7.24627100000000        1.22643600000000
C           51.93286800000000       -7.87764000000000        0.02079400000000
C           51.90920400000000       -9.30794100000000       -0.06942400000000
N           51.89101000000000      -10.46693100000000       -0.14314400000000
C           52.27952199999999       -7.11105900000000       -1.09783900000000
C           52.29787000000000       -5.71802300000000       -1.00964700000000
C           50.87638700000000       -2.85420700000000        0.19589200000000
C           49.55298999999999       -3.43284300000000        0.04040300000000
C           48.66566199999999       -2.44266200000000        0.00299200000000
C           49.38796100000000       -1.19990400000000        0.11619900000000
N           50.71035699999999       -1.49762200000000        0.22566600000000
H           47.64286100000000       -0.02884700000000       -0.00985400000000
H           47.78465800000000        2.73326000000000        0.48133700000000
H           49.73696300000000        4.61828400000000        0.39006900000000
H           51.50136300000000        0.81453200000000       -0.03564900000000
H           53.04781300000000        5.44666900000000        1.72329600000000
H           53.09804600000000        7.90621700000000        1.40481500000000
H           52.05930200000000        7.35675000000000       -2.75577400000000
H           52.01141700000000        4.90347900000000       -2.40317200000000
H           55.13184600000000        4.42518900000000       -0.57807300000000
H           56.87486700000000        2.55757900000000       -0.54008200000000
H           56.63093200000000       -2.65087300000000        1.12051800000000
H           54.66877199999999       -4.50750200000000        1.25255100000000
H           53.01435200000000       -0.89967300000000       -0.15125500000000
H           51.37452099999999       -5.34936000000000        2.24210400000000
H           51.33620800000000       -7.82513500000000        2.10496700000000
H           52.53773500000000       -7.58227700000000       -2.04264100000000
H           52.56148800000000       -5.10965100000000       -1.87398600000000
H           49.32145500000000       -4.47969900000000       -0.03247000000000
H           47.60037400000000       -2.54255900000000       -0.10423000000000
C           88.72799200000000        0.02491400000000        0.08334700000000
C           87.99977300000000       -1.27506600000000        0.54109300000000
C           88.60708099999999       -2.39914800000000        1.05168900000000
C           87.58446100000000       -3.35639900000000        1.27939100000000
C           86.38699099999999       -2.78615800000000        0.89067700000000
N           86.64773599999998       -1.50058800000000        0.48642300000000
C           84.96415000000000       -3.48501400000000        0.88142800000000
C           84.92475299999998       -4.94990700000000        1.09279800000000
C           84.62040399999999       -5.47081100000000        2.35640500000000
C           84.59147100000000       -6.85203100000000        2.56097500000000
C           84.86797099999998       -7.72069500000000        1.49980500000000
C           84.83717699999998       -9.13900900000000        1.70587200000000
N           84.81345300000000      -10.28890600000000        1.86724600000000
C           85.17466700000000       -7.20387500000000        0.23611700000000
C           85.20289200000001       -5.82138200000000        0.03498900000000
C           83.83387699999999       -2.76480200000000        0.64880000000000
C           82.53078400000000       -3.39285200000000        0.56793700000000
C           81.62735699999999       -2.45399900000000        0.31337400000000
N           83.63575899999999       -1.42563300000000        0.43635200000000
C           82.30379800000000       -1.17432200000000        0.22920300000000
C           81.63243199999999       -0.01737100000000       -0.01640900000000
C           82.40557800000001        1.36839300000000       -0.07666800000000
C           81.85187799999999        2.62093300000000        0.11006200000000
C           82.87919200000000        3.57598000000000       -0.09041800000000
C           84.03288599999999        2.88088200000000       -0.38452500000000
N           83.74744299999999        1.53865800000000       -0.31556400000000
C           85.44596600000000        3.51317900000000       -0.72814000000000
C           85.47834700000000        4.90682800000000       -1.22127900000000
C           85.82070600000000        5.95766700000000       -0.36096800000000
C           85.84210600000000        7.27234800000000       -0.82983600000000
C           85.51683099999998        7.54409000000000       -2.16338600000000
C           85.54049500000001        8.89308600000000       -2.64723600000000
N           85.55869000000000        9.98602200000000       -3.03989600000000
C           85.17017700000000        6.49702600000000       -3.02515200000000
C           85.15182900000001        5.18326600000000       -2.55359700000000
C           86.57331199999999        2.76684800000000       -0.60021800000000
C           87.89670900000000        3.27954900000000       -0.91027300000000
C           88.78403800000000        2.31792200000000       -0.67125000000000
C           88.06173900000000        1.15547700000000       -0.21739400000000
N           86.73934199999998        1.47188400000000       -0.19490600000000
H           89.80683900000000       -0.00452600000000       -0.01329800000000
H           89.66504100000000       -2.52160400000000        1.22558400000000
H           87.71273599999999       -4.35783500000000        1.66135700000000
H           85.94833600000000       -0.82189900000000        0.19611900000000
H           84.40188600000000       -4.78341600000000        3.17218300000000
H           84.35165300000000       -7.23467100000000        3.54922000000000
H           85.39039699999999       -7.86216700000000       -0.60031800000000
H           85.43828200000000       -5.40746800000000       -0.94283300000000
H           82.31785300000000       -4.44117800000000        0.67767100000000
H           80.57483200000000       -2.63646900000000        0.19555100000000
H           80.81876699999998        2.82827100000000        0.34450700000000
H           82.78092700000001        4.64854400000000       -0.04422000000000
H           84.43534799999999        0.79278500000000       -0.39095800000000
H           86.07517900000001        5.73208100000000        0.67263900000000
H           86.11349100000000        8.07240400000000       -0.14660200000000
H           84.91196399999998        6.68734900000000       -4.06364800000000
H           84.88821100000000        4.35880200000000       -3.21500400000000
H           88.12824500000001        4.26499700000000       -1.27098200000000
H           89.84932600000000        2.38411600000000       -0.80199500000000
C           57.63253600000000       -0.01737100000000       -0.01640900000000
C           58.85445399999999       -0.01737100000000       -0.01640900000000
C           68.11389100000000       -0.01737100000000       -0.01640900000000
C           69.33580799999999       -0.01737100000000       -0.01640900000000
C           78.59524500000001       -0.01737100000000       -0.01640900000000
C           79.81716299999998       -0.01737100000000       -0.01640900000000
C           59.90510600000000        0.01856900000000        0.01754100000000
C           60.70034000000000        1.17030000000000       -0.72419600000000
C           60.19917500000000        2.39066800000000       -1.12895600000000
C           61.23773600000000        3.06639300000000       -1.81967400000000
C           62.34151500000000        2.23953700000000       -1.80965000000000
N           62.02711100000000        1.12410700000000       -1.07489200000000
C           63.72834400000000        2.51326700000000       -2.52089600000000
C           63.71621199999999        3.35865200000000       -3.73526100000000
C           63.23954999999999        2.83981600000000       -4.94469700000000
C           63.21293000000000        3.63650100000000       -6.09153700000000
C           63.66215399999999        4.96065600000000       -6.03305600000000
C           63.63607600000000        5.77974200000000       -7.20902900000000
N           63.61478799999999        6.44572300000000       -8.16106000000000
C           64.13625999999999        5.48516600000000       -4.82521600000000
C           64.16062500000000        4.68577300000000       -3.68047600000000
C           64.86472100000000        1.94100900000000       -2.04455600000000
C           66.15014100000000        2.11218800000000       -2.69018000000000
C           67.05922300000000        1.43212700000000       -1.99992600000000
N           65.07456000000001        1.12998600000000       -0.96460000000000
C           66.39873600000000        0.79243100000000       -0.88022800000000
C           67.06306100000000        0.01856900000000        0.01754100000000
C           66.26784400000000       -0.65486300000000        1.21050900000000
C           66.76909600000000       -0.98808600000000        2.45227800000000
C           65.73054100000000       -1.63829000000000        3.16707600000000
C           64.62666000000000       -1.67611700000000        2.34116500000000
N           64.94101000000001       -1.00742000000000        1.18490900000000
C           63.23983499999999       -2.37024400000000        2.65585700000000
C           63.25215299999999       -3.53368900000000        3.57006600000000
C           63.73045700000000       -4.77060200000000        3.12239000000000
C           63.75728599999999       -5.86952200000000        3.98394600000000
C           63.30664999999999       -5.73515800000000        5.30207900000000
C           63.33288999999999       -6.86192600000000        6.18762800000000
N           63.35425399999999       -7.77404700000000        6.90727700000000
C           62.83095500000000       -4.49949900000000        5.75554800000000
C           62.80641199999999       -3.40280800000000        4.89140000000000
C           62.10342800000000       -1.92796300000000        2.05693200000000
C           60.81805700000000       -2.56270100000000        2.26518900000000
C           59.90896699999999       -1.91321900000000        1.54610600000000
C           60.56940299999999       -0.83251800000000        0.84248400000000
N           61.89353600000000       -0.89691400000000        1.18458700000000
H           59.19358100000000        2.74778000000000       -0.96578100000000
H           61.17983899999999        4.03707700000000       -2.28837400000000
H           62.68464800000000        0.40166600000000       -0.79604200000000
H           62.89212000000000        1.80868400000000       -4.97876100000000
H           62.84024500000000        3.21200900000000       -7.02003300000000
H           64.48972100000000        6.51080900000000       -4.76076200000000
H           64.52897500000000        5.08113700000000       -2.73537400000000
H           66.34590799999999        2.68129900000000       -3.58102000000000
H           68.10331899999998        1.37465100000000       -2.24836200000000
H           67.77473800000000       -0.80460000000000        2.79920000000000
H           65.78848200000000       -2.04988800000000        4.16332600000000
H           64.28339699999999       -0.77077800000000        0.44766200000000
H           64.07901699999999       -4.86379300000000        2.09529700000000
H           64.13124200000000       -6.82061200000000        3.61410500000000
H           62.47638200000000       -4.37630700000000        6.77542200000000
H           62.43686600000000       -2.43679900000000        5.23122000000000
H           60.62233900000000       -3.41905000000000        2.88500000000000
H           58.86491500000000       -2.16474200000000        1.50300200000000
C           70.38646100000000        0.01856900000000        0.01754100000000
C           71.18169499999999        1.17030000000000       -0.72419600000000
C           70.68052900000001        2.39066800000000       -1.12895600000000
C           71.71909099999999        3.06639300000000       -1.81967400000000
C           72.82286900000000        2.23953700000000       -1.80965000000000
N           72.50846500000000        1.12410700000000       -1.07489200000000
C           74.20969900000000        2.51326700000000       -2.52089600000000
C           74.19756599999998        3.35865200000000       -3.73526100000000
C           73.72090399999999        2.83981600000000       -4.94469700000000
C           73.69428400000000        3.63650100000000       -6.09153700000000
C           74.14350800000000        4.96065600000000       -6.03305600000000
C           74.11743099999998        5.77974200000000       -7.20902900000000
N           74.09614199999999        6.44572300000000       -8.16106000000000
C           74.61761400000000        5.48516600000000       -4.82521600000000
C           74.64197900000001        4.68577300000000       -3.68047600000000
C           75.34607500000000        1.94100900000000       -2.04455600000000
C           76.63149500000000        2.11218800000000       -2.69018000000000
C           77.54057700000000        1.43212700000000       -1.99992600000000
N           75.55591400000000        1.12998600000000       -0.96460000000000
C           76.88009000000000        0.79243100000000       -0.88022800000000
C           77.54441500000000        0.01856900000000        0.01754100000000
C           76.74919800000001       -0.65486300000000        1.21050900000000
C           77.25044999999999       -0.98808600000000        2.45227800000000
C           76.21189499999998       -1.63829000000000        3.16707600000000
C           75.10801400000000       -1.67611700000000        2.34116500000000
N           75.42236400000000       -1.00742000000000        1.18490900000000
C           73.72118899999998       -2.37024400000000        2.65585700000000
C           73.73350800000000       -3.53368900000000        3.57006600000000
C           74.21181100000000       -4.77060200000000        3.12239000000000
C           74.23863999999999       -5.86952200000000        3.98394600000000
C           73.78800500000000       -5.73515800000000        5.30207900000000
C           73.81424500000000       -6.86192600000000        6.18762800000000
N           73.83560900000001       -7.77404700000000        6.90727700000000
C           73.31230900000000       -4.49949900000000        5.75554800000000
C           73.28776700000000       -3.40280800000000        4.89140000000000
C           72.58478200000000       -1.92796300000000        2.05693200000000
C           71.29941200000000       -2.56270100000000        2.26518900000000
C           70.39032099999999       -1.91321900000000        1.54610600000000
C           71.05075700000000       -0.83251800000000        0.84248400000000
N           72.37489100000001       -0.89691400000000        1.18458700000000
H           69.67493599999999        2.74778000000000       -0.96578100000000
H           71.66119300000000        4.03707700000000       -2.28837400000000
H           73.16600200000001        0.40166600000000       -0.79604200000000
H           73.37347499999998        1.80868400000000       -4.97876100000000
H           73.32159900000001        3.21200900000000       -7.02003300000000
H           74.97107500000000        6.51080900000000       -4.76076200000000
H           75.01032899999998        5.08113700000000       -2.73537400000000
H           76.82726200000000        2.68129900000000       -3.58102000000000
H           78.58467300000000        1.37465100000000       -2.24836200000000
H           78.25609300000001       -0.80460000000000        2.79920000000000
H           76.26983599999998       -2.04988800000000        4.16332600000000
H           74.76475200000000       -0.77077800000000        0.44766200000000
H           74.56037100000000       -4.86379300000000        2.09529700000000
H           74.61259599999998       -6.82061200000000        3.61410500000000
H           72.95773699999999       -4.37630700000000        6.77542200000000
H           72.91822000000001       -2.43679900000000        5.23122000000000
H           71.10369400000000       -3.41905000000000        2.88500000000000
H           69.34627000000000       -2.16474200000000        1.50300200000000
240
 energy: -415.573227563463 gnorm: 0.651171807760 xtb: 6.5.1 (b24c23e)
C           48.73308219994967       -0.01136748496177        0.09210731060292
C           49.44570378171963        1.33284097069577        0.16936344123005
C           48.84485086494607        2.57141585322222        0.34728039021158
C           49.86249292193956        3.54890457369424        0.30003169711972
C           51.07520973998235        2.89804894532581        0.08477515497027
N           50.80215753997643        1.54717911168713        0.05406891984177
C           52.46753869823243        3.55204802683703       -0.11395905107937
C           52.52222136762671        5.02699358011015       -0.31933467410100
C           52.82935098304505        5.88094950705822        0.74753734268821
C           52.85829360909479        7.26176254479790        0.56175646838788
C           52.58168478686211        7.80503233102641       -0.69914356304756
C           52.61249629577172        9.22554158251710       -0.89520329444596
N           52.63615925091450       10.36806496147177       -1.05834866200977
C           52.27526282470429        6.95424989932983       -1.76886969805888
C           52.24666494005288        5.57370499445090       -1.57759653493197
C           53.61861012980307        2.80290377988369       -0.14028343535592
C           54.91991208869053        3.39205654948998       -0.39319455622917
C           55.82690253621618        2.41626496052481       -0.37669290174165
N           53.81188770470352        1.45507401769712        0.02711252971930
C           55.14740597642055        1.16436796734793       -0.10337612873281
C           55.82807411532246       -0.03474100406471       -0.00860794186258
C           55.05268907786925       -1.35295457465617        0.30881385436907
C           55.59671169926083       -2.51962232272006        0.83631128595780
C           54.57337308741904       -3.48858112216887        0.90873901956298
C           53.40475577088947       -2.90732512554278        0.43332669845103
N           53.70357436643525       -1.59448585466416        0.12710454857188
C           52.02149285269189       -3.59581830068025        0.28165531393739
C           51.97431410710080       -5.08036078676088        0.19476046262890
C           51.62890459523204       -5.85360548412069        1.31049307752199
C           51.60752555048921       -7.24399382928519        1.22625468183639
C           51.93288645440711       -7.87867790771276        0.02065472457564
C           51.90926547552984       -9.30975648721826       -0.06952976706318
N           51.89107644401010      -10.46167404966417       -0.14281662638504
C           52.27933751744546       -7.10880081440502       -1.09749284919051
C           52.29805970830375       -5.71870245630194       -1.00848531894628
C           50.87364451862438       -2.85088435023307        0.19502899907548
C           49.55171316893357       -3.43756064081925        0.04030963617875
C           48.66198358576731       -2.44518630922602        0.00249653247199
C           49.39120871097650       -1.20259868169522        0.11577992837577
N           50.71560778449712       -1.49381874003264        0.22581319733561
H           47.64692158143807       -0.02514826902757       -0.00862354828595
H           47.78570254191246        2.73430374967250        0.48137124499964
H           49.73638167716818        4.61759028914022        0.39012060549290
H           51.50086818978551        0.81521301951398       -0.03568402949171
H           53.04743571217281        5.44778737722111        1.72221017129471
H           53.09775645892877        7.90599698995593        1.40369492713650
H           52.05957415385051        7.35688767455323       -2.75470270308446
H           52.01154376062483        4.90473639937775       -2.40254260479499
H           55.13064149118007        4.42788863976404       -0.57823332358151
H           56.87772373538554        2.55595971831709       -0.54014638762601
H           56.63016736028924       -2.65152348161019        1.12038247994321
H           54.66940470752412       -4.50688738693283        1.25258689170187
H           53.01539055275351       -0.90030077888882       -0.15114974811609
H           51.37491842185758       -5.35047470423761        2.24122508469427
H           51.33655018240868       -7.82502120238430        2.10385245112173
H           52.53729206318440       -7.58232521454576       -2.04144722072109
H           52.56132535512359       -5.11098222484179       -1.87301529279558
H           49.32250425429665       -4.48266742005275       -0.03238701602599
H           47.59818040209469       -2.54197723641612       -0.10437236876556
C           88.71658901043646        0.00691432560659        0.08953795878220
C           88.00399520321528       -1.26279473146202        0.53695136622915
C           88.60482560357974       -2.40343597213683        1.05186947193221
C           87.58730256160968       -3.35549922890779        1.27790374283022
C           86.37433275181978       -2.79004494135169        0.89039194903781
N           86.64752341511083       -1.50080093894567        0.48577442791914
C           84.98241585596040       -3.47351242305409        0.88104157555556
C           84.92749250777470       -4.94745611541939        1.09337456280999
C           84.62034205446881       -5.47158643698311        2.35539900257334
C           84.59139928142798       -6.84967491768454        2.56036405284356
C           84.86801387796513       -7.72171610419107        1.49991139711103
C           84.83720589300367       -9.14079747185106        1.70602449042132
N           84.81353810966986      -10.28369362396416        1.86655392966745
C           85.17443676462074       -7.20144240324969        0.23600292373483
C           85.20303406602835       -5.82207837691558        0.03639552100114
C           83.83106380162258       -2.76093006440266        0.64744799474997
C           82.52974911322463       -3.39725193657452        0.56840473064756
C           81.62265620149930       -2.45527511540489        0.31329544481990
N           83.63816248806771       -1.42007033029763        0.43446537207217
C           82.30205355436591       -1.17629068086191        0.22943561516126
C           81.62293432305648        0.00153767225398       -0.01378056514804
C           82.39697626195380        1.35571907690434       -0.07600447869147
C           81.85284996957368        2.62329397802910        0.10785964684450
C           82.87620911410765        3.57415332481863       -0.09153377905107
C           84.04508185590537        2.88379236909275       -0.38685867414666
N           83.74623423423371        1.53758831868381       -0.31657617236169
C           85.42811536382207        3.50308263369400       -0.72370044872417
C           85.47537413661738        4.90513892857925       -1.21948327324239
C           85.82079052684260        5.95779400987950       -0.36235643617119
C           85.84217408818758        7.27010963827158       -0.82938014785833
C           85.51681165458936        7.54504609445658       -2.16380947239303
C           85.54043374351781        8.89480143620253       -2.64784527807774
N           85.55862429103257        9.98106406989254       -3.03811392303469
C           85.17036156239521        6.49495414161433       -3.02419425882622
C           85.15164433052256        5.18423995519507       -2.55266803045484
C           86.57606162771503        2.76335740202839       -0.60012674236786
C           87.89798501244154        3.28405600363045       -0.91167250488199
C           88.78771723360545        2.32020783725315       -0.67242594280392
C           88.05844280411436        1.15795936678080       -0.21854600961696
N           86.73411270281414        1.46828532807752       -0.19372828961538
H           89.80277117917515       -0.00774505893222       -0.01107890932838
H           89.66399290879804       -2.52260556045835        1.22591172794571
H           87.71332997062935       -4.35715056736324        1.66121818763357
H           85.94882481598736       -0.82255784690223        0.19627520420372
H           84.40226501663132       -4.78479306772139        3.17145112425980
H           84.35194387696413       -7.23477403235468        3.54808508393186
H           85.39012575396971       -7.86200268376940       -0.59925059886740
H           85.43815709266039       -5.40849959994342       -0.94187676861055
H           82.31906290033881       -4.44380004795058        0.67827313220193
H           80.57191318042258       -2.63488097056250        0.19499008498609
H           80.81946564263843        2.82878391483117        0.34421998478303
H           82.78028155209672        4.64794216259194       -0.04399837615934
H           84.43433867875295        0.79341405970578       -0.39104613952723
H           86.07478145773280        5.73290725525297        0.67148586719417
H           86.11314954000837        8.07198548572751       -0.14764074457275
H           84.91240625797057        6.68772718075327       -4.06251371721707
H           84.88837319193438        4.36035072308915       -3.21443993784456
H           88.12719508876754        4.26787232048774       -1.27172642829176
H           89.85152059615089        2.38351708750366       -0.80196995257370
C           57.55664767706807       -0.01828545618925       -0.01711494614120
C           58.75355853551351       -0.01238478625095       -0.02772642355388
C           68.15997146008839       -0.03020696873840       -0.01205292229987
C           69.28960491306751       -0.01376087359291       -0.02948616068888
C           78.69618207242637       -0.02828445098921       -0.01092261212241
C           79.89194203891286       -0.01755124345232       -0.01646565752788
C           60.00278991311744        0.03417856390593        0.01350013351028
C           60.70934642905898        1.16959423830840       -0.72081956965031
C           60.20080630342446        2.39054083057265       -1.13146177071273
C           61.23617571318181        3.06474991443769       -1.82070503388029
C           62.35245041511433        2.24202434312000       -1.81417676058813
N           62.02968505186704        1.12466530931779       -1.07782275144066
C           63.71384969532304        2.50815869088729       -2.51173861532147
C           63.71366089136097        3.35849443000255       -3.73272951072683
C           63.23938443616603        2.84127227492904       -4.94451137500209
C           63.21325834629324        3.63534789406290       -6.08942109273786
C           63.66211972363367        4.96127876546954       -6.03391235427188
C           63.63600359663867        5.78094559170405       -7.21066327606886
N           63.61489223253640        6.44252900973096       -8.15654581229208
C           64.13632528829496        5.48350234453266       -4.82350195432736
C           64.16067069586055        4.68513282979790       -3.68161573623926
C           64.86539818645397        1.94178564163706       -2.04709210240049
C           66.15033731869639        2.11611770912710       -2.69539830025299
C           67.06077293655726        1.43189369370749       -2.00034276467791