118
 energy: -200.847162431067 gnorm: 0.000738745834 xtb: 6.5.1 (b24c23e)
Co          12.79199445134013       -0.02986872974080       -0.00145434401659
C            9.41874577473393       -0.05898268218612       -0.06644019415801
C           10.08732313065783       -1.22244132680226       -0.38010315686468
C            9.43060149419866       -2.45085383340998       -0.70931585191933
C           10.38876038031918       -3.40613316832437       -0.74187681589851
C           11.63231498145115       -2.75805039035823       -0.44301708205044
N           11.44282216681802       -1.41018481719705       -0.27083980530435
C           12.82098760447791       -3.43335984789137       -0.20205606263349
C           13.99975456021953       -2.76531149757163        0.09058834136300
C           15.25441354990015       -3.41866918967644        0.31368306205226
C           16.19985373968358       -2.44935543108352        0.34755778954491
N           14.17427587358184       -1.40084148364847        0.02763730668100
C           15.52182016901772       -1.20898170917168        0.14181091633936
C           16.18574662834315        0.00516484937339       -0.05340296071724
C           15.49419526043401        1.20716751443461       -0.22196821220380
C           16.13977314926656        2.46094037077661       -0.44973411823420
C           15.17694791446618        3.41147749826008       -0.37879698655283
C           13.94754463362240        2.73349577595357       -0.09739312443602
C           12.75659347583973        3.37589737997770        0.20556306373002
C           12.74109994316399        4.85314174302360        0.31049727137669
C           11.91866510450582        5.61296049508303       -0.52278012887848
C           11.90663847451817        6.99597363102793       -0.42371021624699
C           12.70972810410639        7.63612340145095        0.51046694727306
C           13.52927129396934        6.88724196871192        1.34404806538928
C           13.54868415997429        5.50431848753672        1.24417335053822
C           11.57612192689297        2.67169834356407        0.40502961342165
C           10.32495998690599        3.27942286025235        0.75178144329179
C            9.38120172081972        2.31290911329941        0.65857910943538
C           10.05952778851175        1.11330090115781        0.27355181034668
N           11.41087751395516        1.32967551397297        0.17567005071436
N           14.14625415678130        1.37145413196821       -0.06972971654021
C           12.83216165038333       -4.91570525042503       -0.25925302298333
C           12.61535029860377       -5.57838284954200       -1.46727870314501
C           12.63109182320373       -6.96439442195453       -1.51711244649929
C           12.85878998131696       -7.70206736312726       -0.36336103322630
C           13.07334365617640       -7.04853761543583        0.84244702444813
C           13.06268663564609       -5.66269578776448        0.89602217790432
H            8.33518020767184       -0.06993219267346       -0.07452005474744
H            8.36862479217688       -2.55214713444988       -0.86733979722202
H           10.27516262529315       -4.46154174367461       -0.92923257383176
H           15.38637603782246       -4.48415584974010        0.40765525789473
H           17.26489056558453       -2.55002827092585        0.48107666986358
H           17.19561231288606        2.58131640112252       -0.63152344583364
H           15.27838631825245        4.47732153042607       -0.50275313357903
H           11.30076603006801        5.11530888071613       -1.26191118053975
H           11.26770886582461        7.57663679562564       -1.07979552899931
H           12.69705505273444        8.71733183463293        0.58847096753250
H           14.15637161252764        7.38242341041726        2.07713845259224
H           14.17992482322844        4.92004129115180        1.90440627188569
H           10.19854791227328        4.31430988785415        1.02564139876319
H            8.31879173192886        2.38640444928385        0.82849610413707
H           12.44979677296465       -5.00268357416084       -2.37107088728029
H           12.46626524984906       -7.47046002349364       -2.46184871246295
H           12.86966936319632       -8.78533495861365       -0.40395312928963
H           13.24960450344594       -7.62043303398303        1.74673069962835
H           13.21968211336534       -5.15279157429438        1.83995850734061
Co          28.74675271906360        0.02943749099305       -0.00316853806634
C           32.12007058534773        0.06186858541480       -0.06356826507306
C           31.45130526527912        1.23778101777643       -0.32630208450953
C           32.10786358568088        2.47940074387279       -0.60180422580275
C           31.14964231846469        3.43514193373609       -0.59256226988780
C           29.90617403109591        2.77457878497049       -0.32216748393077
N           30.09586415630923        1.42056524867554       -0.20846814780747
C           28.71721495415951        3.43852942744350       -0.05262271630804
C           27.53842651759011        2.75812473220286        0.20967825460961
C           26.28342213119856        3.40099106040805        0.45971740440899
C           25.33817427092188        2.43096860667983        0.45094639632891
N           27.36433013678651        1.39751786893767        0.08820015389703
C           26.01664886599575        1.20066656953900        0.19283671182481
C           25.35313255861285       -0.00415779756359       -0.05425434608720
C           26.04494347141106       -1.19751142116198       -0.27493790349800
C           25.39984587590740       -2.44024347015974       -0.55789994470635
C           26.36287668728415       -3.39274965451086       -0.52787151574833
C           27.59197175866112       -2.72741203826167       -0.21644709235783
C           28.78288671613233       -3.38213605511059        0.05897370099746
C           28.79847597478137       -4.86254254744899        0.09978900023847
C           29.62109570771930       -5.58559582746567       -0.76539726988415
C           29.63305601894227       -6.97160392524701       -0.72628323048472
C           28.82968611170986       -7.65156159126856        0.17908325094879
C           28.00990231577313       -6.93944292613927        1.04405445508763
C           27.99057478059096       -5.55349405834080        1.00414025779170
C           29.96311432213274       -2.68699733049145        0.28903276146849
C           31.21443671596987       -3.30902234022108        0.60888339332155
C           32.15803078947025       -2.33924770722045        0.55759026985925
C           31.47945856913571       -1.12412135154414        0.22518438530961
N           30.12805927647256       -1.33614626645752        0.11860538119270
N           27.39279860662015       -1.36799731250233       -0.12916419502221
C           28.70592695597338        4.92198563891730       -0.04522277057857
C           28.92389175678829        5.63662902704467       -1.22304471137213
C           28.90861830006775        7.02350384855432       -1.21245389951123
C           28.68016882299809        7.71026921691211       -0.02784180763134
C           28.46428427809038        7.00487104929181        1.14813569784438
C           28.47451652568426        5.61800334601709        1.14128570753967
H           33.20362975256445        0.07323479043253       -0.07134787896526
H           33.16979097328161        2.58751108960108       -0.75554150897304
H           31.26318699658225        4.49770945648246       -0.73377991249557
H           26.15120012679141        4.46144285846415        0.59925061943633
H           24.27298189946818        2.52549190705337        0.58772504750035
H           24.34417094231092       -2.55289418175490       -0.74550554287777
H           26.26178593300598       -4.45216333190026       -0.69849496345714
H           30.23918408838149       -5.05644204063597       -1.48214853567303
H           30.27212991727680       -7.52335125471564       -1.40673338930026
H           28.84232259595708       -8.73513433793709        0.21021849503681
H           27.38256098130667       -7.46587626799380        1.75481928434123
H           27.35912056181926       -4.99829430587340        1.68880890877871
H           31.34100724340725       -4.35483318152138        0.83744893283062
H           33.22050179527923       -2.41991635934308        0.72385855241943
H           29.09007171010478        5.10081288115411       -2.15092520036799
H           29.07445525791926        7.57018729908707       -2.13410071723003
H           28.66974309961913        8.79428054145428       -0.02117388537261
H           28.28738732638331        7.53688738489179        2.07632368982628
H           28.31655591603530        5.06752031960414        2.06197733878532
C           21.38378845288141       -0.00709513368350       -0.08970274406829
C           20.15499952465224        0.00569727833518       -0.08846636313390
C           18.81202104758294        0.00787531954041       -0.08396736465190
C           17.58777621546900        0.01632392920352       -0.07128719360274
C           22.72679637242524       -0.00835412532594       -0.08352328286040
C           23.95107678560533       -0.01458782048757       -0.07356939736686
