118
 energy: -198.783520387933 gnorm: 6.151989121075 xtb: 6.5.1 (b24c23e)
Co          13.15859300000000        0.04826800000000        0.00435000000000
C            9.82203000000000       -0.10780300000000       -0.00606300000000
C           10.48613900000000       -1.26000700000000       -0.13389200000000
C            9.83646100000000       -2.55674800000000       -0.28428100000000
C           10.77829000000000       -3.48046000000000       -0.33167400000000
C           12.08311900000000       -2.81604000000000       -0.21220600000000
N           11.90483300000000       -1.40446100000000       -0.09176900000000
C           13.27332200000000       -3.44776600000000       -0.16702600000000
C           14.56695500000000       -2.73172900000000       -0.01655800000000
C           15.85749800000000       -3.40652700000000        0.16835400000000
C           16.79221400000000       -2.48005100000000        0.22614800000000
N           14.70757300000000       -1.44267400000000       -0.07652600000000
C           16.10707800000000       -1.20263700000000        0.07074700000000
C           16.70165200000000       -0.00020900000000        0.00005800000000
C           15.94063800000000        1.25737400000000       -0.17885200000000
C           16.47760600000000        2.40244500000000       -0.58105700000000
C           15.43387100000000        3.40719600000000       -0.53899900000000
C           14.32785300000000        2.81075100000000       -0.10970500000000
C           13.04274500000000        3.51276400000000        0.14149800000000
C           13.06186500000000        4.98756500000000        0.29945800000000
C           12.40260200000000        5.81351700000000       -0.62679000000000
C           12.44130400000000        7.20363100000000       -0.48169200000000
C           13.14285900000000        7.77759000000000        0.58228300000000
C           13.80890200000000        6.96235600000000        1.50178100000000
C           13.77210800000000        5.57170300000000        1.36085800000000
C           11.87769700000000        2.84276200000000        0.23020000000000
C           10.56533800000000        3.42369800000000        0.50898400000000
C            9.70374500000000        2.42662600000000        0.45650000000000
C           10.45672700000000        1.20967700000000        0.15821700000000
N           11.72487800000000        1.43978500000000        0.02478400000000
N           14.55761200000000        1.42212400000000        0.13731800000000
C           13.31210300000000       -4.92267600000000       -0.25893300000000
C           13.21111500000000       -5.55482700000000       -1.50782900000000
C           13.24920700000000       -6.95007600000000       -1.59242100000000
C           13.38912300000000       -7.71860900000000       -0.43282100000000
C           13.49097100000000       -7.09302700000000        0.81342900000000
C           13.45259000000000       -5.69807600000000        0.90228100000000
H            8.73862900000000       -0.13640300000000       -0.00905200000000
H            8.77213500000000       -2.74646500000000       -0.33880500000000
H           10.59285700000000       -4.54232700000000       -0.42945800000000
H           16.03491800000000       -4.47137700000000        0.24045900000000
H           17.85088400000000       -2.66453500000000        0.35099900000000
H           17.50694600000000        2.57012700000000       -0.86821800000000
H           15.54672100000000        4.45383900000000       -0.79041700000000
H           11.86374200000000        5.38020600000000       -1.46047000000000
H           11.93003200000000        7.83607000000000       -1.19584600000000
H           13.17275900000000        8.85385900000000        0.69257700000000
H           14.35470400000000        7.40811700000000        2.32325300000000
H           14.29319700000000        4.94981000000000        2.07847700000000
H           10.32049300000000        4.45590700000000        0.72192100000000
H            8.63646900000000        2.50809400000000        0.61537500000000
H           13.10304000000000       -4.96727800000000       -2.41128900000000
H           13.17064300000000       -7.43553900000000       -2.55654400000000
H           13.41876100000000       -8.79842700000000       -0.49995900000000
H           13.59956900000000       -7.68903600000000        1.71028600000000
H           13.53222700000000       -5.22179100000000        1.87179100000000
Co          28.38037900000000       -0.04882700000000        0.00224100000000
C           31.71694200000000        0.10754800000000       -0.00138500000000
C           31.05283300000000        1.26421600000000       -0.07906200000000
C           31.70251100000000        2.56626500000000       -0.17300400000000
C           30.76068200000000        3.49116400000000       -0.18024200000000
C           29.45585300000000        2.82218200000000       -0.08973700000000
N           29.63413900000000        1.40670500000000       -0.03070800000000
C           28.26565000000000        3.45135100000000       -0.01716900000000
C           26.97201700000000        2.72945500000000        0.10206500000000
C           25.68147400000000        3.39558800000000        0.31610400000000
C           24.74675800000000        2.46747600000000        0.33361400000000
N           26.83139900000000        1.44422000000000       -0.01381900000000
C           25.43189400000000        1.19801500000000        0.12289200000000
C           24.83732000000000       -0.00020900000000        0.00005800000000
C           25.59833400000000       -1.24883800000000       -0.23329000000000
C           25.06136600000000       -2.37536400000000       -0.68483600000000
C           26.10510100000000       -3.38099400000000       -0.68644600000000
C           27.21111900000000       -2.80375200000000       -0.23165900000000
C           28.49622700000000       -3.51601100000000       -0.01117600000000
C           28.47710700000000       -4.99628000000000        0.08259800000000
C           29.13637000000000       -5.78123300000000       -0.87864100000000
C           29.09766800000000       -7.17633600000000       -0.79404200000000
C           28.39611300000000       -7.79595400000000        0.24400700000000
C           27.73007000000000       -7.02141500000000        1.19803700000000
C           27.76686400000000       -5.62595500000000        1.11763200000000
C           29.66127500000000       -2.85049200000000        0.10653600000000
C           30.97363400000000       -3.44298600000000        0.35983100000000
C           31.83522700000000       -2.44457500000000        0.35069200000000
C           31.08224500000000       -1.21582200000000        0.10553200000000
N           29.81409400000000       -1.43991900000000       -0.03776700000000
N           26.98136000000000       -1.42716100000000        0.07542800000000
C           28.22686900000000        4.92886000000000       -0.04494600000000
C           28.32785700000000        5.61464500000000       -1.26521500000000
C           28.28976500000000        7.01225100000000       -1.28914300000000
C           28.14984900000000        7.72970700000000       -0.09726600000000
C           28.04800100000000        7.05060000000000        1.12064500000000
C           28.08638200000000        5.65310700000000        1.14884200000000
H           32.80034300000000        0.13625100000000       -0.00313000000000
H           32.76683700000000        2.75817000000000       -0.21923800000000
H           30.94611500000000        4.55627500000000       -0.23182600000000
H           25.50405400000000        4.45630300000000        0.43437900000000
H           23.68808800000000        2.64636500000000        0.46635800000000
H           24.03202600000000       -2.53041900000000       -0.97900800000000
H           25.99225100000000       -4.41573200000000       -0.98307500000000
H           29.67523000000000       -5.31213100000000       -1.69272100000000
H           29.60894000000000       -7.77716900000000       -1.53498400000000
H           28.36621299999999       -8.87599700000000        0.30746400000000
H           27.18426800000000       -7.50242500000000        1.99937900000000
H           27.24577500000000       -5.03580800000000        1.86157800000000
H           31.21847900000000       -4.48346700000000        0.52774800000000
H           32.90250300000000       -2.53286500000000        0.50587900000000
H           28.43593200000000        5.06688000000000       -2.19333500000000
H           28.36832900000000        7.53912000000000       -2.23127700000000
H           28.12021100000000        8.81142200000000       -0.11745300000000
H           27.93940300000000        7.60710400000000        2.04253600000000
H           28.00674500000000        5.13517400000000        2.09675600000000
C           21.37340600000000        0.00110200000000        0.00849000000000
C           20.16446700000000       -0.01235300000000        0.00004300000000
C           18.74293800000000       -0.00353300000000       -0.01194000000000
C           17.53126800000000        0.00390500000000       -0.00107700000000
C           22.79001100000000       -0.00557300000000        0.00902300000000
C           24.01070600000000        0.00390500000000       -0.00107700000000
118
 energy: -200.465486564668 gnorm: 0.816477613335 xtb: 6.5.1 (b24c23e)
Co          13.16040632999784        0.04698525127949        0.00435816721122
C            9.82234884884982       -0.10280203406139       -0.00538780013656
C           10.48900152703192       -1.26139717496200       -0.13396346938650
C            9.83560644715442       -2.55484184028761       -0.28417208398348
C           10.78077329909956       -3.48137696709246       -0.33164186554859
C           12.08162857052149       -2.81282991868443       -0.21216254357159
N           11.90174921669837       -1.40665440682548       -0.09227660220640
C           13.27831884912439       -3.44660948979607       -0.16654428714028
C           14.56399529488739       -2.73836044911679       -0.01675832715640
C           15.85327314973562       -3.40953419115117        0.16785168210901
C           16.79296032847868       -2.47560379657006        0.22596300753197
N           14.70784134706771       -1.44066572196879       -0.07564835192984
C           16.08503633778940       -1.21496027478035        0.07135229105471
C           16.51988921280088        0.00292341567759        0.00006258415165
C           15.92272394542439        1.25870605873870       -0.17747338749242
C           16.47800211881681        2.40786087657203       -0.58208658090502
C           15.44002215787215        3.40791519067958       -0.54028104683560
C           14.32236293440272        2.80777736597679       -0.10699108941346
C           13.04611983325987        3.51137977598932        0.14104244013497
C           13.06254269149291        4.98790336054332        0.29915914692426
C           12.40290582568306        5.81408133548549       -0.62590462505532
C           12.44184548405879        7.20288874131683       -0.48091414091911
C           13.14283036957383        7.77662162511565        0.58218333814363
C           13.80826903003049        6.96179906073131        1.50092452212704
C           13.77183123185444        5.57252117453675        1.36020059046602
C           11.87676011754805        2.84197916055159        0.23021388464361
C           10.56792192765046        3.42468620520874        0.50881384866153
C            9.70160842025621        2.42355561070340        0.45613810737981
C           10.45166055533932        1.20643907776670        0.15806541275769
N           11.72767768682353        1.44130170115295        0.02558534212242
N           14.55600000068612        1.42440294943612        0.13524990363625
C           13.31246085828804       -4.92368751661278       -0.25890531355655
C           13.21113272592850       -5.55564792049614       -1.50703997770615
C           13.24928188281556       -6.94956065221800       -1.59135306319647
C           13.38909560907168       -7.71759746386729       -0.43275816331246
C           13.49084125629652       -7.09240482337144        0.81244266206742
C           13.45264224925689       -5.69885090829875        0.90142160354932
H            8.73867451752833       -0.13601726522080       -0.00895800410970
H            8.77217904702773       -2.74564366963767       -0.33874834414398
H           10.59383590222719       -4.54232162742782       -0.42944513475242
H           16.03413742781500       -4.47156921308515        0.24039288664484
H           17.85076841385883       -2.66333692326426        0.35096976947559
H           17.50687338326465        2.57012371850525       -0.86827225417558
H           15.54704484557424        4.45367307007852       -0.79052574725128
H           11.86384114025504        5.38007764297979       -1.46037541664106
H           11.93004268771944        7.83601727910948       -1.19586037585509
H           13.17276479136476        8.85386542210591        0.69257174229915
H           14.35469340813106        7.40806450516396        2.32325080875191
H           14.29310427358039        4.94971600938687        2.07834352502741
H           10.32141078870992        4.45586480180869        0.72178773109107
H            8.63636793697691        2.50737924267960        0.61526672078022
H           13.10306988322090       -4.96718515827984       -2.41113288628274
H           13.17064798027030       -7.43549882941955       -2.55654126230581
H           13.41876347904237       -8.79842829586874       -0.49995954275905
H           13.59956068771953       -7.68900023136069        1.71028929036578
H           13.53220052225324       -5.22168677981817        1.87164729810823
Co          28.37857178585329       -0.04754245780913        0.00230611089441
C           31.71662366813419        0.10252340208332       -0.00092767546749
C           31.04997106359188        1.26560917433323       -0.07907283422978
C           31.70336607849164        2.56435534068531       -0.17297802432638
C           30.75819768209871        3.49207861195694       -0.18016985824742
C           29.45734403694556        2.81897651572649       -0.08983242115573
N           29.63721916073344        1.40891109475530       -0.03112179039739
C           28.26065433557467        3.45017484696679       -0.01673704682459
C           26.97496401551395        2.73611773757860        0.10215988990394
C           25.68572449035583        3.39862368391432        0.31573189987190
C           24.74601487097744        2.46300751588839        0.33323276409516
N           26.83113545735455        1.44218258668709       -0.01303538415664
C           25.45407642245436        1.21034246254208        0.12400515339274
C           25.02128398722377       -0.00461426913582       -0.00034753221993
C           25.61638725931679       -1.25037662071140       -0.23202688552740
C           25.06096191001724       -2.38071643421783       -0.68609618606167
C           26.09895967707682       -3.38165922331788       -0.68775462466179
C           27.21659874905967       -2.80089977030849       -0.22882076112070
C           28.49286099426419       -3.51460887665544       -0.01156953293412
C           28.47642907842509       -4.99660467258233        0.08228489685100
C           29.13606639280003       -5.78183519375280       -0.87778112086090
C           29.09712650022346       -7.17562825174842       -0.79323259379423
C           28.39614163256322       -7.79498216112597        0.24394947774519
C           27.73070298740006       -7.02082141076415        1.19720556727088
C           27.76714040292989       -5.62674389769700        1.11693984353677
C           29.66220859717416       -2.84971416752655        0.10658276200533
C           30.97105216155816       -3.44396613259800        0.35961853190505
C           31.83736335389085       -2.44149402831780        0.35046409342704
C           31.08730799083608       -1.21258210756835        0.10552097218542
N           29.81129765540065       -1.44146588349360       -0.03703295367396
N           26.98297530809053       -1.42934651095786        0.07326591996952
C           28.22651113465753        4.92986855937607       -0.04487506381306
C           28.32783935968984        5.61543084163919       -1.26439129970801
C           28.28969006955041        7.01168972859692       -1.28809831058991
C           28.14987638678587        7.72869362266417       -0.09724707672358
C           28.04813087561435        7.05002116792054        1.11963233722037
C           28.08632964774290        5.65391819978439        1.14801720224663
H           32.80029749085208        0.13586153797563       -0.00305292961894
H           32.76679292448639        2.75734692375207       -0.21921703566640
H           30.94513606465843        4.55626899690789       -0.23181337365384
H           25.50483489739195        4.45649749776737        0.43432166098124
H           23.68820428747284        2.64516595091010        0.46627651129346
H           24.03209544663512       -2.53040831591262       -0.97906056831841
H           25.99192646754571       -4.41556095022170       -0.98317621700850
H           29.67513081068710       -5.31200686639067       -1.69262088197479
H           29.60892928938381       -7.77711562858235       -1.53499605167044
H           28.36620720069305       -8.87600313319880        0.30745844913568
H           27.18427863714189       -7.50237240531470        1.99937905609458
H           27.24586774724693       -5.03570836154415        1.86144875133950
H           31.21756134996281       -4.48341912344857        0.52761671642928
H           32.90260401450193       -2.53214631990767        0.50580189936055
H           28.43590209432188        5.06678048179877       -2.19318308595043
H           28.36832402086236        7.53907970486315       -2.23127603265494
H           28.12020851263195        8.81142329138755       -0.11745348407737
H           27.93941131242028        7.60706803814139        2.04253772563516
H           28.00677145926802        5.13507608180966        2.09660792111361
C           21.38012376708812        0.00120323805597        0.00844754227058
C           20.15763902070521       -0.01238801316097       -0.00003818346456
C           18.78854601418784       -0.00298049616287       -0.01168850463998
C           17.70751573650818        0.00924625129385       -0.00146314830112
C           22.74603444200310       -0.00636169807176        0.00954891766239
C           23.83043102276427        0.00011020870640       -0.00171371983084
118
 energy: -200.647963544202 gnorm: 0.489849180700 xtb: 6.5.1 (b24c23e)
Co          13.16624360582152        0.03607207547085        0.00428254353683
C            9.82350499999014       -0.08745390237118       -0.00308479514148
C           10.49513612012548       -1.25932004108502       -0.13382458497539
C            9.83734123085320       -2.54703002386466       -0.28368923020501
C           10.79114260141255       -3.48048873563948       -0.33136993707644
C           12.08239010029686       -2.80467824837484       -0.21255655660077
N           11.88965101476507       -1.41367811721770       -0.09383085659557
C           13.28781597928106       -3.44729497021763       -0.16565067157592
C           14.54628665059466       -2.76444476104947       -0.01770405396103
C           15.83669580674870       -3.42239409552385        0.16504339152284
C           16.77866021920323       -2.47138449014403        0.22478214222068
N           14.68112048094348       -1.45425327187300       -0.06717308245187
C           16.03490210468629       -1.23785029711996        0.07602461143198
C           16.45940123334009        0.02050431963042       -0.00013724756851
C           15.87161697372013        1.26696142076481       -0.17489274038271
C           16.46905628712009        2.42886234599627       -0.58216589532332
C           15.45457732346878        3.41291357973564       -0.53994735636925
C           14.30691626611197        2.80649582885675       -0.09926022839650
C           13.05647273873374        3.50664155073696        0.14074471566303
C           13.06951120082334        4.98743140790254        0.29551784963015
C           12.40435730690450        5.81451141090533       -0.62151547690070
C           12.44372514850599        7.19946396789408       -0.47750203014425
C           13.14273655159682        7.77280997910495        0.58180292038433
C           13.80550128601203        6.95949877222576        1.49768128969624
C           13.77178136107893        5.57461298269863        1.35621734048366
C           11.87795205568131        2.83756259031375        0.23076095820683
C           10.57553499852063        3.42070239253084        0.50699067892882
C            9.69502714377700        2.41181208883915        0.45350492221414
C           10.43783678966155        1.19699393209274        0.15709171295461
N           11.73341498870294        1.44227435321086        0.03377171885744
N           14.52572708045043        1.43759287095237        0.12040133513686
C           13.31528571973775       -4.92800545288341       -0.25876199321411
C           13.21102716324918       -5.55873854636547       -1.50339885431169
C           13.24932275324270       -6.94797569317568       -1.58726349964704
C           13.38899146598114       -7.71411256800996       -0.43254033693787
C           13.49030269522216       -7.09066095791808        0.80875261911755
C           13.45356202990282       -5.70198394979100        0.89791756556413
H            8.73965118245672       -0.13017368602314       -0.00754919468192
H            8.77348289787497       -2.73656978318524       -0.33813710326456
H           10.60523430120177       -4.54169078264520       -0.42922674620458
H           16.02615267506895       -4.47836740047825        0.23964243825014
H           17.84276916759057       -2.64974780744326        0.34986702275635
H           17.50276562460024        2.57133021847188       -0.86807406978576
H           15.55301798426222        4.45519094848245       -0.79242899529611
H           11.86569570986449        5.37952450408689       -1.45799434900111
H           11.93120699578229        7.83390632833694       -1.19440800228604
H           13.17278498398698        8.85198614048316        0.69228729958464
H           14.35334735831801        7.40655246315634        2.32158772324486
H           14.29171061654128        4.94999099901528        2.07605427674998
H           10.33174109182217        4.45359028774854        0.71996837501814
H            8.63290513950548        2.49961820169086        0.61414326286905
H           13.10354426520252       -4.96752094571312       -2.40802512209349
H           13.17079725503568       -7.43425070326780       -2.55461965639163
H           13.41873201669470       -8.79669455275033       -0.49988488054129
H           13.59920337528613       -7.68774541008532        1.70861833236017
H           13.53191216806403       -5.22189295932289        1.86877358434320
Co          28.37269920403812       -0.03662953915710        0.00270170388174
C           31.71546678629873        0.08708184851598        0.00071093359872
C           31.04383256613697        1.26352933146424       -0.07902419710889
C           31.70163130136793        2.55652676770653       -0.17282939852689
C           30.74782685642976        3.49117789036420       -0.17993147225650
C           29.45658588826930        2.81084818232904       -0.09057900861241
N           29.64932470123025        1.41600724734338       -0.03235762603862
C           28.25115510635899        3.45083278280796       -0.01581193697633
C           26.99268955564942        2.76227152048115        0.10238132255482
C           25.70231768302635        3.41162315239749        0.31351305326606
C           24.76027908452447        2.45896205476405        0.33187680804158
N           26.85775423081004        1.45546762565036       -0.00387767966721
C           25.50371297883042        1.23317998630167        0.12928564369657
C           25.07999774249994       -0.02119354495758       -0.00274249000250
C           25.66698238841214       -1.25860278497439       -0.22996728526410
C           25.06977187413315       -2.40184951607143       -0.68710081849570
C           26.08434825276992       -3.38666722275978       -0.68763184275958
C           27.23200713926322       -2.79989498625761       -0.22101473781290
C           28.48248337672025       -3.50984111790257       -0.01165325547413
C           28.46945502783474       -4.99596857244173        0.07866769571170
C           29.13461354462962       -5.78245346876015       -0.87341124508373
C           29.09524732484857       -7.17235414843757       -0.78967111953406
C           28.39623525250711       -7.79115737834982        0.24373793081266
C           27.73347031452286       -7.01838225281559        1.19406763438358
C           27.76719028450279       -5.62865950118391        1.11287182684384
C           29.66100930981423       -2.84531349719785        0.10732698017064
C           30.96343618653735       -3.43990432832045        0.35797257252685
C           31.84394264740603       -2.42964594412902        0.34834693861528
C           31.10113429170047       -1.20309456130663        0.10496089601561
N           29.80554825285734       -1.44278766340421       -0.02888981925020
N           27.01304200722020       -1.44181678574932        0.05783816961482
C           28.22369288753779        4.93418159870463       -0.04454130118337
C           28.32794581000369        5.61836212947858       -1.26061645383081
C           28.28964929397243        7.00992947460543       -1.28407859159663
C           28.14998067368612        7.72520290786354       -0.09717706651361
C           28.04866862655692        7.04843990642316        1.11587391978421
C           28.08541063291771        5.65720182990741        1.14465560163486
H           32.79932051620040        0.12995994544882       -0.00189173697307
H           32.76548925416217        2.74825365257339       -0.21899520434978
H           30.93373713590317        4.55562841004638       -0.23161767446605
H           25.51282825838177        4.46333896938017        0.43387818448902
H           23.69619468779880        2.63171249611734        0.46458134845569
H           24.03613415324867       -2.53169639630702       -0.97895474893200
H           25.98596070433020       -4.41699968400581       -0.98513976473229
H           29.67327663481202       -5.31155740936460       -1.69021398761662
H           29.60776556979491       -7.77506943262262       -1.53344964017435
H           28.36618680877532       -8.87411321107799        0.30725872927746
H           27.18562391210028       -7.50078965744875        1.99778545212016
H           27.24726046384738       -5.03588405734146        1.85915246985062
H           31.20722917530401       -4.48106690535724        0.52590195780762
H           32.90606538678517       -2.52434438273453        0.50502145204513
H           28.43542888068492        5.06698118136971       -2.19006044079257
H           28.36817575115065        7.53774984174473       -2.22940707752296
H           28.12024021148591        8.80968826071574       -0.11745047954886
H           27.93976765535494        7.60588711662857        2.04081736797578
H           28.00705914418829        5.13540654938258        2.09374911591559
C           21.35580076555665        0.00077917084892        0.00863655201896
C           20.18173599967001       -0.01213569069695        0.00046414906058
C           18.90898518793571        0.00195807048732       -0.01132224912766
C           17.67935772257712        0.02910780877654       -0.00493458252563
C           22.62917932364931       -0.01297001743647        0.01440037441590
C           23.85870132504920       -0.01942385985483       -0.00777793523676
118
 energy: -200.724540387590 gnorm: 0.321125476572 xtb: 6.5.1 (b24c23e)
Co          13.16736245777398        0.01883849118863        0.00553612664748
C            9.82562940308341       -0.07158649246052       -0.00013555728902
C           10.50050323335531       -1.25564669642587       -0.13466703897113
C            9.84165867056513       -2.53556963767375       -0.28347594111149
C           10.80281393706734       -3.47520947843172       -0.33166752469954
C           12.08005402857140       -2.79662504707843       -0.21471669117415
N           11.87540136476768       -1.42371202041591       -0.09731205592315
C           13.29013618110234       -3.45474594602861       -0.16466135791742
C           14.51771273486447       -2.80175410292815       -0.01463472180618
C           15.80632847876678       -3.44188416688475        0.15911481631620
C           16.74146825454826       -2.46584814628569        0.22446975650217
N           14.64440233106232       -1.47259554809078       -0.04371737722244
C           15.98222392566679       -1.25168604829348        0.08392442006953
C           16.42287886875760        0.04258693692595       -0.00314401337444
C           15.81102327685199        1.28228420878092       -0.17505338326723
C           16.44657463805350        2.45619289942302       -0.57773286354035
C           15.46509173087925        3.42792799599589       -0.53159914234746
C           14.28506342011059        2.81709021953075       -0.09611901098999
C           13.06477539702252        3.50280592243641        0.14018310547786
C           13.07981668623314        4.98516204782025        0.28860606943752
C           12.40682526391667        5.81244521595257       -0.61745613502179
C           12.44510868084420        7.19380657540537       -0.47360460090210
C           13.14252085706325        7.76794260248802        0.58142872649654
C           13.80300508314948        6.95550576894002        1.49391254418498
C           13.77509493069587        5.57460877631681        1.34886997212195
C           11.87902439943978        2.82582931863144        0.23569364042909