193
 energy: -358.877405103491 gnorm: 0.701535717939 xtb: 6.5.1 (b24c23e)
Zn          34.54398100000000        0.01576600000000       -0.00085500000000
C           31.12595600000000       -0.09124900000000        0.08836600000000
C           31.79124800000000       -0.19284200000000        1.24249900000000
C           31.14338600000000       -0.33537100000000        2.54108300000000
C           32.08551100000000       -0.35638600000000        3.46552700000000
C           33.38854900000000       -0.22613600000000        2.79970400000000
N           33.20907000000000       -0.12747300000000        1.38663600000000
C           34.57770600000000       -0.15520600000000        3.43082900000000
C           35.86919099999999        0.00446400000000        2.71324600000000
C           37.15591700000000        0.22128600000000        3.38575200000000
C           38.09040300000000        0.27890000000000        2.45897800000000
N           36.01172700000000       -0.07406300000000        1.42544800000000
C           37.40885100000000        0.09179100000000        1.18385000000000
C           38.00517800000000        0.01132000000000       -0.01706500000000
C           37.24743900000000       -0.19873100000000       -1.27177900000000
C           37.79054600000000       -0.61133800000000       -2.41024000000000
C           36.74674900000000       -0.59962300000000       -3.41582100000000
C           35.63457600000000       -0.17650000000000       -2.82641900000000
C           34.34658000000000        0.04649300000000       -3.53258600000000
C           34.36436599999999        0.18243500000000       -5.00957600000000
C           33.72122300000000       -0.76458000000000       -5.82057500000000
C           33.75668300000000       -0.64216000000000       -7.21238500000000
C           34.44300100000000        0.42645600000000       -7.81688700000000
C           34.48405199999999        0.56050100000000       -9.28972400000000
O           35.16805000000000        1.62062100000000       -9.87931400000000
O           33.90092800000000       -0.28226300000000      -10.02430900000000
C           35.09414600000000        1.36728400000000       -7.00035000000000
C           35.05716400000000        1.24401900000000       -5.60854400000000
C           33.18006100000000        0.12974300000000       -2.86445200000000
C           31.86442700000000        0.38197000000000       -3.45008500000000
C           31.00298400000000        0.33276900000000       -2.45269100000000
C           31.75916200000000        0.06290500000000       -1.23108400000000
N           33.02914300000000       -0.05678800000000       -1.45865800000000
N           35.86022699999999        0.09545400000000       -1.44182300000000
C           34.61745500000000       -0.22688400000000        4.90666500000000
C           34.55323199999999       -1.46785800000000        5.55371800000000
C           34.59254800000000       -1.53632900000000        6.94923500000000
C           34.69791500000000       -0.36263600000000        7.71799500000000
C           34.74045500000000       -0.42940600000000        9.19533800000000
O           34.84363999999999        0.73766100000000        9.94804200000000
O           34.68387899999999       -1.54174800000000        9.78636800000000
C           34.76275900000000        0.87913800000000        7.06159700000000
C           34.72272300000000        0.94577900000000        5.66597800000000
H           30.04270900000000       -0.10987400000000        0.11654300000000
H           30.07994600000000       -0.40360100000000        2.73130100000000
H           31.90140200000000       -0.44318500000000        4.52860400000000
H           37.33091199999999        0.31413500000000        4.44942800000000
H           39.14674300000000        0.42411500000000        2.64191500000000
H           38.82395500000000       -0.88643400000000       -2.57310700000000
H           36.86359999999999       -0.86549600000000       -4.45846100000000
H           33.19545200000000       -1.59957900000000       -5.37375800000000
H           33.24938100000000       -1.38564800000000       -7.81436500000000
H           35.20229300000000        1.72178100000000      -10.88671200000000
H           35.63357100000000        2.19903700000000       -7.43559600000000
H           35.56625699999999        1.97832000000000       -4.99613600000000
H           31.61743800000000        0.57597400000000       -4.48552500000000
H           29.93370400000000        0.47588100000000       -2.53698500000000
H           34.47254500000000       -2.38091200000000        4.97656500000000
H           34.54082900000000       -2.50743200000000        7.42543700000000
H           34.87356400000000        0.70320300000000       10.96006200000000
H           34.84456100000000        1.79995200000000        7.62517200000000
H           34.77403999999999        1.91044500000000        5.17598800000000
Zn          64.31299199999999        0.01760600000000       -0.03265300000000
C           67.73101699999999       -0.07840700000000       -0.13361900000000
C           67.06572500000000       -0.04623800000000       -1.29176800000000
C           67.71358700000000       -0.03807500000000       -2.59812500000000
C           66.77146200000000        0.04764900000000       -3.51882600000000
C           65.46842300000000        0.10025300000000       -2.84242500000000
N           65.64790200000000        0.03531500000000       -1.42740600000000
C           64.27926700000000        0.24348700000000       -3.46116100000000
C           62.98778200000000        0.31934600000000       -2.72995300000000
C           61.70105600000000        0.61226900000000       -3.37297100000000
C           60.76657000000000        0.56263100000000       -2.44573600000000
N           62.84524500000000        0.09284500000000       -1.45980000000000
C           61.44812200000000        0.22973300000000       -1.20068900000000
C           60.85179500000000        0.01132000000000       -0.01706500000000
C           61.60953399999999       -0.34201200000000        1.20505900000000
C           61.06642699999999       -0.88314500000000        2.28834800000000
C           62.11022400000000       -0.98746400000000        3.28857100000000
C           63.22239700000000       -0.49919800000000        2.75189200000000
C           64.51039299999999       -0.35912200000000        3.47906200000000
C           64.49260700000001       -0.39440100000000        4.96187500000000
C           65.13575000000000       -1.42861500000000        5.65826200000000
C           65.10029000000000       -1.46750400000000        7.05490500000000
C           64.41397200000000       -0.47572300000000        7.77859800000000
C           64.37292100000001       -0.51240700000000        9.25706700000000
O           63.68892300000000        0.47265500000000        9.96496900000000
O           64.95604500000000       -1.43425500000000        9.88957200000000
C           63.76282700000000        0.55298600000000        7.07599700000000
C           63.79980900000000        0.59103400000000        5.67926100000000
C           65.67691200000000       -0.19938300000000        2.82498500000000
C           66.99254600000000       -0.01636900000000        3.43579600000000
C           67.85398900000000        0.04976900000000        2.43938200000000
C           67.09781099999999       -0.07742900000000        1.19480500000000
N           65.82783000000001       -0.22256600000000        1.40705900000000
N           62.99674499999999       -0.06939800000000        1.40789200000000
C           64.23951800000000        0.34246700000000       -4.93541700000000
C           64.30374100000000       -0.81561600000000       -5.72125200000000
C           64.26442500000000       -0.72271100000000       -7.11535700000000
C           64.15905800000000        0.53180000000000       -7.74364800000000
C           64.11651800000000        0.63583000000000       -9.21883600000000
O           64.01333300000000        1.88190700000000       -9.83194200000000
O           64.17309400000001       -0.40093900000000       -9.93418800000000
C           64.09421399999999        1.68960100000000       -6.94843800000000
C           64.13424999999999        1.59486600000000       -5.55444300000000
H           68.81426299999998       -0.09365900000000       -0.16375600000000
H           68.77702699999999       -0.08391500000000       -2.79494100000000
H           66.95557100000001        0.08401500000000       -4.58482000000000
H           61.52606099999999        0.82715300000000       -4.41884400000000
H           59.71023000000000        0.72797300000000       -2.61070700000000
H           60.03301800000000       -1.17518700000000        2.41840600000000
H           61.99337300000000       -1.37179100000000        4.29359800000000
H           65.66152099999999       -2.20652100000000        5.11814100000000
H           65.60759200000000       -2.27544800000000        7.56713700000000
H           63.65467999999999        0.45697500000000       10.97731200000000
H           63.22340200000000        1.32900200000000        7.60425000000000
H           63.29071600000000        1.39105500000000        5.15561100000000
H           67.23953500000000        0.05694300000000        4.48669900000000
H           68.92326899999999        0.18220600000000        2.53961600000000
H           64.38442800000000       -1.78913100000000       -5.25323500000000
H           64.31614399999999       -1.63242400000000       -7.70036100000000
H           63.98340900000000        1.96437600000000      -10.84118500000000
H           64.01241200000000        2.66925900000000       -7.40207300000000
H           64.08293300000000        2.49659600000000       -4.95648500000000
C           41.71134900000000        0.02375700000000       -0.01462300000000
C           40.45907800000000        0.00457600000000       -0.01897100000000
C           43.02501700000000        0.02299100000000       -0.01269000000000
C           44.52815000000000        0.00457600000000       -0.01897100000000
C           55.67109899999999        0.02375700000000       -0.01462300000000
C           54.41882900000000        0.00457600000000       -0.01897100000000
C           56.98476700000000        0.02299100000000       -0.01269000000000
C           58.48790099999999        0.00457600000000       -0.01897100000000
Zn          49.41544400000000        0.00660400000000       -0.03291000000000
C           45.96299100000000       -0.02361200000000        0.03717700000000
C           46.61808700000000       -1.19930200000000        0.02858700000000
C           45.97745299999999       -2.51148100000000       -0.07867800000000
C           46.91462899999999       -3.43687600000000       -0.02168700000000
C           48.21159700000000       -2.77213100000000        0.13442600000000
N           48.03325999999999       -1.35363400000000        0.15768700000000
C           49.39665599999999       -3.40764000000000        0.25343600000000
C           50.69106000000000       -2.68993400000000        0.37308900000000
C           51.95529900000000       -3.33806400000000        0.74886500000000
C           52.90795799999999       -2.42769300000000        0.69540200000000
N           50.86136200000000       -1.43256300000000        0.10478900000000
C           52.25746600000000       -1.18893100000000        0.28716300000000
C           52.87514300000000       -0.02361200000000        0.03717700000000
C           52.12545699999999        1.18955500000000       -0.34906600000000
C           52.65861499999999        2.24167600000000       -0.95752100000000
C           51.62535999999999        3.25764900000000       -1.04004800000000
C           50.53353700000000        2.75603200000000       -0.47282200000000
C           49.27993300000000        3.51383200000000       -0.24653100000000
C           49.33736800000000        4.99552400000000       -0.25402000000000
C           50.11285200000000        5.67346700000000        0.69564100000000
C           50.18758999999999        7.06857600000000        0.67751600000000
C           49.49484600000000        7.80851400000000       -0.29841900000000
C           49.56667900000000        9.28545800000000       -0.31908900000000
O           48.93428500000000       10.00718300000000       -1.33177500000000
O           50.19298800000000        9.90489000000000        0.58342600000000
C           48.72985600000000        7.12383700000000       -1.25754900000000
C           48.65353900000000        5.72866700000000       -1.23610300000000
C           48.11075900000000        2.88519500000000       -0.02124600000000
C           46.83662300000000        3.52756600000000        0.28401700000000
C           45.94724599999999        2.55836500000000        0.36270500000000
C           46.64274999999999        1.29026900000000        0.11405100000000
N           47.90767600000000        1.47442600000000       -0.10739100000000
N           50.75928000000000        1.42564800000000       -0.01029100000000
C           49.43816799999999       -4.88805100000000        0.25942900000000
C           48.92570599999999       -5.61061900000000        1.34836800000000
C           48.98584899999999       -7.00735500000000        1.35812700000000
C           49.56450500000000       -7.70351600000000        0.28034600000000
C           49.63408399999999       -9.18172400000000        0.28671600000000
O           50.20460900000000       -9.86178300000000       -0.78619700000000
O           49.17912700000000       -9.83909700000000        1.26144900000000
C           50.08099500000000       -6.97364600000000       -0.80586600000000
C           50.02007700000000       -5.57725600000000       -0.81438400000000
H           44.92277500000000       -2.71978300000000       -0.19534700000000
H           46.72908300000000       -4.50102100000000       -0.08867000000000
H           52.10187600000000       -4.37470100000000        1.02283300000000
H           53.95468000000000       -2.59721700000000        0.91635900000000
H           53.68066400000000        2.34303300000000       -1.29765600000000
H           51.73950700000000        4.25349900000000       -1.44906800000000
H           50.65538399999999        5.12061200000000        1.45275800000000
H           50.79023699999999        7.56688700000000        1.42463500000000
H           48.97600200000000       11.01872200000000       -1.35407100000000
H           48.18791700000000        7.66503300000000       -2.02506300000000
H           48.06563000000000        5.21796100000000       -1.98928700000000
H           46.63490500000000        4.58090700000000        0.42991800000000
H           44.89713600000000        2.69963900000000        0.58198000000000
H           48.48149399999999       -5.09121700000000        2.18982600000000
H           48.58191899999999       -7.54161000000000        2.21005200000000
H           50.25659100000000      -10.87391400000000       -0.79173800000000
H           50.53440499999999       -7.48027300000000       -1.64958800000000
H           50.42485400000000       -5.03171900000000       -1.65908500000000
193
 energy: -359.123405678740 gnorm: 0.424054667732 xtb: 6.5.1 (b24c23e)
Zn          34.54163589401017        0.01242395313870       -0.00064830676177
C           31.12635634140014       -0.08917410785204        0.07059831254551
C           31.79632028357052       -0.19217237934392        1.24351710139080
C           31.14319897788064       -0.33469522675229        2.53461574337719
C           32.09580011705744       -0.35598971011773        3.46801056861538
C           33.38780329216284       -0.22621664834243        2.79424292593141
N           33.18782244344317       -0.13160273853099        1.40846204123689
C           34.59538411944560       -0.15319462721075        3.42619951856562
C           35.86629561760949        0.00421062533971        2.73076661479464
C           37.14474482319453        0.21931294121000        3.39790389484703
C           38.09200661988545        0.27861274971413        2.45408485461938
N           36.03172494591306       -0.06943444372455        1.42499912319207
C           37.42793367196815        0.09213915822734        1.17932505367829
C           38.01516319577872        0.00495704049058       -0.03325693989112
C           37.25371955131779       -0.18804144115547       -1.25993508254431
C           37.79672710505722       -0.61589007766059       -2.43572226166904
C           36.77191461819609       -0.60163538997868       -3.41861214530654
C           35.62884545392583       -0.16553241099759       -2.81334844470324
C           34.36175888060463        0.04602611860674       -3.52254006752320
C           34.37410766729202        0.17814293551244       -5.00712645917888
C           33.72398583196573       -0.75815612715875       -5.82479980465057
C           33.76062742479392       -0.63504609422585       -7.21279295814150
C           34.44716258782336        0.43301364592921       -7.82192781985225
C           34.47920491492456        0.55359753272679       -9.30773440569418
O           35.16176509268684        1.61058174619136       -9.86409151817138
O           33.91220263413199       -0.26537308411025      -10.01758366707368
C           35.09290938888039        1.36639433305068       -6.99815141228738
C           35.05772137199296        1.24030284495639       -5.61211206008089
C           33.17864613970825        0.13025495395707       -2.86333901081505
C           31.87078087045212        0.38038544234825       -3.44937062965011
C           30.99149313394089        0.33147934717953       -2.44183582518537
C           31.73901271722461        0.06163246521658       -1.22354775503846
N           33.02584631685993       -0.04941249127727       -1.47073612089782
N           35.87415698077599        0.09187605918004       -1.44605412864111
C           34.62357135663753       -0.22622056756160        4.90974263905839
C           34.55346024719386       -1.46253258529682        5.56131625519429
C           34.59265552944387       -1.52879387383597        6.95226557136596
C           34.69858912785370       -0.35568220697619        7.72444006474701
C           34.74039949618958       -0.44022224124289        9.21216660322563
O           34.84240444601974        0.72810413927506        9.93147429228172
O           34.68505775638204       -1.52075378700137        9.78256691338339
C           34.76253282241934        0.87821992745101        7.06065634798836
C           34.72438128336951        0.94246308599281        5.67104200803338
H           30.04315273164600       -0.10851027009738        0.10937391471089
H           30.08030756248455       -0.40309899939153        2.72165095274508
H           31.91369259368473       -0.44289171144039        4.52980607740964
H           37.32119987915357        0.31322425853030        4.45622710382483
H           39.14712334028376        0.42350882959332        2.63129516962647
H           38.82698402382626       -0.88955367206086       -2.58208961297367
H           36.87101751325341       -0.86825261213840       -4.45886246352856
H           33.19793929257715       -1.59596994071984       -5.37576730301605
H           33.25246073622603       -1.38098368352980       -7.81666548227397
H           35.18984746187500        1.70139534052040      -10.85531364492047
H           35.63252544679665        2.19792671304053       -7.43657321228837
H           35.56514306949690        1.97616688922035       -4.99701972437593
H           31.62852020615034        0.57456734552317       -4.48495804587944
H           29.92774420899995        0.47511770530052       -2.52902024880827
H           34.47314317148536       -2.37685498333489        4.97975029021428
H           34.54130786625151       -2.50256798510341        7.42926814055185
H           34.87120275576513        0.68385656439971       10.92581323673251
H           34.84429882237237        1.79858453931986        7.62667684407758
H           34.77399693341440        1.90759581798041        5.17700540483829
Zn          64.31530328966245        0.01435924242261       -0.03320586716120
C           67.73059721150649       -0.07839676953451       -0.11577019792154
C           67.06067986580580       -0.04545595290620       -1.29269969924971
C           67.71376869050017       -0.03814907764225       -2.59162759034356
C           66.76114372914520        0.04832649281343       -3.52122436076252
C           65.46913865632725        0.09953878810461       -2.83690299020768
N           65.66908510493124        0.03371774451883       -1.44956706660806
C           64.26133206725051        0.24494029694199       -3.45612664059349
C           62.99047680059169        0.32105863613646       -2.74701051512773
C           61.71214680467862        0.61167926646944       -3.38520504436722
C           60.76464353380189        0.56186487172145       -2.44114180682129
N           62.82413881265826        0.09737676355837       -1.45803343025344
C           61.42729870447729        0.22950896273348       -1.19595799384809
C           60.83655962096358        0.00340896437193       -0.00155701671410
C           61.60161902227092       -0.32980290200225        1.19448761049522
C           61.05989253278671       -0.89069398596568        2.31329620191977
C           62.08501288866197       -0.98977800447430        3.29099765362506
C           63.22790944377883       -0.48674560198936        2.73987020006894
C           64.49513337060377       -0.35839143828194        3.46892830534807
C           64.48282316107763       -0.39838141424932        4.95894062119746
C           65.13298544458146       -1.42271699921748        5.66317146892699
C           65.09633105385136       -1.46046823348875        7.05613112243980
C           64.40980575158576       -0.46978378667720        7.78433592907743
C           64.37774239642020       -0.52133449247020        9.27424845975391
O           63.69525638089059        0.46440029911479        9.94865683833263
O           64.94479097818446       -1.41669757181907        9.88477334964395
C           63.76407639642189        0.55235031760204        7.07371571191339
C           63.79923592623347        0.58693749893744        5.68235593074005
C           65.67827715403929       -0.19872211655621        2.82391973588813
C           66.98617892921447       -0.01787551064272        3.43489863166572
C           67.86545855652369        0.04973997280857        2.42846936189417
C           67.11792479636156       -0.07782192128293        1.18720127220841
N           65.83110703080850       -0.21664258774715        1.41985822819922
N           62.98192442153631       -0.07351251709821        1.41110269792010
C           64.23332458636702        0.34348912768876       -4.93834165772522
C           64.30350417522267       -0.80944147982720       -5.72815397440152
C           64.26431958591353       -0.71486250816168       -7.11748813613122
C           64.15838483460091        0.53945485898740       -7.74923348890312
C           64.11658565908763        0.62704144387119       -9.23683417682735
O           64.01456017768412        1.87047081434099       -9.81657353927552
O           64.17189470918632       -0.38053679382089       -9.92796224491391
C           64.09444670704482        1.68857278352576       -6.94760288689676
C           64.13259008448202        1.59215683495513       -5.55982865327941
H           68.81380250109267       -0.09313281115850       -0.15648881483582
H           68.77665328329201       -0.08452678244990       -2.78530297618905
H           66.94325646431760        0.08444651782720       -4.58595994092238
H           61.53581458589506        0.82702249555807       -4.42565838529466
H           59.70960963677067        0.72618588009352       -2.60031572786449
H           60.02976857294952       -1.17938673650202        2.42713593244664
H           61.98600108481082       -1.37454937193099        4.29360100494083
H           65.65903067731472       -2.20317520613886        5.12054197218074
H           65.60450686138253       -2.27107077817066        7.56995466621346
H           63.66709495396864        0.44036476443082       10.94376969554103
H           63.22445052760823        1.32777763636539        7.60508733602105
H           63.29182981170955        1.38882660803679        5.15623806697152
H           67.22844172492056        0.05560799342994        4.48595998893683
H           68.92920650997593        0.18236776267428        2.53161531769727
H           64.38382864457179       -1.78473754540168       -5.25592418450404
H           64.31566944632134       -1.62714386378910       -7.70359727675334
H           63.98577904371271        1.94122635504662      -10.80939286911990
H           64.01267538169400        2.66806664277240       -7.40371839126923
H           64.08297479097580        2.49388708033593       -4.95781954394626
C           41.72253237434633        0.02307795577951       -0.01631492752974
C           40.45983286508473        0.00585712056315       -0.02025688629865
C           43.09513999703236        0.02072855415847       -0.01114882984338
C           44.44838128094770        0.00636117644100       -0.01443611318448
C           55.68968294655497        0.02369399529221       -0.01256866380922
C           54.42455832816454        0.01126959809418       -0.01641844551731
C           57.06207997288617        0.02175150461319       -0.01182965121500
C           58.40934863913798        0.00527752680044       -0.01918939742957
Zn          49.41157297939768        0.00558562032894       -0.02960458112699
C           45.90833057868760       -0.00534435089888        0.03783963531280
C           46.60845245526603       -1.20102074955885        0.02730056224648
C           45.97435031806730       -2.50308926968781       -0.07879200729057
C           46.92511719651090       -3.43881876023462       -0.02041492164265
C           48.20819005530392       -2.76550909738436        0.13419331307865
N           48.00211065827837       -1.37097011775638        0.15084387115992
C           49.41230738586198       -3.40373526985671        0.25587660584791
C           50.68773421021538       -2.70954074107816        0.37199095551465
C           51.94192477669877       -3.35155000613585        0.74769342002847
C           52.90667830440731       -2.42341780742835        0.69300377176079
N           50.88135461427900       -1.43089142544310        0.11562007173202
C           52.26879515635405       -1.19023605759196        0.28755354002213
C           52.90574383507649       -0.01007823007472        0.02414009530455
C           52.12766837110059        1.18324249392996       -0.33670888010056
C           52.66306490189133        2.26707775647796       -0.96382547824247
C           51.64948736942468        3.26111724448901       -1.04276460069860
C           50.52836320223653        2.74679929547824       -0.45980103259750
C           49.29389609176197        3.50324102598021       -0.24581365752248
C           49.34566856977226        4.99217824218142       -0.25943402396652
C           50.11183649291432        5.67945422967999        0.68999023535519
C           50.18257844462865        7.07057520079684        0.67152316976475
C           49.49151895819611        7.81447593812668       -0.30490796157862
C           49.57260510486278        9.30242010517210       -0.31050833416199
O           48.93957739835573        9.99052498936526       -1.32242756841976
O           50.18167357730174        9.90115892059503        0.56529777435909
C           48.72996127495820        7.12091437672983       -1.25620479601786
C           48.65524759402759        5.73061665463235       -1.23212006659733
C           48.10752609291154        2.88259850953113       -0.02120239088364
C           46.84258437595827        3.52595256256197        0.28199942666977
C           45.93318582860670        2.54748410181862        0.36324583905504
C           46.61203820077933        1.28547937350534        0.11200725414327
N           47.89719523735398        1.48356199266300       -0.10048895091649
N           50.77115482799421        1.42786501456438       -0.02022007818758
C           49.44432830146474       -4.88956929664450        0.26208581554132
C           48.92711441448625       -5.61756337882523        1.34238368726032
C           48.98892972039387       -7.00944147742317        1.35077282258230
C           49.56804068376609       -7.70954202136435        0.27378648339412
C           49.63047668419045       -9.19861999735130        0.29576169210305
O           50.19932086887481       -9.84599980554736       -0.77723650766960
O           49.18803582300221       -9.83410280428206        1.24294874399510
C           50.08020138555200       -6.97224978318559       -0.80479230745350
C           50.02069320661188       -5.58186489089365       -0.81003264651803
H           44.92055882702696       -2.70841131183107       -0.19472589779585
H           46.74144921542199       -4.50187723072496       -0.08703798401217
H           52.09165876885744       -4.38190276458307        1.02263725299225
H           53.95264207999172       -2.58742260955648        0.91377676165165
H           53.68190165970394        2.35170749181013       -1.30283609536029
H           51.74657370085608        4.25358362038098       -1.45304227829161
H           50.65361824703319        5.12358503659578        1.44972548653408
H           50.78723147447668        7.57057005212327        1.42103624401899
H           48.98604420608515       10.98487894011089       -1.33593845407872
H           48.18941547780094        7.66511384110186       -2.02340997174898
H           48.06739686292021        5.21793223387867       -1.98672968705303
H           46.64601165824820        4.57934469733667        0.42781327833717
H           44.88928390611127        2.69046800517983        0.58199595142423
H           48.48381704755848       -5.09412848809028        2.18568785330337