228
 energy: -387.559065976883 gnorm: 0.637211766364 xtb: 6.5.1 (b24c23e)
Co          46.45168899999999        0.07351100000000        0.01996700000000
C           43.11512600000000       -0.08255900000000        0.00955500000000
C           43.77923500000000       -1.23476300000000       -0.11827400000000
C           43.12955600000000       -2.53150400000000       -0.26866400000000
C           44.07138500000000       -3.45521700000000       -0.31605600000000
C           45.37621500000000       -2.79079600000000       -0.19658800000000
N           45.19792800000000       -1.37921700000000       -0.07615200000000
C           46.56641800000000       -3.42252200000000       -0.15140800000000
C           47.86005100000000       -2.70648500000000       -0.00094000000000
C           49.15059400000000       -3.38128300000000        0.18397100000000
C           50.08531000000000       -2.45480700000000        0.24176500000000
N           48.00066900000000       -1.41743000000000       -0.06090800000000
C           49.40017400000000       -1.17739400000000        0.08636400000000
C           49.99474800000000        0.02503500000000        0.01567500000000
C           49.23373400000000        1.28261800000000       -0.16323500000000
C           49.77070200000000        2.42768900000000       -0.56543900000000
C           48.72696600000000        3.43244000000000       -0.52338100000000
C           47.62094900000000        2.83599400000000       -0.09408800000000
C           46.33584000000000        3.53800800000000        0.15711500000000
C           46.35495999999999        5.01280900000000        0.31507600000000
C           45.69569700000000        5.83876100000000       -0.61117200000000
C           45.73439900000000        7.22887400000000       -0.46607500000000
C           46.43595500000000        7.80283400000000        0.59790100000000
C           47.10199800000000        6.98760000000000        1.51739900000000
C           47.06520299999999        5.59694700000000        1.37647600000000
C           45.17079300000000        2.86800500000000        0.24581800000000
C           43.85843300000000        3.44894200000000        0.52460100000000
C           42.99684100000000        2.45187000000000        0.47211700000000
C           43.74982300000000        1.23492100000000        0.17383400000000
N           45.01797300000000        1.46502900000000        0.04040100000000
N           47.85070800000000        1.44736800000000        0.15293600000000
C           46.60519899999999       -4.89743200000000       -0.24331600000000
C           46.50420999999999       -5.52958300000000       -1.49221100000000
C           46.54230300000000       -6.92483200000000       -1.57680400000000
C           46.68221900000000       -7.69336500000000       -0.41720400000000
C           46.78406699999999       -7.06778300000000        0.82904700000000
C           46.74568600000000       -5.67283200000000        0.91789900000000
H           42.03172400000000       -0.11115900000000        0.00656600000000
H           42.06523000000000       -2.72122100000000       -0.32318800000000
H           43.88595200000000       -4.51708300000000       -0.41384100000000
H           49.32801300000000       -4.44613300000000        0.25607600000000
H           51.14398000000000       -2.63929100000000        0.36661700000000
H           50.80004099999999        2.59537100000000       -0.85260000000000
H           48.83981700000000        4.47908200000000       -0.77480000000000
H           45.15683800000000        5.40545000000000       -1.44485300000000
H           45.22312700000000        7.86131300000000       -1.18022800000000
H           46.46585499999999        8.87910300000000        0.70819500000000
H           47.64779900000000        7.43336100000000        2.33887100000000
H           47.58629300000000        4.97505400000000        2.09409500000000
H           43.61358900000000        4.48115100000000        0.73753900000000
H           41.92956500000000        2.53333800000000        0.63099200000000
H           46.39613599999999       -4.94203400000000       -2.39567100000000
H           46.46373899999999       -7.41029500000000       -2.54092600000000
H           46.71185699999999       -8.77318400000000       -0.48434200000000
H           46.89266400000000       -7.66379200000000        1.72590400000000
H           46.82532300000000       -5.19654700000000        1.88740900000000
Co          80.48595299999998       -0.02358300000000        0.01785800000000
C           83.82251599999998        0.13279200000000        0.01423200000000
C           83.15840699999998        1.28946000000000       -0.06344500000000
C           83.80808500000001        2.59150800000000       -0.15738600000000
C           82.86625599999999        3.51640800000000       -0.16462400000000
C           81.56142699999999        2.84742600000000       -0.07411900000000
N           81.73971299999998        1.43194900000000       -0.01509000000000
C           80.37122400000000        3.47659500000000       -0.00155100000000
C           79.07759100000000        2.75469900000000        0.11768300000000
C           77.78704799999998        3.42083100000000        0.33172100000000
C           76.85233199999999        2.49272000000000        0.34923100000000
N           78.93697299999999        1.46946400000000        0.00179800000000
C           77.53746800000000        1.22325900000000        0.13850900000000
C           76.94289400000000        0.02503500000000        0.01567500000000
C           77.70390800000000       -1.22359400000000       -0.21767300000000
C           77.16694000000000       -2.35012100000000       -0.66921900000000
C           78.21067499999998       -3.35575000000000       -0.67082900000000
C           79.31669300000000       -2.77850800000000       -0.21604100000000
C           80.60180099999999       -3.49076700000000        0.00444200000000
C           80.58268099999998       -4.97103600000000        0.09821500000000
C           81.24194400000000       -5.75599000000000       -0.86302400000000
C           81.20324200000000       -7.15109200000000       -0.77842400000000
C           80.50168700000000       -7.77071000000000        0.25962500000000
C           79.83564400000000       -6.99617100000000        1.21365500000000
C           79.87243799999999       -5.60071100000000        1.13324900000000
C           81.76684899999999       -2.82524800000000        0.12215400000000
C           83.07920799999999       -3.41774200000000        0.37544900000000
C           83.94080099999999       -2.41933100000000        0.36630900000000
C           83.18781900000000       -1.19057800000000        0.12114900000000
N           81.91966800000000       -1.41467500000000       -0.02214900000000
N           79.08693400000000       -1.40191800000000        0.09104600000000
C           80.33244299999998        4.95410400000000       -0.02932900000000
C           80.43343100000000        5.63988900000000       -1.24959700000000
C           80.39533900000001        7.03749500000000       -1.27352500000000
C           80.25542299999999        7.75495100000000       -0.08164800000000
C           80.15357500000000        7.07584400000000        1.13626300000000
C           80.19195600000000        5.67835100000000        1.16446000000000
H           84.90591700000000        0.16149500000000        0.01248800000000
H           84.87241099999999        2.78341400000000       -0.20362000000000
H           83.05168900000000        4.58151900000000       -0.21620800000000
H           77.60962800000000        4.48154700000000        0.44999600000000
H           75.79366199999998        2.67160900000000        0.48197600000000
H           76.13759999999999       -2.50517600000000       -0.96339000000000
H           78.09782500000000       -4.39048800000000       -0.96745700000000
H           81.78080399999999       -5.28688700000000       -1.67710300000000
H           81.71451399999999       -7.75192500000000       -1.51936600000000
H           80.47178700000001       -8.85075300000000        0.32308200000000
H           79.28984199999999       -7.47718200000000        2.01499600000000
H           79.35134900000000       -5.01056400000000        1.87719500000000
H           83.32405299999999       -4.45822400000000        0.54336500000000
H           85.00807700000000       -2.50762100000000        0.52149700000000
H           80.54150600000000        5.09212400000000       -2.17771700000000
H           80.47390300000001        7.56436400000000       -2.21565900000000
H           80.22578500000000        8.83666600000000       -0.10183500000000
H           80.04497700000000        7.63234800000000        2.05815400000000
H           80.11231900000000        5.16041700000000        2.11237400000000
C           52.09998100000000        0.02503500000000        0.01567500000000
C           53.32189899999999        0.02503500000000        0.01567500000000
C           62.85786199999999        0.02503500000000        0.01567500000000
C           64.07978000000000        0.02503500000000        0.01567500000000
C           73.61574299999999        0.02503500000000        0.01567500000000
C           74.83766000000000        0.02503500000000        0.01567500000000
Co          58.02189199999999        0.07010300000000        0.02474100000000
C           54.64768400000000       -0.02685500000000       -0.01681500000000
C           55.30650499999999       -1.19992700000000       -0.02162400000000
C           54.66105700000000       -2.51461600000000       -0.00970200000000
C           55.60080300000000       -3.43729900000000       -0.01798200000000
C           56.90446700000000       -2.76738100000000       -0.03937100000000
N           56.72853099999999       -1.34886000000000       -0.03845100000000
C           58.09099799999999       -3.40662900000000       -0.05781500000000
C           59.40011999999999       -2.71053800000000       -0.08349400000000
C           60.68508199999999       -3.41413000000000       -0.18152300000000
C           61.63972800000000       -2.50993500000000       -0.17581800000000
N           59.56103800000000       -1.42379000000000       -0.01952800000000
C           60.97358900000000       -1.21656600000000       -0.07202800000000
C           61.59565500000000       -0.02685500000000       -0.01681500000000
C           60.87132699999999        1.26150100000000        0.09731700000000
C           61.47207299999999        2.43391700000000        0.25172900000000
C           60.44150400000000        3.44674500000000        0.29132400000000
C           59.27209999999999        2.83315900000000        0.15155100000000
C           57.96528900000000        3.54256200000000        0.11548800000000
C           57.97445200000000        5.02473100000000        0.13813600000000
C           57.60681800000000        5.71723200000000        1.30319200000000
C           57.63086799999999        7.11503800000000        1.32665000000000
C           58.02758400000000        7.82714400000000        0.19054400000000
C           58.39798600000000        7.14278300000000       -0.97101500000000
C           58.37378499999999        5.74467500000000       -0.99900300000000
C           56.78318900000000        2.89750400000000        0.06289000000000
C           55.47452999999999        3.54121200000000       -0.00240900000000
C           54.58884200000000        2.56984400000000       -0.04364200000000
C           55.31713900000000        1.29697700000000       -0.00665500000000
N           56.60190399999999        1.48001300000000        0.05429400000000
N           59.45109800000000        1.42020000000000        0.02711300000000
C           58.11277900000000       -4.88527400000000       -0.06392200000000
C           57.97211500000000       -5.58879500000000       -1.27031700000000
C           58.00977500000000       -6.98648600000000       -1.27464400000000
C           58.18893199999999       -7.68614600000000       -0.07752800000000
C           58.32933899999999       -6.98891900000000        1.12646900000000
C           58.29390200000000       -5.59131700000000        1.13475100000000
H           53.60077999999999       -2.72864900000000        0.00664700000000
H           55.41449600000000       -4.50362000000000       -0.00720500000000
H           60.84158700000000       -4.48211800000000       -0.25185600000000
H           62.69887099999999       -2.72010000000000       -0.23860900000000
H           62.53483200000000        2.61782800000000        0.32936900000000
H           60.60726000000000        4.50877500000000        0.40552200000000
H           57.30648800000000        5.17445000000000        2.19047000000000
H           57.34524700000000        7.64682200000000        2.22585900000000
H           58.04806700000000        8.90879900000000        0.21206900000000
H           58.70741599999999        7.69514300000000       -1.84889000000000
H           58.66746400000000        5.22327500000000       -1.90184700000000
H           55.24728300000000        4.59977000000000       -0.02041000000000
H           53.51870499999999        2.71518000000000       -0.09834200000000
H           57.83684999999999       -5.05472900000000       -2.20251000000000
H           57.90258599999999       -7.52752700000000       -2.20585200000000
H           58.21972200000000       -8.76761800000000       -0.08240200000000
H           58.46807900000000       -7.53239100000000        2.05237900000000
H           58.40732999999999       -5.05873200000000        2.07070200000000
Co          68.77977199999998        0.07010300000000        0.02474100000000
C           65.40556500000000       -0.02685500000000       -0.01681500000000
C           66.06438600000000       -1.19992700000000       -0.02162400000000
C           65.41893800000000       -2.51461600000000       -0.00970200000000
C           66.35868400000000       -3.43729900000000       -0.01798200000000
C           67.66234700000000       -2.76738100000000       -0.03937100000000
N           67.48641200000000       -1.34886000000000       -0.03845100000000
C           68.84887799999998       -3.40662900000000       -0.05781500000000
C           70.15800100000000       -2.71053800000000       -0.08349400000000
C           71.44296299999999       -3.41413000000000       -0.18152300000000
C           72.39760900000000       -2.50993500000000       -0.17581800000000
N           70.31891800000000       -1.42379000000000       -0.01952800000000
C           71.73147000000000       -1.21656600000000       -0.07202800000000
C           72.35353600000001       -0.02685500000000       -0.01681500000000
C           71.62920699999999        1.26150100000000        0.09731700000000
C           72.22995400000001        2.43391700000000        0.25172900000000
C           71.19938499999999        3.44674500000000        0.29132400000000
C           70.02998100000001        2.83315900000000        0.15155100000000
C           68.72317000000000        3.54256200000000        0.11548800000000
C           68.73233300000000        5.02473100000000        0.13813600000000
C           68.36469900000000        5.71723200000000        1.30319200000000
C           68.38874799999999        7.11503800000000        1.32665000000000
C           68.78546400000000        7.82714400000000        0.19054400000000
C           69.15586699999999        7.14278300000000       -0.97101500000000
C           69.13166600000000        5.74467500000000       -0.99900300000000
C           67.54107000000000        2.89750400000000        0.06289000000000
C           66.23241100000000        3.54121200000000       -0.00240900000000
C           65.34672300000000        2.56984400000000       -0.04364200000000
C           66.07501999999999        1.29697700000000       -0.00665500000000
N           67.35978500000000        1.48001300000000        0.05429400000000
N           70.20897800000000        1.42020000000000        0.02711300000000
C           68.87065900000000       -4.88527400000000       -0.06392200000000
C           68.72999500000000       -5.58879500000000       -1.27031700000000
C           68.76765500000000       -6.98648600000000       -1.27464400000000
C           68.94681199999998       -7.68614600000000       -0.07752800000000
C           69.08721999999999       -6.98891900000000        1.12646900000000
C           69.05178300000000       -5.59131700000000        1.13475100000000
H           64.35866100000000       -2.72864900000000        0.00664700000000
H           66.17237700000000       -4.50362000000000       -0.00720500000000
H           71.59946700000000       -4.48211800000000       -0.25185600000000
H           73.45675199999998       -2.72010000000000       -0.23860900000000
H           73.29271199999999        2.61782800000000        0.32936900000000
H           71.36514099999999        4.50877500000000        0.40552200000000
H           68.06436900000000        5.17445000000000        2.19047000000000
H           68.10312799999998        7.64682200000000        2.22585900000000
H           68.80594799999999        8.90879900000000        0.21206900000000
H           69.46529699999999        7.69514300000000       -1.84889000000000
H           69.42534499999999        5.22327500000000       -1.90184700000000
H           66.00516399999999        4.59977000000000       -0.02041000000000
H           64.27658599999999        2.71518000000000       -0.09834200000000
H           68.59473100000000       -5.05472900000000       -2.20251000000000
H           68.66046699999998       -7.52752700000000       -2.20585200000000
H           68.97760300000000       -8.76761800000000       -0.08240200000000
H           69.22595899999999       -7.53239100000000        2.05237900000000
H           69.16521099999999       -5.05873200000000        2.07070200000000
228
 energy: -387.760125419405 gnorm: 0.360659061505 xtb: 6.5.1 (b24c23e)
Co          46.46521837829508        0.05962420673368        0.01976806818831
C           43.11571348664407       -0.06386848506544        0.01234271725564
C           43.78715024801039       -1.23187385291379       -0.11791725614365
C           43.13211935128706       -2.52197007450497       -0.26810211074613
C           44.08553175253234       -3.45406509958787       -0.31570083324706
C           45.37953553039659       -2.77845358030838       -0.19680904193802
N           45.18479489299568       -1.38547469471641       -0.07785198546672
C           46.58517774987642       -3.41523493728115       -0.14975275120924
C           47.85344257313247       -2.71554692038446       -0.00157725247732
C           49.13549251417928       -3.39058924759884        0.18087256776623
C           50.08395987951540       -2.44780862449883        0.24094070159149
N           48.01389776890120       -1.40278412694389       -0.05087549607340
C           49.41897990446667       -1.16770424117064        0.08605048804987
C           50.02904236043882        0.04262616724356        0.00970250591176
C           49.24062817252439        1.26613541410276       -0.15109712672295
C           49.77561497171346        2.45031721828339       -0.56682845353161
C           48.74923785663204        3.43322250448679       -0.52386992050848
C           47.61242790562367        2.81894593205223       -0.08357776835890
C           46.35269890510784        3.52655909854998        0.15672168895568
C           46.36549842426384        5.00980491413912        0.30989646424858
C           45.69815173302435        5.83820305976901       -0.60539675078119
C           45.73687523441436        7.22375480824088       -0.46155519186562
C           46.43581904126993        7.79757229474700        0.59737811974695
C           47.09837457979585        6.98417231596175        1.51310707384037
C           47.06544820198431        5.59892445619506        1.37111430726758
C           45.17429621598306        2.86137897251571        0.24636485032646
C           43.86889471115689        3.44435843252875        0.52223410962533
C           42.98826759079735        2.43708856029132        0.46886793568888
C           43.73363075418990        1.22305248815460        0.17271174077822
N           45.02628650740469        1.46413194223941        0.05119108656170
N           47.85218263837655        1.43818039546099        0.13493942095938
C           46.61185721437742       -4.89942702917648       -0.24301980305573
C           46.50451928547032       -5.53252701620953       -1.48699447787163
C           46.54227128780101       -6.92224427210448       -1.57128955915925
C           46.68212933605902       -7.68865020501612       -0.41690277051816
C           46.78332823594128       -7.06498407411846        0.82418088315989
C           46.74731101827854       -5.67581152174172        0.91309176584665
H           42.03233677400745       -0.10283062196412        0.00834333309326
H           42.06739564070962       -2.70935021085336       -0.32239856842136
H           43.90187142788209       -4.51609692319894       -0.41352873285153
H           49.31481570852189       -4.45164676496655        0.25478995915891
H           51.14234396757674       -2.62769889603705        0.36605203454806
H           50.80208365369479        2.60493753030411       -0.85465675077504
H           48.84688115026433        4.47810877561388       -0.77679135077952
H           45.15929905663592        5.40437221895939       -1.44174280491744
H           45.22462827433566        7.85814970155100       -1.17825571770480
H           46.46580954053541        8.87649370581097        0.70779834439233
H           47.64595431152470        7.43120721985308        2.33669660019696
H           47.58472870487747        4.97527248290115        2.09134245667500
H           43.62793277196342        4.47815365307136        0.73501166617005
H           41.92519631527722        2.52271673137707        0.62932448751631
H           46.39684172461882       -4.94233872534942       -2.39166999853075
H           46.46388923147601       -7.40847838443558       -2.53831872121696
H           46.71181910016348       -8.77090917432229       -0.48424725603177
H           46.89214022099546       -7.66201449211484        1.72368482068629
H           46.82509072330564       -5.19675558573136        1.88388061933884
Co          80.47248487033733       -0.00971091470407        0.01828578984924
C           83.82192756408101        0.11397808136191        0.01620085497787
C           83.15048755055867        1.28656618272141       -0.06323186199558
C           83.80552929606208        2.58197170297559       -0.15723935293046
C           82.85211764234714        3.51524850368417       -0.16431826920750
C           81.55811651913822        2.83508104093454       -0.07489490145801
N           81.75294297546520        1.43838481383635       -0.01647729021973
C           80.35241023199004        3.46924878380573       -0.00021445816829
C           79.08430373953645        2.76383276233293        0.11742675928570
C           77.80206855013067        3.43021674253932        0.32904485069451
C           76.85366913186975        2.48576190056706        0.34812399866168
N           78.92403990158854        1.45440271595847        0.01112192322278
C           77.51905437383587        1.21354724989994        0.13778487478777
C           76.91051616848111        0.00711210900584        0.00907363418062
C           77.69733500381032       -1.20811355321339       -0.20496571105889
C           77.16203648328468       -2.37298113947241       -0.67167608294649
C           78.18833575796832       -3.35661917273646       -0.67137307659115
C           79.32521255823457       -2.76198832979612       -0.20483908899256
C           80.58493244992302       -3.47930098713011        0.00452563177316
C           80.57213273211266       -4.96780937946274        0.09315903842947
C           81.23948599594237       -5.75568336409407       -0.85723317257475
C           81.20076830303921       -7.14617422802182       -0.77368518689980
C           80.50182274327695       -7.76543063263198        0.25933122619495
C           79.83926805918624       -6.99256051448311        1.20951598825357
C           79.87219540394376       -5.60245280070011        1.12780491362395
C           81.76332853058655       -2.81862221194451        0.12300214266320
C           83.06874415685914       -3.41304705758488        0.37328290741586
C           83.94936721203624       -2.40441546352135        0.36370061156438
C           83.20401558513898       -1.17863577955305        0.12053508152556
N           81.91132796259951       -1.41423616581390       -0.01131809989626
N           79.08552536627876       -1.39214035620081        0.07361473335790
C           80.32576525608900        4.95610352199633       -0.02894324595950
C           80.43312316555514        5.64260453763336       -1.24425889298475
C           80.39537550701726        7.03467115541881       -1.26812706840225
C           80.25551586478274        7.75022507149745       -0.08155088960305
C           80.15431837336148        7.07326182864957        1.13128164633190
C           80.19033476313950        5.68154132071859        1.15979258054650
H           84.90530410823280        0.15308728720740        0.01391098518632
H           84.87025112840007        2.77152494255836       -0.20334741335236
H           83.03576733125271        4.58052476450214       -0.21593817021110
H           77.62277173607046        4.48705917437818        0.44894259413337
H           75.79529970381276        2.66000054997782        0.48087367596041
H           76.13552483405950       -2.51474354466445       -0.96588457804290
H           78.09073386691952       -4.38949261294458       -0.96941626520993
H           81.77834285815291       -5.28594576078599       -1.67394957838925
H           81.71301363457398       -7.74885053412981       -1.51725787798832
H           80.47183199710224       -8.84812909002756        0.32279887343759
H           79.29168697720202       -7.47493553052466        2.01291689108630
H           79.35291366395533       -5.01066321128229        1.87443504796403
H           83.30970537632835       -4.45511242904925        0.54096840054444
H           85.01244038175388       -2.49693768311816        0.52028960281701
H           80.54079597231785        5.09225300085882       -2.17370757836179
H           80.47375032596364        7.56243344514108       -2.21313275863836
H           80.22581983786365        8.83438655129524       -0.10183953113214
H           80.04549752452556        7.63066708459592        2.05585906295930
H           80.11254686560336        5.16077866870415        2.10885940963534
C           52.01347380829510        0.02258771044691        0.01377292555448
C           53.24599886678711        0.02863397051010        0.01605753066643
C           62.87624459916523        0.03792990784473        0.01316100129598
C           64.08445992730745        0.03084788090037        0.01744522559902
C           73.70336999731811        0.03774402160660        0.01376880058383
C           74.93557749168787        0.02477644048889        0.01487643170297
Co          58.03185856125583        0.05848760612520        0.02184424389604
C           54.63861033396844       -0.00773731873789       -0.01464569223407
C           55.31456431058130       -1.19992646578808       -0.02090334514503
C           54.66212841458054       -2.50212922795568       -0.00968633608978
C           55.61457926163649       -3.43586281044631       -0.01802644887179
C           56.90585205654430       -2.75584191182185       -0.03882308201532
N           56.71536293465176       -1.35414802155482       -0.03641584416631
C           58.10599617150695       -3.40382312585542       -0.05865995491989
C           59.38586718426992       -2.73154513869350       -0.08344662981111
C           60.66287136442105       -3.42843792361928       -0.18088450196171
C           61.62617213170100       -2.49948365052603       -0.17546151084543
N           59.55493633574077       -1.42289475592199       -0.02371631570850
C           60.94283502889175       -1.22666105229904       -0.07306643338396
C           61.54646703440477       -0.00975018344041       -0.01170335606686
C           60.83523873237074        1.25689809810257        0.09447572913667
C           61.46548078492951        2.45493153462385        0.25309535918841
C           60.45842461640907        3.45115453276559        0.29096028868731
C           59.25449658589903        2.82164879885706        0.14801836038391
C           57.98035461331994        3.53191066862871        0.11602938204213
C           57.98447188618270        5.02296571542255        0.14013368745455
C           57.60812926716479        5.71827381019479        1.29753675613550
C           57.63221774805042        7.11114293974958        1.32101439371659
C           58.02724360130702        7.82193044889015        0.19037263795762
C           58.39593887824015        7.13912162395639       -0.96605331957064
C           58.37517783912082        5.74638452171200       -0.99344957952656
C           56.78669038726742        2.89145580151072        0.06322852254418
C           55.48574295971921        3.53661890607385       -0.00193485848134
C           54.57985400818205        2.55355678322382       -0.04358154717095
C           55.30413850236057        1.28976654674606       -0.00698508483348
N           56.60842950552913        1.48166811902417        0.05117843896845
N           59.43603465679487        1.42490883386870        0.03182829636562
C           58.11824826342525       -4.88918884425567       -0.06468537072830
C           57.97266891105681       -5.59223992213073       -1.26562432043861
C           58.01008110130780       -6.98407336801815       -1.26950316010748
C           58.18867899076532       -7.68150224226271       -0.07741442612354
C           58.32844025283271       -6.98661851356817        1.12146556235185