      -----------------------------------------------------------      
     |                   =====================                   |     
     |                           x T B                           |     
     |                   =====================                   |     
     |                         S. Grimme                         |     
     |          Mulliken Center for Theoretical Chemistry        |     
     |                    University of Bonn                     |     
      -----------------------------------------------------------      

   * xtb version 6.5.1 (b24c23e) compiled by 'conda@728c89f4b128' on 2022-07-12

   xtb is free software: you can redistribute it and/or modify it under
   the terms of the GNU Lesser General Public License as published by
   the Free Software Foundation, either version 3 of the License, or
   (at your option) any later version.
   
   xtb is distributed in the hope that it will be useful,
   but WITHOUT ANY WARRANTY; without even the implied warranty of
   MERCHANTABILITY or FITNESS FOR A PARTICULAR PURPOSE.  See the
   GNU Lesser General Public License for more details.
   
   Cite this work as:
   * C. Bannwarth, E. Caldeweyher, S. Ehlert, A. Hansen, P. Pracht,
     J. Seibert, S. Spicher, S. Grimme, WIREs Comput. Mol. Sci., 2020, 11,
     e01493. DOI: 10.1002/wcms.1493
   
   for GFN2-xTB:
   * C. Bannwarth, S. Ehlert and S. Grimme., J. Chem. Theory Comput., 2019,
     15, 1652-1671. DOI: 10.1021/acs.jctc.8b01176
   for GFN1-xTB:
   * S. Grimme, C. Bannwarth, P. Shushkov, J. Chem. Theory Comput., 2017,
     13, 1989-2009. DOI: 10.1021/acs.jctc.7b00118
   for GFN0-xTB:
   * P. Pracht, E. Caldeweyher, S. Ehlert, S. Grimme, ChemRxiv, 2019, preprint.
     DOI: 10.26434/chemrxiv.8326202.v1
   for GFN-FF:
   * S. Spicher and S. Grimme, Angew. Chem. Int. Ed., 2020, 59, 15665-15673.
     DOI: 10.1002/anie.202004239
   
   for ALPB and GBSA implicit solvation:
   * S. Ehlert, M. Stahn, S. Spicher, S. Grimme, J. Chem. Theory Comput.,
     2021, 17, 4250-4261. DOI: 10.1021/acs.jctc.1c00471
   
   for DFT-D4:
   * E. Caldeweyher, C. Bannwarth and S. Grimme, J. Chem. Phys., 2017,
     147, 034112. DOI: 10.1063/1.4993215
   * E. Caldeweyher, S. Ehlert, A. Hansen, H. Neugebauer, S. Spicher,
     C. Bannwarth and S. Grimme, J. Chem. Phys., 2019, 150, 154122.
     DOI: 10.1063/1.5090222
   * E. Caldeweyher, J.-M. Mewes, S. Ehlert and S. Grimme, Phys. Chem. Chem. Phys.
     2020, 22, 8499-8512. DOI: 10.1039/D0CP00502A
   
   for sTDA-xTB:
   * S. Grimme and C. Bannwarth, J. Chem. Phys., 2016, 145, 054103.
     DOI: 10.1063/1.4959605
   
   in the mass-spec context:
   * V. Asgeirsson, C. Bauer and S. Grimme, Chem. Sci., 2017, 8, 4879.
     DOI: 10.1039/c7sc00601b
   * J. Koopman and S. Grimme, ACS Omega 2019, 4, 12, 15120-15133.
     DOI: 10.1021/acsomega.9b02011
   
   for metadynamics refer to:
   * S. Grimme, J. Chem. Theory Comput., 2019, 155, 2847-2862
     DOI: 10.1021/acs.jctc.9b00143
   
   for SPH calculations refer to:
   * S. Spicher and S. Grimme, J. Chem. Theory Comput., 2021, 17, 1701-1714
     DOI: 10.1021/acs.jctc.0c01306
   
   with help from (in alphabetical order)
   P. Atkinson, C. Bannwarth, F. Bohle, G. Brandenburg, E. Caldeweyher
   M. Checinski, S. Dohm, S. Ehlert, S. Ehrlich, I. Gerasimov, C. Hölzer
   A. Katbashev, J. Koopman, C. Lavigne, S. Lehtola, F. März, M. Müller,
   F. Musil, H. Neugebauer, J. Pisarek, C. Plett, P. Pracht, F. Pultar,
   J. Seibert, P. Shushkov, S. Spicher, M. Stahn, M. Steiner, T. Strunk,
   J. Stückrath, T. Rose, and J. Unsleber
   
 * started run on 2022/07/29 at 22:28:36.058     

           -------------------------------------------------
          |                Calculation Setup                |
           -------------------------------------------------

          program call               : xtb Fe_Ph3OH_C8_2.xyz --gfn 1 --opt -T 48
          hostname                   : cx3-15-15.cx3.hpc.ic.ac.uk
          coordinate file            : Fe_Ph3OH_C8_2.xyz
          omp threads                :                     1

   ID    Z sym.   atoms
    1   26 Fe     1, 63
    2    6 C      2-6, 8-11, 13, 15, 17-20, 22-27, 29-32, 34, 36, 38-42,
                  64-68, 70-73, 75, 77, 79-82, 84-89, 91-94, 96, 98, 100-104,
                  125-132
    3    7 N      7, 21, 28, 43, 69, 83, 90, 105
    4    8 O      12, 14, 16, 33, 35, 37, 74, 76, 78, 95, 97, 99
    5    1 H      44-62, 106-124
########################################################################
[WARNING] Please study the warnings concerning your input carefully
-1- prog_main_parseArguments: Unknown option '-T' provided
########################################################################

           -------------------------------------------------
          |                 G F N 1 - x T B                 |
           -------------------------------------------------

        Reference                      10.1021/acs.jctc.7b00118
      * Hamiltonian:
        H0-scaling (s, p, d)           1.850000    2.250000    2.000000
        zeta-weighting                 0.000000
      * Dispersion:
        s8                             2.400000
        a1                             0.630000
        a2                             5.000000
        s9                             0.000000
      * Repulsion:
        kExp                           1.500000
        rExp                           1.000000
      * Coulomb:
        alpha                          2.000000
        third order                    atomic
        anisotropic                    false
      * Halogen bond correction:
        rad-scale                      1.300000
        damping                        0.440000


          ...................................................
          :                      SETUP                      :
          :.................................................:
          :  # basis functions                 464          :
          :  # atomic orbitals                 462          :
          :  # shells                          266          :
          :  # electrons                       454          :
          :  # halogen bonds                     0          :
          :  max. iterations                   250          :
          :  Hamiltonian                  GFN1-xTB          :
          :  restarted?                      false          :
          :  GBSA solvation                  false          :
          :  PC potential                    false          :
          :  electronic temp.          300.0000000     K    :
          :  accuracy                    1.0000000          :
          :  -> integral cutoff          0.2500000E+02      :
          :  -> integral neglect         0.1000000E-07      :
          :  -> SCF convergence          0.1000000E-05 Eh   :
          :  -> wf. convergence          0.2000000E-04 e    :
          :  Broyden damping             0.4000000          :
          ...................................................

 iter      E             dE          RMSdq      gap      omega  full diag
   1   -240.3072753 -0.240307E+03  0.119E+01    0.01       0.0  T
   2   -127.2737736  0.113034E+03  0.141E+01    0.04       1.0  T
   3   -209.4446934 -0.821709E+02  0.936E+00    0.06       1.0  T
   4     26.6196329  0.236064E+03  0.127E+01    0.01       1.0  T
   5    984.0025025  0.957383E+03  0.196E+01    0.18       1.0  T
   6    153.2097732 -0.830793E+03  0.133E+01    0.01       1.0  T
   7   -235.4005301 -0.388610E+03  0.581E+00    0.10       1.0  T
   8   -247.3105409 -0.119100E+02  0.477E+00    0.01       1.0  T
   9   -260.4908827 -0.131803E+02  0.282E+00    0.05       1.0  T
  10   -227.4210387  0.330698E+02  0.699E+00    0.24       1.0  T
  11   -251.3303877 -0.239093E+02  0.437E+00    0.05       1.0  T
  12   -255.6093703 -0.427898E+01  0.388E+00    0.00       1.0  T
  13   -256.0128938 -0.403523E+00  0.385E+00    0.02       1.0  T
  14   -257.4539077 -0.144101E+01  0.361E+00    0.03       1.0  T
  15   -259.5319320 -0.207802E+01  0.304E+00    0.01       1.0  T
  16   -255.0592704  0.447266E+01  0.381E+00    0.02       1.0  T
  17   -257.4870662 -0.242780E+01  0.324E+00    0.03       1.0  T
  18   -254.4608481  0.302622E+01  0.415E+00    0.01       1.0  T
  19   -258.8794073 -0.441856E+01  0.289E+00    0.01       1.0  T
  20   -259.3817046 -0.502297E+00  0.280E+00    0.04       1.0  T
  21   -253.7364177  0.564529E+01  0.406E+00    0.02       1.0  T
  22   -256.5122794 -0.277586E+01  0.347E+00    0.01       1.0  T
  23   -260.4876727 -0.397539E+01  0.240E+00    0.04       1.0  T
  24   -260.6789150 -0.191242E+00  0.231E+00    0.09       1.0  T
  25   -262.4936355 -0.181472E+01  0.157E+00    0.09       1.0  T
  26   -263.6133865 -0.111975E+01  0.719E-01    0.03       1.0  T
  27   -255.8326161  0.778077E+01  0.346E+00    0.04       1.0  T
  28   -259.4428705 -0.361025E+01  0.262E+00    0.05       1.0  T
  29   -261.1872502 -0.174438E+01  0.202E+00    0.14       1.0  T
  30   -261.1923004 -0.505014E-02  0.202E+00    0.13       1.0  T
  31   -263.3183714 -0.212607E+01  0.934E-01    0.05       1.0  T
  32   -261.1994795  0.211889E+01  0.196E+00    0.12       1.0  T
  33   -262.8168541 -0.161737E+01  0.124E+00    0.06       1.0  T
  34   -263.7271125 -0.910258E+00  0.497E-01    0.02       1.0  T
  35   -262.6889082  0.103820E+01  0.126E+00    0.09       1.0  T
  36   -261.8621801  0.826728E+00  0.172E+00    0.13       1.0  T
  37   -261.6321151  0.230065E+00  0.181E+00    0.14       1.0  T
  38   -262.5292760 -0.897161E+00  0.141E+00    0.08       1.0  T
  39   -262.9774462 -0.448170E+00  0.116E+00    0.06       1.0  T
  40   -262.2284101  0.749036E+00  0.156E+00    0.10       1.0  T
  41   -263.3528220 -0.112441E+01  0.895E-01    0.03       1.0  T
  42   -263.7181422 -0.365320E+00  0.493E-01    0.01       1.0  T
  43   -263.6875664  0.305758E-01  0.526E-01    0.02       1.0  T
  44   -263.8127753 -0.125209E+00  0.287E-01    0.01       1.0  T
  45   -263.8421460 -0.293708E-01  0.180E-01    0.01       1.0  T
  46   -263.8518931 -0.974702E-02  0.116E-01    0.00       1.0  T
  47   -263.8431822  0.871089E-02  0.141E-01    0.01       1.0  T
  48   -263.8565753 -0.133931E-01  0.579E-02    0.00       1.0  T
  49   -263.8186318  0.379435E-01  0.233E-01    0.02       1.0  T
  50   -263.8570594 -0.384276E-01  0.473E-02    0.00       1.0  T
  51   -263.8447436  0.123158E-01  0.136E-01    0.01       1.0  T
  52   -263.8572812 -0.125376E-01  0.362E-02    0.01       1.0  T
  53   -263.8526080  0.467324E-02  0.880E-02    0.01       1.0  T
  54   -263.8578505 -0.524252E-02  0.232E-02    0.00       1.0  T
  55   -263.8570498  0.800643E-03  0.400E-02    0.01       1.0  T
  56   -263.8579972 -0.947401E-03  0.150E-02    0.00       1.0  T
  57   -263.8578807  0.116503E-03  0.200E-02    0.01       1.0  T
  58   -263.8578870 -0.623203E-05  0.185E-02    0.00       1.0  T
  59   -263.8580281 -0.141145E-03  0.120E-02    0.00       1.0  T
  60   -263.8579983  0.298559E-04  0.131E-02    0.00       1.0  T
  61   -263.8574467  0.551580E-03  0.311E-02    0.01       1.0  T
  62   -263.8577761 -0.329466E-03  0.222E-02    0.01       1.0  T
  63   -263.8580030 -0.226840E-03  0.128E-02    0.01       1.0  T
  64   -263.8580713 -0.683577E-04  0.793E-03    0.01       1.1  T
  65   -263.8580791 -0.775209E-05  0.710E-03    0.01       1.2  T
  66   -263.8581013 -0.222519E-04  0.415E-03    0.00       2.1  T
  67   -263.8581121 -0.107232E-04  0.102E-03    0.00       8.6  T
  68   -263.8581110  0.108159E-05  0.160E-03    0.00       5.4  T
  69   -263.8581125 -0.147567E-05  0.733E-04    0.00      11.9  T
  70   -263.8581115  0.932051E-06  0.137E-03    0.00       6.3  T
  71   -263.8581125 -0.938843E-06  0.734E-04    0.00      11.9  T
  72   -263.8581128 -0.302327E-06  0.317E-04    0.00      27.5  T
  73   -263.8581118  0.983613E-06  0.123E-03    0.00       7.1  T
  74   -263.8581128 -0.968283E-06  0.344E-04    0.00      25.3  T
  75   -263.8581128 -0.723554E-07  0.105E-04    0.00      82.9  T
  76   -263.8581128 -0.740761E-08  0.255E-05    0.00     341.0  T

   *** convergence criteria satisfied after 76 iterations ***

         #    Occupation            Energy/Eh            Energy/eV
      -------------------------------------------------------------
         1        2.0000           -0.7980656             -21.7165
       ...           ...                  ...                  ...
       221        1.9998           -0.3793527             -10.3227
       222        1.9995           -0.3782696             -10.2932
       223        1.9985           -0.3773122             -10.2672
       224        1.9968           -0.3765828             -10.2473
       225        1.9964           -0.3764449             -10.2436
       226        1.5151           -0.3715367             -10.1100
       227        1.2316           -0.3709027             -10.0928 (HOMO)
       228        1.1461           -0.3707339             -10.0882 (LUMO)
       229        0.1163           -0.3678083             -10.0086
       230        0.0000           -0.3573776              -9.7247
       231                         -0.3273674              -8.9081
       232                         -0.3264409              -8.8829
       ...                                ...                  ...
       462                          2.4776905              67.4214
      -------------------------------------------------------------
                  HL-Gap            0.0001687 Eh            0.0046 eV
             Fermi-level           -0.3704544 Eh          -10.0806 eV

 SCC (total)                   0 d,  0 h,  0 min,  4.594 sec
 SCC setup                      ...        0 min,  0.006 sec (  0.120%)
 Dispersion                     ...        0 min,  0.004 sec (  0.083%)
 classical contributions        ...        0 min,  0.001 sec (  0.031%)
 integral evaluation            ...        0 min,  0.132 sec (  2.863%)
 iterations                     ...        0 min,  4.129 sec ( 89.888%)
 molecular gradient             ...        0 min,  0.310 sec (  6.745%)
 printout                       ...        0 min,  0.012 sec (  0.268%)

         :::::::::::::::::::::::::::::::::::::::::::::::::::::
         ::                     SUMMARY                     ::
         :::::::::::::::::::::::::::::::::::::::::::::::::::::
         :: total energy            -259.953207851140 Eh    ::
         :: gradient norm              1.304621168268 Eh/a0 ::
         :: HOMO-LUMO gap              0.004591717237 eV    ::
         ::.................................................::
         :: SCC energy              -263.858112837566 Eh    ::
         :: -> electrostatic           0.587353222891 Eh    ::
         :: repulsion energy           4.018758969654 Eh    ::
         :: dispersion energy         -0.113853983228 Eh    ::
         :: halogen bond corr.         0.000000000000 Eh    ::
         :: add. restraining           0.000000000000 Eh    ::
         :: total charge               0.000000000005 e     ::
         :::::::::::::::::::::::::::::::::::::::::::::::::::::

      ----------------------------------------------------------- 
     |                   =====================                   |
     |                        A N C O P T                        |
     |                   =====================                   |
     |               Approximate Normal Coordinate               |
     |                Rational Function Optimizer                |
      ----------------------------------------------------------- 

          ...................................................
          :                      SETUP                      :
          :.................................................:
          :   optimization level            normal          :
          :   max. optcycles                   396          :
          :   ANC micro-cycles                  20          :
          :   degrees of freedom               390          :
          :.................................................:
          :   RF solver                   davidson          :
          :   write xtbopt.log                true          :
          :   linear?                        false          :
          :   energy convergence         0.5000000E-05 Eh   :
          :   grad. convergence          0.1000000E-02 Eh/α :
          :   maximium RF displ.         1.0000000          :
          :   Hlow (freq-cutoff)         0.1000000E-01      :
          :   Hmax (freq-cutoff)         5.0000000          :
          :   S6 in model hess.         20.0000000          :
          ...................................................

generating ANC from model Hessian ...
Using Lindh-Hessian (1995)
 Shifting diagonal of input Hessian by    1.0024374013021656E-002
 Lowest  eigenvalues of input Hessian
    0.010000    0.010009    0.010021    0.000000    0.000000    0.000000
    0.000000    0.000000    0.000000    0.010033    0.010040    0.010125
    0.010135    0.010265    0.010352    0.010376    0.010424    0.010434
 Highest eigenvalues
    2.229754    2.391352    2.733261    3.041779    3.320685    3.613077


........................................................................
.............................. CYCLE    1 ..............................
........................................................................
   1   -263.8581128 -0.263858E+03  0.548E-05    0.00       0.0  T
   2   -263.8579842  0.128666E-03  0.135E-02    0.01       1.0  T
   3   -263.8581126 -0.128421E-03  0.594E-04    0.00      14.7  T
   4   -263.8581121  0.530993E-06  0.113E-03    0.00       7.7  T
   5   -263.8581128 -0.771349E-06  0.979E-05    0.00      88.9  T
   6   -263.8581128  0.187261E-07  0.190E-04    0.00      45.8  T
     SCC iter.                  ...        0 min,  0.339 sec
     gradient                   ...        0 min,  0.309 sec
 * total energy  :  -259.9532078 Eh     change        0.2541572E-07 Eh
   gradient norm :     1.3046205 Eh/α   predicted     0.0000000E+00 (-100.00%)
   displ. norm   :     0.4772003 α      lambda       -0.5525845E+00
   maximum displ.:     0.2741387 α      in ANC's #389, #315, #244, ...

........................................................................
.............................. CYCLE    2 ..............................
........................................................................
   1   -263.8509909 -0.263851E+03  0.317E-01    0.00       0.0  T
   2   -259.6389840  0.421201E+01  0.268E+00    0.01       1.0  T
   3   -260.3655990 -0.726615E+00  0.222E+00    0.08       1.0  T
   4   -259.8245079  0.541091E+00  0.240E+00    0.05       1.0  T
   5   -261.0640830 -0.123958E+01  0.196E+00    0.14       1.0  T
   6   -261.1707390 -0.106656E+00  0.195E+00    0.13       1.0  T
   7   -262.8927140 -0.172197E+01  0.117E+00    0.08       1.0  T
   8   -262.8359620  0.567520E-01  0.123E+00    0.08       1.0  T
   9   -263.4609388 -0.624977E+00  0.780E-01    0.05       1.0  T
  10   -263.2446688  0.216270E+00  0.957E-01    0.06       1.0  T
  11   -263.8069833 -0.562314E+00  0.347E-01    0.02       1.0  T
  12   -263.8768960 -0.699127E-01  0.148E-01    0.01       1.0  T
  13   -263.8906635 -0.137675E-01  0.449E-02    0.00       1.0  T
  14   -263.8912764 -0.612872E-03  0.330E-02    0.00       1.0  T
  15   -263.8916637 -0.387287E-03  0.215E-02    0.00       1.0  T
  16   -263.8904071  0.125659E-02  0.479E-02    0.00       1.0  T
  17   -263.8917465 -0.133941E-02  0.189E-02    0.00       1.0  T
  18   -263.8915308  0.215745E-03  0.262E-02    0.00       1.0  T
  19   -263.8919686 -0.437840E-03  0.749E-03    0.00       1.2  T
  20   -263.8920000 -0.313888E-04  0.396E-03    0.00       2.2  T
  21   -263.8920101 -0.101436E-04  0.542E-04    0.00      16.1  T
  22   -263.8920097  0.463873E-06  0.962E-04    0.00       9.1  T
  23   -263.8920096  0.386095E-07  0.103E-03    0.00       8.4  T
  24   -263.8920104 -0.752214E-06  0.210E-04    0.00      41.4  T
  25   -263.8920104 -0.115066E-07  0.169E-04    0.00      51.4  T
  26   -263.8920104 -0.123433E-07  0.107E-04    0.00      81.7  T
     SCC iter.                  ...        0 min,  1.421 sec
     gradient                   ...        0 min,  0.311 sec
 * total energy  :  -260.2980919 Eh     change       -0.3448841E+00 Eh
   gradient norm :     0.4286107 Eh/α   predicted    -0.3392104E+00 (  -1.65%)
   displ. norm   :     0.4995681 α      lambda       -0.1463381E+00
   maximum displ.:     0.1366622 α      in ANC's #149, #98, #389, ...

........................................................................
.............................. CYCLE    3 ..............................
........................................................................
   1   -263.9655807 -0.263966E+03  0.263E-01    0.05       0.0  T
   2   -259.6777545  0.428783E+01  0.278E+00    0.05       1.0  T
   3   -263.0736174 -0.339586E+01  0.115E+00    0.04       1.0  T
   4   -261.6641635  0.140945E+01  0.182E+00    0.10       1.0  T
   5   -263.7704145 -0.210625E+01  0.573E-01    0.01       1.0  T
   6   -263.9184849 -0.148070E+00  0.342E-01    0.01       1.0  T
   7   -263.3746273  0.543858E+00  0.945E-01    0.05       1.0  T
   8   -263.9907059 -0.616079E+00  0.140E-01    0.01       1.0  T
   9   -263.9802991  0.104068E-01  0.185E-01    0.01       1.0  T
  10   -264.0027272 -0.224281E-01  0.499E-02    0.02       1.0  T
  11   -263.9913580  0.113692E-01  0.134E-01    0.02       1.0  T
  12   -264.0041284 -0.127704E-01  0.158E-02    0.02       1.0  T
  13   -264.0038134  0.314962E-03  0.260E-02    0.02       1.0  T
  14   -264.0033936  0.419856E-03  0.354E-02    0.02       1.0  T
  15   -264.0039083 -0.514719E-03  0.230E-02    0.02       1.0  T
  16   -264.0040934 -0.185162E-03  0.162E-02    0.02       1.0  T
  17   -264.0042601 -0.166689E-03  0.493E-03    0.02       1.8  T
  18   -264.0042731 -0.129928E-04  0.238E-03    0.02       3.7  T
  19   -264.0042765 -0.343209E-05  0.896E-04    0.02       9.7  T
  20   -264.0042770 -0.410136E-06  0.466E-04    0.02      18.7  T
  21   -264.0042771 -0.148819E-06  0.783E-05    0.02     111.2  T
  22   -264.0042771 -0.319028E-08  0.400E-05    0.02     217.5  T
     SCC iter.                  ...        0 min,  1.192 sec
     gradient                   ...        0 min,  0.327 sec
 * total energy  :  -260.3985371 Eh     change       -0.1004452E+00 Eh
   gradient norm :     0.1730043 Eh/α   predicted    -0.9142972E-01 (  -8.98%)
   displ. norm   :     0.6056434 α      lambda       -0.6988480E-01
   maximum displ.:     0.2615513 α      in ANC's #98, #149, #117, ...

........................................................................
.............................. CYCLE    4 ..............................
........................................................................
   1   -264.0578578 -0.264058E+03  0.170E-01    0.07       0.0  T
   2   -260.5973510  0.346051E+01  0.251E+00    0.04       1.0  T
   3   -262.3359240 -0.173857E+01  0.161E+00    0.04       1.0  T
   4   -262.8253113 -0.489387E+00  0.136E+00    0.06       1.0  T
   5   -261.8551185  0.970193E+00  0.176E+00    0.04       1.0  T
   6   -264.0191157 -0.216400E+01  0.289E-01    0.07       1.0  T
   7   -263.9225108  0.966049E-01  0.459E-01    0.04       1.0  T
   8   -264.0654353 -0.142924E+00  0.124E-01    0.04       1.0  T
   9   -263.8364049  0.229030E+00  0.588E-01    0.02       1.0  T
  10   -263.9833976 -0.146993E+00  0.363E-01    0.05       1.0  T
  11   -263.7917352  0.191662E+00  0.634E-01    0.03       1.0  T
  12   -263.7489428  0.427924E-01  0.679E-01    0.03       1.0  T
  13   -263.8178625 -0.689197E-01  0.604E-01    0.03       1.0  T
  14   -263.8550289 -0.371664E-01  0.562E-01    0.04       1.0  T
  15   -263.8840314 -0.290025E-01  0.522E-01    0.04       1.0  T
  16   -264.0384614 -0.154430E+00  0.226E-01    0.05       1.0  T
  17   -264.0672809 -0.288195E-01  0.996E-02    0.06       1.0  T
  18   -264.0731465 -0.586565E-02  0.331E-02    0.06       1.0  T
  19   -264.0737842 -0.637664E-03  0.614E-03    0.06       1.4  T
  20   -264.0737767  0.753131E-05  0.651E-03    0.06       1.3  T
  21   -264.0737572  0.194776E-04  0.831E-03    0.06       1.0  T
  22   -264.0737973 -0.400849E-04  0.356E-03    0.06       2.4  T
  23   -264.0738055 -0.820280E-05  0.934E-04    0.06       9.3  T
  24   -264.0738060 -0.573742E-06  0.183E-04    0.06      47.7  T
  25   -264.0738060  0.117266E-07  0.224E-04    0.06      38.9  T
  26   -264.0738060  0.855556E-08  0.248E-04    0.06      35.1  T
  27   -264.0738060 -0.339330E-07  0.114E-04    0.06      76.6  T
     SCC iter.                  ...        0 min,  1.463 sec
     gradient                   ...        0 min,  0.310 sec
 * total energy  :  -260.4444185 Eh     change       -0.4588141E-01 Eh
   gradient norm :     0.1068315 Eh/α   predicted    -0.4775943E-01 (   4.09%)
   displ. norm   :     0.5780907 α      lambda       -0.3197357E-01
   maximum displ.:     0.2819848 α      in ANC's #98, #81, #117, ...

........................................................................
.............................. CYCLE    5 ..............................
........................................................................
   1   -264.1060639 -0.264106E+03  0.110E-01    0.09       0.0  T
   2   -261.1779837  0.292808E+01  0.232E+00    0.04       1.0  T
   3   -263.9954721 -0.281749E+01  0.422E-01    0.03       1.0  T
   4   -261.8392289  0.215624E+01  0.181E+00    0.01       1.0  T
   5   -264.0995133 -0.226028E+01  0.129E-01    0.06       1.0  T
   6   -263.8264571  0.273056E+00  0.630E-01    0.03       1.0  T
   7   -263.9896547 -0.163198E+00  0.422E-01    0.03       1.0  T
   8   -264.0980341 -0.108379E+00  0.146E-01    0.08       1.0  T
   9   -264.0993572 -0.132300E-02  0.137E-01    0.08       1.0  T
  10   -264.1023674 -0.301028E-02  0.116E-01    0.08       1.0  T
  11   -264.1107095 -0.834211E-02  0.400E-02    0.07       1.0  T
  12   -264.1116540 -0.944429E-03  0.179E-02    0.07       1.0  T
  13   -264.1110270  0.627000E-03  0.346E-02    0.07       1.0  T
  14   -264.1111792 -0.152179E-03  0.312E-02    0.07       1.0  T
  15   -264.1115828 -0.403684E-03  0.200E-02    0.07       1.0  T
  16   -264.1118338 -0.250978E-03  0.716E-03    0.07       1.2  T
  17   -264.1118404 -0.660507E-05  0.619E-03    0.07       1.4  T
  18   -264.1118593 -0.188316E-04  0.262E-03    0.07       3.3  T
  19   -264.1118631 -0.381594E-05  0.680E-04    0.07      12.8  T
  20   -264.1118633 -0.241409E-06  0.135E-04    0.07      64.3  T
  21   -264.1118632  0.669144E-07  0.341E-04    0.07      25.5  T
  22   -264.1118633 -0.713630E-07  0.626E-05    0.07     139.1  T
     SCC iter.                  ...        0 min,  1.194 sec
     gradient                   ...        0 min,  0.313 sec
 * total energy  :  -260.4640173 Eh     change       -0.1959882E-01 Eh
   gradient norm :     0.0756629 Eh/α   predicted    -0.2132944E-01 (   8.83%)
   displ. norm   :     0.5136443 α      lambda       -0.1388152E-01
   maximum displ.:     0.2160355 α      in ANC's #98, #24, #81, ...

........................................................................
.............................. CYCLE    6 ..............................
........................................................................
   1   -264.1103828 -0.264110E+03  0.105E-01    0.09       0.0  T
   2   -261.1316266  0.297876E+01  0.233E+00    0.04       1.0  T
   3   -263.8649534 -0.273333E+01  0.598E-01    0.05       1.0  T
   4   -263.7613160  0.103637E+00  0.707E-01    0.04       1.0  T
   5   -264.0768104 -0.315494E+00  0.246E-01    0.10       1.0  T
   6   -264.1072941 -0.304837E-01  0.116E-01    0.09       1.0  T
   7   -264.1108161 -0.352202E-02  0.103E-01    0.06       1.0  T
   8   -264.1099260  0.890051E-03  0.109E-01    0.06       1.0  T
   9   -264.1050484  0.487764E-02  0.134E-01    0.06       1.0  T
  10   -264.1020027  0.304564E-02  0.142E-01    0.06       1.0  T
  11   -264.1162201 -0.142173E-01  0.826E-03    0.08       1.1  T
  12   -264.1150019  0.121822E-02  0.423E-02    0.07       1.0  T
  13   -264.1159227 -0.920807E-03  0.222E-02    0.08       1.0  T
  14   -264.1161784 -0.255747E-03  0.103E-02    0.08       1.0  T
  15   -264.1162184 -0.399507E-04  0.645E-03    0.07       1.3  T
  16   -264.1162368 -0.184723E-04  0.381E-03    0.07       2.3  T
  17   -264.1162423 -0.550291E-05  0.259E-03    0.07       3.4  T
  18   -264.1162438 -0.144490E-05  0.214E-03    0.07       4.1  T
  19   -264.1162464 -0.266355E-05  0.885E-04    0.07       9.8  T
  20   -264.1162468 -0.390253E-06  0.474E-04    0.07      18.4  T
  21   -264.1162470 -0.126157E-06  0.206E-04    0.07      42.2  T
  22   -264.1162470 -0.296133E-07  0.291E-05    0.07     299.0  T
  23   -264.1162470 -0.332477E-09  0.177E-05    0.07     491.5  T
     SCC iter.                  ...        0 min,  1.256 sec
     gradient                   ...        0 min,  0.312 sec
 * total energy  :  -260.4737498 Eh     change       -0.9732529E-02 Eh
   gradient norm :     0.0397228 Eh/α   predicted    -0.8772022E-02 (  -9.87%)
   displ. norm   :     0.5076507 α      lambda       -0.6947750E-02
   maximum displ.:     0.2612258 α      in ANC's #24, #81, #98, ...

........................................................................
.............................. CYCLE    7 ..............................
........................................................................
   1   -264.1108521 -0.264111E+03  0.120E-01    0.10       0.0  T
   2   -260.9796852  0.313117E+01  0.238E+00    0.03       1.0  T
   3   -263.8524822 -0.287280E+01  0.617E-01    0.06       1.0  T
   4   -263.9184161 -0.659339E-01  0.533E-01    0.07       1.0  T
   5   -264.0850813 -0.166665E+00  0.233E-01    0.12       1.0  T
   6   -264.1102052 -0.251239E-01  0.108E-01    0.08       1.0  T
   7   -264.1163607 -0.615556E-02  0.678E-02    0.06       1.0  T
   8   -264.1175536 -0.119285E-02  0.485E-02    0.07       1.0  T
   9   -264.1061352  0.114184E-01  0.135E-01    0.06       1.0  T
  10   -264.1152094 -0.907424E-02  0.696E-02    0.07       1.0  T
  11   -264.1184801 -0.327061E-02  0.131E-02    0.08       1.0  T
  12   -264.1181131  0.366986E-03  0.263E-02    0.07       1.0  T
  13   -264.1185408 -0.427749E-03  0.968E-03    0.08       1.0  T
  14   -264.1185739 -0.331117E-04  0.675E-03    0.08       1.3  T
  15   -264.1185881 -0.142201E-04  0.428E-03    0.08       2.0  T
  16   -264.1185995 -0.113841E-04  0.114E-03    0.08       7.6  T
  17   -264.1185994  0.156295E-06  0.118E-03    0.08       7.4  T
  18   -264.1186000 -0.637557E-06  0.709E-04    0.08      12.3  T
  19   -264.1186001 -0.122185E-06  0.562E-04    0.08      15.5  T
  20   -264.1186003 -0.168522E-06  0.274E-04    0.08      31.7  T
  21   -264.1186003 -0.323846E-07  0.166E-04    0.08      52.3  T
  22   -264.1186004 -0.155325E-07  0.728E-05    0.08     119.6  T
     SCC iter.                  ...        0 min,  1.206 sec
     gradient                   ...        0 min,  0.311 sec
 * total energy  :  -260.4787509 Eh     change       -0.5001048E-02 Eh
   gradient norm :     0.0271736 Eh/α   predicted    -0.4369131E-02 ( -12.64%)
   displ. norm   :     0.5554114 α      lambda       -0.4356008E-02
   maximum displ.:     0.3126281 α      in ANC's #24, #26, #22, ...

........................................................................
.............................. CYCLE    8 ..............................
........................................................................
   1   -264.1100630 -0.264110E+03  0.100E-01    0.09       0.0  T
   2   -261.1377454  0.297232E+01  0.232E+00    0.03       1.0  T
   3   -264.0633314 -0.292559E+01  0.276E-01    0.08       1.0  T
   4   -263.5112337  0.552098E+00  0.926E-01    0.04       1.0  T
   5   -264.0951384 -0.583905E+00  0.184E-01    0.11       1.0  T
   6   -264.1132185 -0.180802E-01  0.550E-02    0.07       1.0  T
   7   -264.1134154 -0.196931E-03  0.607E-02    0.07       1.0  T
   8   -264.1148028 -0.138731E-02  0.377E-02    0.07       1.0  T
   9   -264.1074662  0.733655E-02  0.110E-01    0.06       1.0  T
  10   -264.1145753 -0.710907E-02  0.342E-02    0.07       1.0  T
  11   -264.1149103 -0.335067E-03  0.265E-02    0.07       1.0  T
  12   -264.1154040 -0.493638E-03  0.658E-03    0.08       1.3  T
  13   -264.1153714  0.325410E-04  0.935E-03    0.08       1.0  T
  14   -264.1154150 -0.435336E-04  0.436E-03    0.08       2.0  T
  15   -264.1154246 -0.967189E-05  0.144E-03    0.08       6.0  T
  16   -264.1154199  0.476021E-05  0.297E-03    0.08       2.9  T
  17   -264.1154228 -0.288717E-05  0.216E-03    0.08       4.0  T
  18   -264.1154246 -0.182741E-05  0.141E-03    0.08       6.2  T
  19   -264.1154259 -0.127489E-05  0.382E-04    0.08      22.8  T
  20   -264.1154259 -0.655629E-07  0.210E-04    0.08      41.4  T
  21   -264.1154260 -0.273729E-07  0.694E-05    0.08     125.4  T
  22   -264.1154260 -0.198315E-08  0.444E-05    0.08     196.2  T
     SCC iter.                  ...        0 min,  1.208 sec
     gradient                   ...        0 min,  0.311 sec
 * total energy  :  -260.4806340 Eh     change       -0.1883176E-02 Eh
   gradient norm :     0.0218137 Eh/α   predicted    -0.2849890E-02 (  51.33%)
   displ. norm   :     0.5054516 α      lambda       -0.4178319E-02
   maximum displ.:     0.3723746 α      in ANC's #24, #26, #36, ...

........................................................................
.............................. CYCLE    9 ..............................
........................................................................
   1   -264.1172724 -0.264117E+03  0.581E-02    0.08       0.0  T
   2   -262.4948619  0.162241E+01  0.171E+00    0.01       1.0  T
   3   -263.4106207 -0.915759E+00  0.100E+00    0.03       1.0  T
   4   -264.1089379 -0.698317E+00  0.130E-01    0.09       1.0  T
   5   -264.1097426 -0.804729E-03  0.124E-01    0.09       1.0  T
   6   -264.1141931 -0.445054E-02  0.834E-02    0.08       1.0  T
   7   -264.1184271 -0.423398E-02  0.284E-02    0.07       1.0  T
   8   -264.1186947 -0.267632E-03  0.211E-02    0.08       1.0  T
   9   -264.1185736  0.121181E-03  0.251E-02    0.07       1.0  T
  10   -264.1184794  0.941517E-04  0.265E-02    0.07       1.0  T
  11   -264.1189268 -0.447387E-03  0.859E-03    0.07       1.0  T
  12   -264.1189563 -0.294849E-04  0.623E-03    0.07       1.4  T
  13   -264.1189695 -0.131747E-04  0.425E-03    0.07       2.1  T
  14   -264.1189787 -0.927420E-05  0.221E-03    0.07       3.9  T
  15   -264.1189778  0.921553E-06  0.246E-03    0.07       3.5  T
  16   -264.1189809 -0.312674E-05  0.128E-03    0.07       6.8  T
  17   -264.1189809  0.147080E-07  0.124E-03    0.07       7.0  T
  18   -264.1189820 -0.103527E-05  0.281E-04    0.07      31.0  T
  19   -264.1189820 -0.425833E-07  0.131E-04    0.07      66.6  T
  20   -264.1189820 -0.107748E-07  0.348E-05    0.07     250.4  T
     SCC iter.                  ...        0 min,  1.083 sec
     gradient                   ...        0 min,  0.330 sec
 * total energy  :  -260.4823515 Eh     change       -0.1717433E-02 Eh
   gradient norm :     0.0208133 Eh/α   predicted    -0.2622907E-02 (  52.72%)
   displ. norm   :     0.2384109 α      lambda       -0.1242219E-02
   maximum displ.:     0.1937112 α      in ANC's #24, #25, #26, ...

........................................................................
.............................. CYCLE   10 ..............................
........................................................................
   1   -264.1170543 -0.264117E+03  0.289E-02    0.07       0.0  T
   2   -263.7740565  0.342998E+00  0.714E-01    0.08       1.0  T
   3   -261.2125588  0.256150E+01  0.203E+00    0.00       1.0  T
   4   -264.1151484 -0.290259E+01  0.612E-02    0.08       1.0  T
   5   -264.1030230  0.121254E-01  0.150E-01    0.05       1.0  T
   6   -264.1158706 -0.128476E-01  0.478E-02    0.07       1.0  T
   7   -264.1102510  0.561962E-02  0.101E-01    0.07       1.0  T
   8   -264.1173798 -0.712878E-02  0.156E-02    0.07       1.0  T
   9   -264.1175189 -0.139131E-03  0.131E-03    0.07       6.7  T
  10   -264.1174770  0.418935E-04  0.770E-03    0.07       1.1  T
  11   -264.1175197 -0.426908E-04  0.916E-04    0.07       9.5  T
  12   -264.1175200 -0.235182E-06  0.752E-04    0.07      11.6  T
  13   -264.1175201 -0.147896E-06  0.571E-04    0.07      15.2  T
  14   -264.1175202 -0.582638E-07  0.476E-04    0.07      18.3  T
  15   -264.1175203 -0.999308E-07  0.239E-04    0.07      36.4  T
  16   -264.1175203 -0.150265E-07  0.181E-04    0.07      48.0  T
  17   -264.1175203 -0.111850E-07  0.129E-04    0.07      67.6  T
     SCC iter.                  ...        0 min,  0.921 sec
     gradient                   ...        0 min,  0.311 sec
 * total energy  :  -260.4833853 Eh     change       -0.1033860E-02 Eh
   gradient norm :     0.0114339 Eh/α   predicted    -0.6564137E-03 ( -36.51%)
   displ. norm   :     0.4519564 α      lambda       -0.1575304E-02
   maximum displ.:     0.3697411 α      in ANC's #24, #22, #8, ...

........................................................................
.............................. CYCLE   11 ..............................
........................................................................
   1   -264.1124541 -0.264112E+03  0.415E-02    0.07       0.0  T
   2   -262.7958359  0.131662E+01  0.138E+00    0.03       1.0  T
   3   -261.0831640  0.171267E+01  0.208E+00    0.00       1.0  T
   4   -264.1059349 -0.302277E+01  0.112E-01    0.09       1.0  T
   5   -263.9852963  0.120639E+00  0.474E-01    0.01       1.0  T
   6   -264.1125545 -0.127258E+00  0.344E-02    0.07       1.0  T
   7   -264.1021797  0.103749E-01  0.124E-01    0.07       1.0  T
   8   -264.1103295 -0.814983E-02  0.656E-02    0.07       1.0  T
   9   -264.1123763 -0.204681E-02  0.381E-02    0.07       1.0  T
  10   -264.1133987 -0.102236E-02  0.494E-03    0.07       1.8  T
  11   -264.1134046 -0.593427E-05  0.335E-03    0.07       2.6  T
  12   -264.1134083 -0.370815E-05  0.223E-03    0.07       3.9  T
  13   -264.1134098 -0.143525E-05  0.192E-03    0.07       4.5  T
  14   -264.1134108 -0.103364E-05  0.138E-03    0.07       6.3  T
  15   -264.1134114 -0.598764E-06  0.946E-04    0.07       9.2  T
  16   -264.1134118 -0.379597E-06  0.489E-04    0.07      17.8  T
  17   -264.1134119 -0.122434E-06  0.160E-04    0.07      54.4  T
  18   -264.1134119 -0.107864E-07  0.826E-05    0.07     105.3  T
     SCC iter.                  ...        0 min,  0.987 sec
     gradient                   ...        0 min,  0.310 sec
 * total energy  :  -260.4844708 Eh     change       -0.1085424E-02 Eh
   gradient norm :     0.0079491 Eh/α   predicted    -0.9485429E-03 ( -12.61%)
   displ. norm   :     0.4140886 α      lambda       -0.7882189E-03
   maximum displ.:     0.3398756 α      in ANC's #24, #25, #8, ...

........................................................................
.............................. CYCLE   12 ..............................
........................................................................
   1   -264.1084119 -0.264108E+03  0.516E-03    0.07       0.0  T
   2   -263.9442873  0.164125E+00  0.481E-01    0.04       1.0  T
   3   -264.1080870 -0.163800E+00  0.219E-02    0.07       1.0  T
   4   -264.0979436  0.101435E-01  0.135E-01    0.10       1.0  T
   5   -264.1082086 -0.102650E-01  0.187E-02    0.08       1.0  T
   6   -264.1083796 -0.171003E-03  0.794E-03    0.07       1.1  T
   7   -264.1084117 -0.321121E-04  0.413E-03    0.08       2.1  T
   8   -264.1083720  0.396778E-04  0.825E-03    0.07       1.1  T
   9   -264.1084098 -0.377361E-04  0.403E-03    0.07       2.2  T
  10   -264.1084211 -0.113487E-04  0.966E-04    0.07       9.0  T
  11   -264.1084214 -0.240360E-06  0.674E-04    0.07      12.9  T
  12   -264.1084216 -0.257201E-06  0.150E-04    0.07      58.1  T
  13   -264.1084216 -0.122619E-07  0.192E-05    0.07     452.7  T
     SCC iter.                  ...        0 min,  0.707 sec
     gradient                   ...        0 min,  0.310 sec
 * total energy  :  -260.4850274 Eh     change       -0.5565933E-03 Eh
   gradient norm :     0.0081709 Eh/α   predicted    -0.4616901E-03 ( -17.05%)
   displ. norm   :     0.2923044 α      lambda       -0.4569575E-03
   maximum displ.:     0.2311399 α      in ANC's #24, #8, #18, ...

........................................................................
.............................. CYCLE   13 ..............................
........................................................................
   1   -264.1051908 -0.264105E+03  0.165E-02    0.08       0.0  T
   2   -263.7710197  0.334171E+00  0.772E-01    0.02       1.0  T
   3   -263.9585667 -0.187547E+00  0.454E-01    0.05       1.0  T
   4   -264.1042064 -0.145640E+00  0.431E-02    0.08       1.0  T
   5   -264.1047384 -0.531986E-03  0.324E-02    0.08       1.0  T
   6   -264.1046113  0.127091E-03  0.330E-02    0.08       1.0  T
   7   -264.1053071 -0.695794E-03  0.627E-03    0.08       1.4  T
   8   -264.1053286 -0.215350E-04  0.148E-03    0.08       5.9  T
   9   -264.1052770  0.516558E-04  0.864E-03    0.07       1.0  T
  10   -264.1053275 -0.505470E-04  0.192E-03    0.08       4.5  T
  11   -264.1053280 -0.498695E-06  0.171E-03    0.07       5.1  T
  12   -264.1053293 -0.126111E-05  0.109E-03    0.07       8.0  T
  13   -264.1053299 -0.597873E-06  0.507E-04    0.07      17.2  T
  14   -264.1053299 -0.657188E-07  0.382E-04    0.07      22.8  T
  15   -264.1053300 -0.577602E-07  0.233E-04    0.07      37.4  T
  16   -264.1053300 -0.256272E-07  0.998E-05    0.08      87.2  T
  17   -264.1053300 -0.626846E-08  0.100E-05    0.08     868.9  T
     SCC iter.                  ...        0 min,  0.920 sec
     gradient                   ...        0 min,  0.313 sec
 * total energy  :  -260.4853979 Eh     change       -0.3705699E-03 Eh
   gradient norm :     0.0065481 Eh/α   predicted    -0.2480058E-03 ( -33.07%)
   displ. norm   :     0.3086267 α      lambda       -0.3784302E-03
   maximum displ.:     0.2255469 α      in ANC's #24, #8, #18, ...

........................................................................
.............................. CYCLE   14 ..............................
........................................................................
   1   -264.1024215 -0.264102E+03  0.196E-02    0.08       0.0  T
   2   -263.4057715  0.696650E+00  0.107E+00    0.06       1.0  T
   3   -262.9785944  0.427177E+00  0.127E+00    0.03       1.0  T
   4   -264.1012338 -0.112264E+01  0.490E-02    0.08       1.0  T
   5   -264.1012803 -0.464505E-04  0.463E-02    0.08       1.0  T
   6   -264.0992040  0.207625E-02  0.693E-02    0.08       1.0  T
   7   -264.1020510 -0.284693E-02  0.280E-02    0.08       1.0  T
   8   -264.1024525 -0.401587E-03  0.157E-02    0.07       1.0  T
   9   -264.1019493  0.503291E-03  0.308E-02    0.07       1.0  T
  10   -264.1024606 -0.511307E-03  0.153E-02    0.08       1.0  T
  11   -264.1025059 -0.453883E-04  0.129E-02    0.08       1.0  T
  12   -264.1025697 -0.637794E-04  0.872E-03    0.08       1.0  T
  13   -264.1025936 -0.238500E-04  0.650E-03    0.08       1.3  T
  14   -264.1026166 -0.229843E-04  0.317E-03    0.08       2.7  T
  15   -264.1026224 -0.585250E-05  0.127E-03    0.08       6.9  T
  16   -264.1026232 -0.808728E-06  0.653E-04    0.08      13.3  T
  17   -264.1026235 -0.251552E-06  0.201E-04    0.08      43.3  T
  18   -264.1026235 -0.282955E-07  0.156E-05    0.08     557.0  T
  19   -264.1026235 -0.118803E-09  0.808E-06    0.08    1077.5  T
     SCC iter.                  ...        0 min,  1.041 sec
     gradient                   ...        0 min,  0.310 sec
 * total energy  :  -260.4857002 Eh     change       -0.3022846E-03 Eh
   gradient norm :     0.0034593 Eh/α   predicted    -0.2072390E-03 ( -31.44%)
   displ. norm   :     0.3949475 α      lambda       -0.3178619E-03
   maximum displ.:     0.2671847 α      in ANC's #24, #8, #18, ...

........................................................................
.............................. CYCLE   15 ..............................
........................................................................
   1   -264.0975918 -0.264098E+03  0.189E-02    0.08       0.0  T
   2   -263.0311960  0.106640E+01  0.129E+00    0.09       1.0  T
   3   -263.1464376 -0.115242E+00  0.117E+00    0.04       1.0  T
   4   -264.0943387 -0.947901E+00  0.730E-02    0.09       1.0  T
   5   -264.0956221 -0.128335E-02  0.581E-02    0.08       1.0  T
   6   -264.0902346  0.538745E-02  0.103E-01    0.08       1.0  T
   7   -264.0938615 -0.362686E-02  0.734E-02    0.08       1.0  T
   8   -264.0972202 -0.335876E-02  0.276E-02    0.08       1.0  T
   9   -264.0973907 -0.170470E-03  0.236E-02    0.08       1.0  T
  10   -264.0974221 -0.313827E-04  0.227E-02    0.08       1.0  T
  11   -264.0973970  0.250576E-04  0.233E-02    0.08       1.0  T
  12   -264.0976736 -0.276597E-03  0.124E-02    0.08       1.0  T
  13   -264.0977538 -0.802301E-04  0.649E-03    0.08       1.3  T
  14   -264.0977717 -0.178356E-04  0.418E-03    0.08       2.1  T
  15   -264.0977828 -0.111600E-04  0.126E-03    0.08       6.9  T
  16   -264.0977813  0.153654E-05  0.190E-03    0.08       4.6  T
  17   -264.0977834 -0.208714E-05  0.736E-04    0.08      11.8  T
  18   -264.0977838 -0.373363E-06  0.646E-05    0.08     134.7  T
  19   -264.0977838 -0.254062E-08  0.218E-05    0.08     398.4  T
     SCC iter.                  ...        0 min,  1.031 sec
     gradient                   ...        0 min,  0.326 sec
 * total energy  :  -260.4859279 Eh     change       -0.2277173E-03 Eh
   gradient norm :     0.0031638 Eh/α   predicted    -0.1837229E-03 ( -19.32%)
   displ. norm   :     0.3099667 α      lambda       -0.1468280E-03
   maximum displ.:     0.1846714 α      in ANC's #24, #8, #18, ...

........................................................................
.............................. CYCLE   16 ..............................
........................................................................
   1   -264.0943602 -0.264094E+03  0.821E-03    0.08       0.0  T
   2   -263.4709684  0.623392E+00  0.949E-01    0.01       1.0  T
   3   -264.0389339 -0.567966E+00  0.283E-01    0.05       1.0  T
   4   -264.0881568 -0.492229E-01  0.963E-02    0.09       1.0  T
   5   -264.0883664 -0.209611E-03  0.939E-02    0.08       1.0  T
   6   -264.0940123 -0.564587E-02  0.253E-02    0.08       1.0  T
   7   -264.0943918 -0.379568E-03  0.270E-03    0.08       3.2  T
   8   -264.0940724  0.319476E-03  0.217E-02    0.08       1.0  T
   9   -264.0938222  0.250152E-03  0.284E-02    0.08       1.0  T
  10   -264.0943010 -0.478775E-03  0.115E-02    0.08       1.0  T
  11   -264.0943871 -0.861018E-04  0.352E-03    0.08       2.5  T
  12   -264.0943672  0.198977E-04  0.637E-03    0.08       1.4  T
  13   -264.0943556  0.116341E-04  0.747E-03    0.08       1.2  T
  14   -264.0943883 -0.327410E-04  0.310E-03    0.08       2.8  T
  15   -264.0943936 -0.530201E-05  0.144E-03    0.08       6.1  T
  16   -264.0943950 -0.136951E-05  0.367E-04    0.08      23.7  T
  17   -264.0943951 -0.860541E-07  0.108E-04    0.08      80.5  T
  18   -264.0943951 -0.816311E-08  0.114E-05    0.08     763.7  T
     SCC iter.                  ...        0 min,  0.974 sec
     gradient                   ...        0 min,  0.310 sec
 * total energy  :  -260.4860325 Eh     change       -0.1045274E-03 Eh
   gradient norm :     0.0032745 Eh/α   predicted    -0.8046976E-04 ( -23.02%)
   displ. norm   :     0.1952876 α      lambda       -0.8368665E-04
   maximum displ.:     0.0996733 α      in ANC's #8, #18, #24, ...

........................................................................
.............................. CYCLE   17 ..............................
........................................................................
   1   -264.0930214 -0.264093E+03  0.670E-03    0.08       0.0  T
   2   -263.7953887  0.297633E+00  0.652E-01    0.06       1.0  T
   3   -264.0609666 -0.265578E+00  0.215E-01    0.09       1.0  T
   4   -264.0827207 -0.217541E-01  0.122E-01    0.07       1.0  T
   5   -264.0649947  0.177260E-01  0.198E-01    0.08       1.0  T
   6   -264.0921111 -0.271165E-01  0.365E-02    0.08       1.0  T
   7   -264.0927735 -0.662375E-03  0.199E-02    0.08       1.0  T
   8   -264.0928029 -0.293894E-04  0.186E-02    0.08       1.0  T
   9   -264.0929392 -0.136272E-03  0.124E-02    0.08       1.0  T
  10   -264.0929735 -0.343640E-04  0.101E-02    0.08       1.0  T
  11   -264.0930379 -0.643576E-04  0.267E-03    0.08       3.3  T
  12   -264.0930406 -0.269695E-05  0.168E-03    0.08       5.2  T
  13   -264.0930421 -0.151235E-05  0.476E-04    0.08      18.3  T
  14   -264.0930416  0.440538E-06  0.935E-04    0.08       9.3  T
  15   -264.0930420 -0.356413E-06  0.603E-04    0.08      14.4  T
  16   -264.0930422 -0.206848E-06  0.257E-04    0.08      33.9  T
  17   -264.0930422 -0.207251E-07  0.185E-04    0.08      47.1  T
  18   -264.0930422 -0.228121E-07  0.376E-05    0.08     231.5  T
     SCC iter.                  ...        0 min,  0.987 sec
     gradient                   ...        0 min,  0.311 sec
 * total energy  :  -260.4861014 Eh     change       -0.6897136E-04 Eh
   gradient norm :     0.0025166 Eh/α   predicted    -0.4344030E-04 ( -37.02%)
   displ. norm   :     0.2138246 α      lambda       -0.1111944E-03
   maximum displ.:     0.1169555 α      in ANC's #8, #18, #11, ...

........................................................................
.............................. CYCLE   18 ..............................
........................................................................
   1   -264.0927685 -0.264093E+03  0.119E-02    0.08       0.0  T
   2   -263.9007735  0.191995E+00  0.533E-01    0.08       1.0  T
   3   -263.7810786  0.119695E+00  0.668E-01    0.07       1.0  T
   4   -264.0811241 -0.300046E+00  0.128E-01    0.08       1.0  T
   5   -264.0309406  0.501835E-01  0.293E-01    0.07       1.0  T
   6   -264.0878761 -0.569355E-01  0.859E-02    0.10       1.0  T
   7   -264.0882977 -0.421597E-03  0.827E-02    0.08       1.0  T
   8   -264.0927895 -0.449182E-02  0.850E-03    0.08       1.0  T
   9   -264.0925369  0.252621E-03  0.209E-02    0.09       1.0  T
  10   -264.0927231 -0.186228E-03  0.128E-02    0.08       1.0  T
  11   -264.0927861 -0.630322E-04  0.862E-03    0.08       1.0  T
  12   -264.0928171 -0.309778E-04  0.540E-03    0.08       1.6  T
  13   -264.0928334 -0.162252E-04  0.233E-03    0.08       3.7  T
  14   -264.0928346 -0.122401E-05  0.183E-03    0.08       4.8  T
  15   -264.0928354 -0.836993E-06  0.143E-03    0.08       6.1  T
  16   -264.0928357 -0.291078E-06  0.127E-03    0.08       6.9  T
  17   -264.0928363 -0.603480E-06  0.852E-04    0.08      10.2  T
  18   -264.0928367 -0.436534E-06  0.303E-04    0.08      28.7  T
  19   -264.0928368 -0.630291E-07  0.111E-05    0.08     787.1  T
  20   -264.0928368 -0.311502E-10  0.779E-06    0.08    1116.9  T
     SCC iter.                  ...        0 min,  1.094 sec
     gradient                   ...        0 min,  0.310 sec
 * total energy  :  -260.4861926 Eh     change       -0.9120401E-04 Eh
   gradient norm :     0.0019699 Eh/α   predicted    -0.5814342E-04 ( -36.25%)
   displ. norm   :     0.4146029 α      lambda       -0.1292901E-03
   maximum displ.:     0.2242805 α      in ANC's #8, #18, #11, ...

........................................................................
.............................. CYCLE   19 ..............................
........................................................................
   1   -264.0925171 -0.264093E+03  0.231E-02    0.09       0.0  T
   2   -264.0138658  0.786513E-01  0.359E-01    0.13       1.0  T
   3   -262.8727503  0.114112E+01  0.132E+00    0.01       1.0  T
   4   -264.0859373 -0.121319E+01  0.989E-02    0.09       1.0  T
   5   -264.0790090  0.692826E-02  0.141E-01    0.09       1.0  T
   6   -264.0926793 -0.136703E-01  0.140E-02    0.09       1.0  T
   7   -264.0921001  0.579263E-03  0.319E-02    0.09       1.0  T
   8   -264.0925257 -0.425636E-03  0.192E-02    0.09       1.0  T
   9   -264.0927160 -0.190277E-03  0.101E-02    0.09       1.0  T
  10   -264.0926869  0.290383E-04  0.119E-02    0.09       1.0  T
  11   -264.0927671 -0.801881E-04  0.527E-03    0.09       1.7  T
  12   -264.0927749 -0.778302E-05  0.407E-03    0.09       2.1  T
  13   -264.0927781 -0.317158E-05  0.339E-03    0.09       2.6  T
  14   -264.0927818 -0.373457E-05  0.244E-03    0.09       3.6  T
  15   -264.0927859 -0.409090E-05  0.305E-04    0.09      28.6  T
  16   -264.0927859 -0.312729E-07  0.217E-04    0.09      40.2  T
  17   -264.0927860 -0.183133E-07  0.115E-04    0.09      75.8  T
  18   -264.0927860 -0.554394E-08  0.602E-05    0.09     144.5  T
     SCC iter.                  ...        0 min,  0.974 sec
     gradient                   ...        0 min,  0.328 sec
 * total energy  :  -260.4863281 Eh     change       -0.1354892E-03 Eh
   gradient norm :     0.0043106 Eh/α   predicted    -0.6958715E-04 ( -48.64%)
   displ. norm   :     0.2132643 α      lambda       -0.8999874E-04
   maximum displ.:     0.1159739 α      in ANC's #8, #18, #11, ...

........................................................................
.............................. CYCLE   20 ..............................
........................................................................
   1   -264.0932827 -0.264093E+03  0.128E-02    0.09       0.0  T
   2   -262.5012451  0.159204E+01  0.151E+00    0.01       1.0  T
   3   -264.0048884 -0.150364E+01  0.359E-01    0.09       1.0  T
   4   -264.0612267 -0.563384E-01  0.217E-01    0.07       1.0  T
   5   -264.0331853  0.280414E-01  0.296E-01    0.11       1.0  T
   6   -264.0856989 -0.525136E-01  0.103E-01    0.09       1.0  T
   7   -264.0803292  0.536965E-02  0.136E-01    0.09       1.0  T
   8   -264.0931662 -0.128370E-01  0.171E-02    0.09       1.0  T
   9   -264.0932758 -0.109631E-03  0.108E-02    0.09       1.0  T
  10   -264.0928715  0.404320E-03  0.267E-02    0.09       1.0  T
  11   -264.0932308 -0.359340E-03  0.139E-02    0.09       1.0  T
  12   -264.0932592 -0.283576E-04  0.124E-02    0.09       1.0  T
  13   -264.0933253 -0.661097E-04  0.757E-03    0.09       1.1  T
  14   -264.0933618 -0.365212E-04  0.211E-03    0.09       4.1  T
  15   -264.0933587  0.312381E-05  0.287E-03    0.09       3.0  T
  16   -264.0933571  0.163322E-05  0.316E-03    0.09       2.8  T
  17   -264.0933600 -0.296088E-05  0.237E-03    0.09       3.7  T
  18   -264.0933625 -0.249309E-05  0.139E-03    0.09       6.3  T
  19   -264.0933637 -0.120793E-05  0.358E-04    0.09      24.3  T
  20   -264.0933638 -0.879892E-07  0.172E-05    0.09     504.8  T
  21   -264.0933638  0.185878E-10  0.184E-05    0.09     474.1  T
     SCC iter.                  ...        0 min,  1.137 sec
     gradient                   ...        0 min,  0.310 sec
 * total energy  :  -260.4864086 Eh     change       -0.8052161E-04 Eh
   gradient norm :     0.0041496 Eh/α   predicted    -0.4704691E-04 ( -41.57%)
   displ. norm   :     0.3824072 α      lambda       -0.1727922E-03
   maximum displ.:     0.2057698 α      in ANC's #8, #18, #11, ...
 * RMSD in coord.:     0.4480927 α      energy gain  -0.5332008E+00 Eh

generating ANC from model Hessian ...
Using Lindh-Hessian (1995)
 Shifting diagonal of input Hessian by    1.0026758813294522E-002
 Lowest  eigenvalues of input Hessian
    0.010000    0.010010    0.010018    0.010022    0.000000    0.000000
    0.000000    0.000000    0.000000    0.000000    0.010031    0.010133
    0.010143    0.010252    0.010292    0.010406    0.010410    0.010504
 Highest eigenvalues
    2.159530    2.160333    2.160369    2.493021    2.813002    3.035184


........................................................................
.............................. CYCLE   21 ..............................
........................................................................
   1   -264.0939968 -0.264094E+03  0.279E-02    0.09       0.0  T
   2   -260.3540825  0.373991E+01  0.231E+00    0.00       1.0  T
   3   -263.4977834 -0.314370E+01  0.925E-01    0.05       1.0  T
   4   -263.9441235 -0.446340E+00  0.461E-01    0.06       1.0  T
   5   -263.5583427  0.385781E+00  0.873E-01    0.05       1.0  T
   6   -264.0564034 -0.498061E+00  0.229E-01    0.09       1.0  T
   7   -264.0649312 -0.852778E-02  0.207E-01    0.09       1.0  T
   8   -264.0735499 -0.861866E-02  0.172E-01    0.10       1.0  T
   9   -264.0939001 -0.203503E-01  0.245E-02    0.10       1.0  T
  10   -264.0920087  0.189139E-02  0.588E-02    0.10       1.0  T
  11   -264.0936916 -0.168289E-02  0.317E-02    0.10       1.0  T
  12   -264.0941417 -0.450061E-03  0.186E-02    0.10       1.0  T
  13   -264.0943009 -0.159217E-03  0.103E-02    0.10       1.0  T
  14   -264.0943673 -0.664091E-04  0.253E-03    0.10       3.4  T
  15   -264.0942830  0.843021E-04  0.114E-02    0.10       1.0  T
  16   -264.0943013 -0.182650E-04  0.101E-02    0.10       1.0  T
  17   -264.0943332 -0.319353E-04  0.746E-03    0.10       1.2  T
  18   -264.0943481 -0.148596E-04  0.578E-03    0.10       1.5  T
  19   -264.0943657 -0.176163E-04  0.265E-03    0.10       3.3  T
  20   -264.0943704 -0.469615E-05  0.247E-04    0.10      35.2  T
  21   -264.0943704 -0.302238E-07  0.121E-04    0.10      71.9  T
  22   -264.0943704 -0.829198E-08  0.473E-05    0.10     184.1  T
     SCC iter.                  ...        0 min,  1.199 sec
     gradient                   ...        0 min,  0.309 sec
 * total energy  :  -260.4865442 Eh     change       -0.1355807E-03 Eh
   gradient norm :     0.0030677 Eh/α   predicted     0.0000000E+00 (-100.00%)
   displ. norm   :     0.0506742 α      lambda       -0.4671828E-04
   maximum displ.:     0.0289597 α      in ANC's #20, #8, #19, ...

........................................................................
.............................. CYCLE   22 ..............................
........................................................................
   1   -264.0951820 -0.264095E+03  0.631E-03    0.10       0.0  T
   2   -263.8300669  0.265115E+00  0.620E-01    0.05       1.0  T
   3   -264.0642467 -0.234180E+00  0.213E-01    0.07       1.0  T
   4   -264.0934288 -0.291821E-01  0.526E-02    0.10       1.0  T
   5   -264.0942075 -0.778774E-03  0.389E-02    0.10       1.0  T
   6   -264.0947312 -0.523671E-03  0.266E-02    0.10       1.0  T
   7   -264.0951693 -0.438084E-03  0.699E-03    0.10       1.2  T
   8   -264.0951841 -0.148359E-04  0.521E-03    0.10       1.7  T
   9   -264.0951817  0.246998E-05  0.555E-03    0.10       1.6  T
  10   -264.0951993 -0.176361E-04  0.224E-03    0.10       3.9  T
  11   -264.0952027 -0.342848E-05  0.418E-04    0.10      20.8  T
  12   -264.0952019  0.784167E-06  0.113E-03    0.10       7.7  T
  13   -264.0952019  0.523202E-07  0.116E-03    0.10       7.5  T
  14   -264.0952026 -0.741804E-06  0.535E-04    0.10      16.3  T
  15   -264.0952028 -0.190196E-06  0.142E-04    0.10      61.4  T
  16   -264.0952028 -0.369278E-08  0.119E-04    0.10      73.0  T
     SCC iter.                  ...        0 min,  0.880 sec
     gradient                   ...        0 min,  0.311 sec
 * total energy  :  -260.4865697 Eh     change       -0.2544257E-04 Eh
   gradient norm :     0.0022105 Eh/α   predicted    -0.2453352E-04 (  -3.57%)
   displ. norm   :     0.1685642 α      lambda       -0.1465353E-03
   maximum displ.:     0.0654515 α      in ANC's #8, #19, #25, ...

........................................................................
.............................. CYCLE   23 ..............................
........................................................................
   1   -264.0977281 -0.264098E+03  0.186E-02    0.09       0.0  T
   2   -262.0791101  0.201862E+01  0.171E+00    0.02       1.0  T
   3   -263.8258508 -0.174674E+01  0.639E-01    0.04       1.0  T
   4   -264.0809856 -0.255135E+00  0.161E-01    0.10       1.0  T
   5   -264.0817520 -0.766459E-03  0.160E-01    0.11       1.0  T
   6   -264.0823557 -0.603642E-03  0.150E-01    0.10       1.0  T
   7   -264.0857006 -0.334488E-02  0.130E-01    0.09       1.0  T
   8   -264.0976183 -0.119177E-01  0.212E-02    0.09       1.0  T
   9   -264.0969976  0.620656E-03  0.362E-02    0.09       1.0  T
  10   -264.0975490 -0.551374E-03  0.229E-02    0.09       1.0  T
  11   -264.0975686 -0.196232E-04  0.220E-02    0.09       1.0  T
  12   -264.0978050 -0.236376E-03  0.123E-02    0.09       1.0  T
  13   -264.0979040 -0.989924E-04  0.367E-03    0.09       2.4  T
  14   -264.0979109 -0.685036E-05  0.139E-03    0.09       6.3  T
  15   -264.0979012  0.968707E-05  0.392E-03    0.09       2.2  T
  16   -264.0979080 -0.687920E-05  0.231E-03    0.09       3.8  T
  17   -264.0979117 -0.365856E-05  0.147E-04    0.09      59.1  T
  18   -264.0979117 -0.106548E-07  0.638E-05    0.09     136.3  T
  19   -264.0979117 -0.216795E-08  0.298E-05    0.09     291.7  T
     SCC iter.                  ...        0 min,  1.028 sec
     gradient                   ...        0 min,  0.328 sec
 * total energy  :  -260.4866102 Eh     change       -0.4052153E-04 Eh
   gradient norm :     0.0044571 Eh/α   predicted    -0.7535001E-04 (  85.95%)
   displ. norm   :     0.0415739 α      lambda       -0.5891884E-04
   maximum displ.:     0.0146518 α      in ANC's #8, #19, #25, ...

........................................................................
.............................. CYCLE   24 ..............................
........................................................................
   1   -264.0972600 -0.264097E+03  0.373E-03    0.09       0.0  T
   2   -264.0436033  0.536567E-01  0.278E-01    0.09       1.0  T
   3   -264.0866675 -0.430642E-01  0.125E-01    0.10       1.0  T
   4   -264.0970942 -0.104267E-01  0.164E-02    0.09       1.0  T
   5   -264.0968487  0.245531E-03  0.240E-02    0.09       1.0  T
   6   -264.0971051 -0.256429E-03  0.151E-02    0.09       1.0  T
   7   -264.0972652 -0.160070E-03  0.184E-03    0.09       4.7  T
   8   -264.0972631  0.203766E-05  0.250E-03    0.09       3.5  T
   9   -264.0972649 -0.177006E-05  0.186E-03    0.09       4.7  T
  10   -264.0972671 -0.221295E-05  0.547E-04    0.09      15.9  T
  11   -264.0972672 -0.927170E-07  0.404E-04    0.09      21.5  T
  12   -264.0972673 -0.879605E-07  0.158E-04    0.09      55.2  T
  13   -264.0972673 -0.110468E-07  0.825E-05    0.09     105.5  T
     SCC iter.                  ...        0 min,  0.706 sec
     gradient                   ...        0 min,  0.309 sec
 * total energy  :  -260.4866494 Eh     change       -0.3919969E-04 Eh
   gradient norm :     0.0023290 Eh/α   predicted    -0.2951230E-04 ( -24.71%)
   displ. norm   :     0.0836927 α      lambda       -0.4141866E-04
   maximum displ.:     0.0433356 α      in ANC's #19, #8, #14, ...

........................................................................
.............................. CYCLE   25 ..............................
........................................................................
   1   -264.0965467 -0.264097E+03  0.439E-03    0.09       0.0  T
   2   -264.0301994  0.663473E-01  0.310E-01    0.09       1.0  T
   3   -264.0808978 -0.506984E-01  0.152E-01    0.10       1.0  T
   4   -264.0964557 -0.155579E-01  0.128E-02    0.09       1.0  T
   5   -264.0962593  0.196362E-03  0.202E-02    0.09       1.0  T
   6   -264.0963917 -0.132356E-03  0.152E-02    0.09       1.0  T
   7   -264.0965493 -0.157649E-03  0.329E-03    0.09       2.6  T
   8   -264.0965526 -0.326604E-05  0.257E-03    0.09       3.4  T
   9   -264.0965553 -0.268646E-05  0.158E-03    0.09       5.5  T
  10   -264.0965569 -0.162063E-05  0.415E-04    0.09      21.0  T
  11   -264.0965569 -0.784769E-08  0.402E-04    0.09      21.7  T
  12   -264.0965570 -0.707069E-07  0.217E-04    0.09      40.1  T
  13   -264.0965570 -0.225844E-07  0.113E-04    0.09      76.8  T
  14   -264.0965570 -0.816834E-08  0.333E-05    0.09     261.0  T
     SCC iter.                  ...        0 min,  0.769 sec
     gradient                   ...        0 min,  0.309 sec
 * total energy  :  -260.4866746 Eh     change       -0.2517857E-04 Eh
   gradient norm :     0.0014719 Eh/α   predicted    -0.2085583E-04 ( -17.17%)
   displ. norm   :     0.2348446 α      lambda       -0.5434368E-04
   maximum displ.:     0.1252002 α      in ANC's #19, #8, #25, ...

........................................................................
.............................. CYCLE   26 ..............................
........................................................................
   1   -264.0954638 -0.264095E+03  0.843E-03    0.09       0.0  T
   2   -263.8852471  0.210217E+00  0.552E-01    0.08       1.0  T
   3   -264.0348006 -0.149554E+00  0.300E-01    0.10       1.0  T
   4   -264.0954254 -0.606248E-01  0.117E-02    0.09       1.0  T
   5   -264.0951863  0.239119E-03  0.209E-02    0.09       1.0  T
   6   -264.0950652  0.121166E-03  0.248E-02    0.09       1.0  T
   7   -264.0954129 -0.347792E-03  0.112E-02    0.09       1.0  T
   8   -264.0954908 -0.778156E-04  0.442E-03    0.09       2.0  T
   9   -264.0954891  0.161324E-05  0.431E-03    0.09       2.0  T
  10   -264.0955023 -0.131476E-04  0.319E-04    0.09      27.3  T
  11   -264.0955023  0.187828E-07  0.366E-04    0.09      23.8  T
  12   -264.0955022  0.782844E-07  0.497E-04    0.09      17.5  T
  13   -264.0955023 -0.856326E-07  0.342E-04    0.09      25.4  T
  14   -264.0955024 -0.664938E-07  0.143E-04    0.09      60.8  T
  15   -264.0955024 -0.464763E-08  0.117E-04    0.09      74.7  T
     SCC iter.                  ...        0 min,  0.810 sec
     gradient                   ...        0 min,  0.310 sec
 * total energy  :  -260.4866811 Eh     change       -0.6520507E-05 Eh
   gradient norm :     0.0045728 Eh/α   predicted    -0.2783894E-04 ( 326.94%)
   displ. norm   :     0.0734703 α      lambda       -0.6384862E-04
   maximum displ.:     0.0396926 α      in ANC's #19, #8, #14, ...

........................................................................
.............................. CYCLE   27 ..............................
........................................................................
   1   -264.0962994 -0.264096E+03  0.985E-04    0.09       0.0  T
   2   -264.0946081  0.169130E-02  0.505E-02    0.09       1.0  T
   3   -264.0951925 -0.584423E-03  0.401E-02    0.09       1.0  T
   4   -264.0962991 -0.110658E-02  0.115E-03    0.09       7.6  T
   5   -264.0962953  0.383237E-05  0.253E-03    0.09       3.4  T
   6   -264.0962879  0.735244E-05  0.407E-03    0.09       2.1  T
   7   -264.0962935 -0.551485E-05  0.298E-03    0.09       2.9  T
   8   -264.0962998 -0.633767E-05  0.369E-04    0.09      23.6  T
   9   -264.0962999 -0.981640E-07  0.145E-05    0.09     602.3  T
  10   -264.0962999  0.574119E-09  0.335E-05    0.09     259.5  T
     SCC iter.                  ...        0 min,  0.557 sec
     gradient                   ...        0 min,  0.311 sec
 * total energy  :  -260.4867302 Eh     change       -0.4914376E-04 Eh
   gradient norm :     0.0031334 Eh/α   predicted    -0.3209889E-04 ( -34.68%)
   displ. norm   :     0.1265261 α      lambda       -0.7035014E-04
   maximum displ.:     0.0751866 α      in ANC's #19, #8, #14, ...

........................................................................
.............................. CYCLE   28 ..............................
........................................................................
   1   -264.0974933 -0.264097E+03  0.271E-03    0.09       0.0  T
   2   -264.0888166  0.867667E-02  0.115E-01    0.10       1.0  T
   3   -264.0855291  0.328749E-02  0.131E-01    0.09       1.0  T
   4   -264.0972671 -0.117380E-01  0.179E-02    0.09       1.0  T
   5   -264.0971026  0.164523E-03  0.232E-02    0.09       1.0  T
   6   -264.0973420 -0.239395E-03  0.147E-02    0.09       1.0  T
   7   -264.0974956 -0.153654E-03  0.114E-03    0.09       7.6  T
   8   -264.0974904  0.527895E-05  0.294E-03    0.09       3.0  T
   9   -264.0974959 -0.558554E-05  0.896E-04    0.09       9.7  T
  10   -264.0974963 -0.376930E-06  0.518E-04    0.09      16.8  T
  11   -264.0974964 -0.106373E-06  0.340E-04    0.09      25.6  T
  12   -264.0974965 -0.589083E-07  0.179E-04    0.09      48.6  T
  13   -264.0974965 -0.154270E-07  0.997E-05    0.09      87.3  T
     SCC iter.                  ...        0 min,  0.709 sec
     gradient                   ...        0 min,  0.311 sec
 * total energy  :  -260.4867767 Eh     change       -0.4652549E-04 Eh
   gradient norm :     0.0011858 Eh/α   predicted    -0.3573889E-04 ( -23.18%)
   displ. norm   :     0.1904019 α      lambda        0.6049008E-05
   maximum displ.:     0.1131523 α      in ANC's #19, #8, #14, ...

........................................................................
.............................. CYCLE   29 ..............................
........................................................................
   1   -264.0987507 -0.264099E+03  0.389E-03    0.09       0.0  T
   2   -264.0798307  0.189200E-01  0.169E-01    0.10       1.0  T
   3   -264.0753023  0.452835E-02  0.183E-01    0.09       1.0  T
   4   -264.0982209 -0.229186E-01  0.275E-02    0.09       1.0  T
   5   -264.0976256  0.595255E-03  0.393E-02    0.09       1.0  T
   6   -264.0983933 -0.767712E-03  0.225E-02    0.09       1.0  T
   7   -264.0987533 -0.360018E-03  0.250E-03    0.09       3.5  T
   8   -264.0987421  0.112088E-04  0.462E-03    0.09       1.9  T
   9   -264.0987551 -0.129691E-04  0.173E-03    0.09       5.0  T
  10   -264.0987564 -0.130788E-05  0.105E-03    0.09       8.3  T
  11   -264.0987569 -0.464484E-06  0.671E-04    0.09      13.0  T
  12   -264.0987571 -0.199750E-06  0.406E-04    0.09      21.5  T
  13   -264.0987572 -0.846359E-07  0.207E-04    0.09      42.0  T
  14   -264.0987572 -0.249518E-07  0.858E-05    0.09     101.4  T
  15   -264.0987572 -0.344158E-08  0.491E-05    0.09     177.2  T
     SCC iter.                  ...        0 min,  0.816 sec
     gradient                   ...        0 min,  0.312 sec
 * total energy  :  -260.4867582 Eh     change        0.1856375E-04 Eh
   gradient norm :     0.0043637 Eh/α   predicted     0.3073057E-05 ( -83.45%)
   displ. norm   :     0.0405538 α      lambda       -0.6342395E-04
   maximum displ.:     0.0173197 α      in ANC's #19, #8, #14, ...

........................................................................
.............................. CYCLE   30 ..............................
........................................................................
   1   -264.0981338 -0.264098E+03  0.149E-03    0.09       0.0  T
   2   -264.0911722  0.696164E-02  0.100E-01    0.09       1.0  T
   3   -264.0964937 -0.532157E-02  0.492E-02    0.09       1.0  T
   4   -264.0981129 -0.161912E-02  0.597E-03    0.09       1.5  T
   5   -264.0981019  0.110033E-04  0.671E-03    0.09       1.3  T
   6   -264.0980957  0.618574E-05  0.736E-03    0.09       1.2  T
   7   -264.0981332 -0.375303E-04  0.149E-03    0.09       5.8  T
   8   -264.0981346 -0.135451E-05  0.582E-04    0.09      15.0  T
   9   -264.0981347 -0.992491E-07  0.438E-04    0.09      19.9  T
  10   -264.0981348 -0.129606E-06  0.958E-05    0.09      90.9  T
  11   -264.0981348 -0.168905E-08  0.801E-05    0.09     108.7  T
     SCC iter.                  ...        0 min,  0.601 sec
     gradient                   ...        0 min,  0.310 sec
 * total energy  :  -260.4868080 Eh     change       -0.4984174E-04 Eh
   gradient norm :     0.0025994 Eh/α   predicted    -0.3176857E-04 ( -36.26%)
   displ. norm   :     0.1487310 α      lambda       -0.8162068E-04
   maximum displ.:     0.0827985 α      in ANC's #19, #8, #14, ...

........................................................................
.............................. CYCLE   31 ..............................
........................................................................
   1   -264.0967611 -0.264097E+03  0.400E-03    0.09       0.0  T
   2   -264.0681837  0.285774E-01  0.206E-01    0.10       1.0  T
   3   -264.0737619 -0.557821E-02  0.182E-01    0.09       1.0  T
   4   -264.0966027 -0.228408E-01  0.159E-02    0.09       1.0  T
   5   -264.0962757  0.327054E-03  0.260E-02    0.09       1.0  T
   6   -264.0965796 -0.303894E-03  0.162E-02    0.09       1.0  T
   7   -264.0967619 -0.182342E-03  0.334E-03    0.09       2.6  T
   8   -264.0967637 -0.177921E-05  0.272E-03    0.09       3.2  T
   9   -264.0967667 -0.294332E-05  0.174E-03    0.09       5.0  T
  10   -264.0967684 -0.177815E-05  0.719E-04    0.09      12.1  T
  11   -264.0967686 -0.170205E-06  0.511E-04    0.09      17.0  T
  12   -264.0967687 -0.122028E-06  0.286E-04    0.09      30.4  T
  13   -264.0967688 -0.399810E-07  0.154E-04    0.09      56.4  T
  14   -264.0967688 -0.139203E-07  0.633E-05    0.09     137.4  T
     SCC iter.                  ...        0 min,  0.759 sec
     gradient                   ...        0 min,  0.313 sec
 * total energy  :  -260.4868610 Eh     change       -0.5297832E-04 Eh
   gradient norm :     0.0011415 Eh/α   predicted    -0.4171338E-04 ( -21.26%)
   displ. norm   :     0.2863156 α      lambda       -0.4091855E-04
   maximum displ.:     0.1689778 α      in ANC's #19, #8, #14, ...

........................................................................
.............................. CYCLE   32 ..............................
........................................................................
   1   -264.0957226 -0.264096E+03  0.537E-03    0.09       0.0  T
   2   -264.0712588  0.244638E-01  0.196E-01    0.11       1.0  T
   3   -264.0389886  0.322702E-01  0.284E-01    0.09       1.0  T
   4   -264.0955373 -0.565487E-01  0.172E-02    0.09       1.0  T
   5   -264.0950308  0.506541E-03  0.311E-02    0.09       1.0  T
   6   -264.0955886 -0.557806E-03  0.144E-02    0.09       1.0  T
   7   -264.0957283 -0.139693E-03  0.399E-03    0.09       2.2  T
   8   -264.0957293 -0.106182E-05  0.338E-03    0.09       2.6  T
   9   -264.0957359 -0.655648E-05  0.139E-03    0.09       6.3  T
  10   -264.0957359 -0.108413E-07  0.137E-03    0.09       6.4  T
  11   -264.0957368 -0.920561E-06  0.748E-04    0.09      11.6  T
  12   -264.0957371 -0.258535E-06  0.441E-04    0.09      19.7  T
  13   -264.0957371 -0.687091E-07  0.304E-04    0.09      28.6  T
  14   -264.0957372 -0.538723E-07  0.120E-04    0.09      72.5  T
  15   -264.0957372 -0.359529E-08  0.949E-05    0.09      91.7  T
     SCC iter.                  ...        0 min,  0.817 sec
     gradient                   ...        0 min,  0.310 sec
 * total energy  :  -260.4869102 Eh     change       -0.4918273E-04 Eh
   gradient norm :     0.0021303 Eh/α   predicted    -0.2120886E-04 ( -56.88%)
   displ. norm   :     0.2528942 α      lambda       -0.5780292E-04
   maximum displ.:     0.1473010 α      in ANC's #19, #8, #14, ...

........................................................................
.............................. CYCLE   33 ..............................
........................................................................
   1   -264.0954696 -0.264095E+03  0.426E-03    0.09       0.0  T
   2   -264.0867596  0.870996E-02  0.123E-01    0.12       1.0  T
   3   -264.0879230 -0.116345E-02  0.103E-01    0.09       1.0  T
   4   -264.0953470 -0.742400E-02  0.139E-02    0.09       1.0  T
   5   -264.0954573 -0.110281E-03  0.543E-03    0.09       1.6  T
   6   -264.0954671 -0.976012E-05  0.410E-03    0.09       2.1  T
   7   -264.0954760 -0.890733E-05  0.206E-03    0.09       4.2  T
   8   -264.0954778 -0.182092E-05  0.129E-03    0.09       6.7  T
   9   -264.0954789 -0.109498E-05  0.197E-04    0.09      44.1  T
  10   -264.0954789 -0.200658E-07  0.500E-05    0.09     174.1  T
  11   -264.0954789  0.250276E-08  0.764E-05    0.09     113.9  T
     SCC iter.                  ...        0 min,  0.601 sec
     gradient                   ...        0 min,  0.311 sec
 * total energy  :  -260.4869638 Eh     change       -0.5356259E-04 Eh
   gradient norm :     0.0019383 Eh/α   predicted    -0.3075407E-04 ( -42.58%)
   displ. norm   :     0.7180522 α      lambda       -0.1107674E-03
   maximum displ.:     0.4171310 α      in ANC's #19, #8, #14, ...

........................................................................
.............................. CYCLE   34 ..............................
........................................................................
   1   -264.0937966 -0.264094E+03  0.130E-02    0.09       0.0  T
   2   -264.0145044  0.792921E-01  0.353E-01    0.11       1.0  T
   3   -263.6420362  0.372468E+00  0.804E-01    0.06       1.0  T
   4   -264.0938451 -0.451809E+00  0.856E-03    0.09       1.0  T
   5   -264.0937844  0.606531E-04  0.117E-02    0.09       1.0  T
   6   -264.0935504  0.234057E-03  0.216E-02    0.09       1.0  T
   7   -264.0938405 -0.290162E-03  0.868E-03    0.09       1.0  T
   8   -264.0938819 -0.413785E-04  0.225E-03    0.09       3.9  T
   9   -264.0938787  0.315799E-05  0.303E-03    0.09       2.9  T
  10   -264.0938845 -0.574416E-05  0.101E-03    0.09       8.6  T
  11   -264.0938848 -0.288939E-06  0.796E-04    0.09      10.9  T
  12   -264.0938850 -0.196975E-06  0.579E-04    0.09      15.0  T
  13   -264.0938851 -0.121681E-06  0.387E-04    0.09      22.5  T
  14   -264.0938851 -0.481157E-07  0.265E-04    0.09      32.9  T
  15   -264.0938852 -0.351698E-07  0.139E-04    0.09      62.4  T
  16   -264.0938852  0.970772E-09  0.142E-04    0.09      61.2  T
     SCC iter.                  ...        0 min,  0.868 sec
     gradient                   ...        0 min,  0.309 sec
 * total energy  :  -260.4870943 Eh     change       -0.1305409E-03 Eh
   gradient norm :     0.0019895 Eh/α   predicted    -0.6807889E-04 ( -47.85%)
   displ. norm   :     0.7046476 α      lambda       -0.8236466E-04
   maximum displ.:     0.4095933 α      in ANC's #19, #8, #14, ...

........................................................................
.............................. CYCLE   35 ..............................
........................................................................
   1   -264.0916615 -0.264092E+03  0.118E-02    0.09       0.0  T
   2   -264.0355067  0.561548E-01  0.301E-01    0.12       1.0  T
   3   -263.7794351  0.256072E+00  0.668E-01    0.07       1.0  T
   4   -264.0912480 -0.311813E+00  0.261E-02    0.09       1.0  T
   5   -264.0898852  0.136282E-02  0.507E-02    0.09       1.0  T
   6   -264.0913775 -0.149225E-02  0.228E-02    0.10       1.0  T
   7   -264.0915966 -0.219141E-03  0.143E-02    0.09       1.0  T
   8   -264.0917359 -0.139297E-03  0.780E-04    0.09      11.2  T
   9   -264.0917253  0.105678E-04  0.401E-03    0.09       2.2  T
  10   -264.0917307 -0.536849E-05  0.287E-03    0.09       3.0  T
  11   -264.0917346 -0.386070E-05  0.165E-03    0.09       5.3  T
  12   -264.0917353 -0.764715E-06  0.125E-03    0.09       7.0  T
  13   -264.0917360 -0.661225E-06  0.758E-04    0.09      11.5  T
  14   -264.0917363 -0.265849E-06  0.399E-04    0.09      21.8  T
  15   -264.0917364 -0.102188E-06  0.115E-04    0.09      75.8  T
  16   -264.0917364 -0.700680E-08  0.553E-05    0.09     157.4  T
     SCC iter.                  ...        0 min,  0.869 sec
     gradient                   ...        0 min,  0.311 sec
 * total energy  :  -260.4871918 Eh     change       -0.9752734E-04 Eh
   gradient norm :     0.0024054 Eh/α   predicted    -0.5027211E-04 ( -48.45%)
   displ. norm   :     0.4360387 α      lambda       -0.8024632E-04
   maximum displ.:     0.2589961 α      in ANC's #19, #22, #8, ...

........................................................................
[...]
    15   6 C    3.905 --    17 C    1.384    13 C    1.340    16 O    1.014
    16   8 O    2.025 --    15 C    1.014    50 H    0.860
    17   6 C    3.973 --     9 C    1.386    15 C    1.384    51 H    0.969
    18   6 C    3.917 --     8 C    1.333    21 N    1.201    19 C    1.180
    19   6 C    3.957 --    20 C    1.637    18 C    1.180    52 H    0.973
    20   6 C    3.960 --    19 C    1.637    22 C    1.189    53 H    0.973
    21   7 N    3.379 --    22 C    1.247    18 C    1.201     1 Fe   0.658
    22   6 C    3.904 --    23 C    1.249    21 N    1.247    20 C    1.189
    23   6 C    3.923 --    24 C    1.249    22 C    1.249   125 C    1.206
    24   6 C    3.903 --    23 C    1.249    28 N    1.247    25 C    1.188
    25   6 C    3.960 --    26 C    1.639    24 C    1.188    54 H    0.973
    26   6 C    3.957 --    25 C    1.639    27 C    1.179    55 H    0.973
    27   6 C    3.916 --    29 C    1.336    28 N    1.200    26 C    1.179
    28   7 N    3.380 --    24 C    1.247    27 C    1.200     1 Fe   0.661
    29   6 C    3.925 --    27 C    1.336    39 C    1.313    30 C    1.024
    30   6 C    3.988 --    31 C    1.399    38 C    1.387    29 C    1.024
    31   6 C    3.977 --    30 C    1.399    32 C    1.379    56 H    0.970
    32   6 C    3.917 --    31 C    1.379    34 C    1.324    33 O    1.053
    33   8 O    2.049 --    32 C    1.053    57 H    0.847
    34   6 C    3.904 --    36 C    1.340    32 C    1.324    35 O    1.021
    35   8 O    2.021 --    34 C    1.021    58 H    0.846
    36   6 C    3.905 --    38 C    1.384    34 C    1.340    37 O    1.014
    37   8 O    2.025 --    36 C    1.014    59 H    0.860
    38   6 C    3.973 --    30 C    1.387    36 C    1.384    60 H    0.970
    39   6 C    3.920 --    29 C    1.313    43 N    1.226    40 C    1.176
    40   6 C    3.962 --    41 C    1.648    39 C    1.176    61 H    0.973
    41   6 C    3.959 --    40 C    1.648    42 C    1.174    62 H    0.975
    42   6 C    3.925 --     2 C    1.362    43 N    1.211    41 C    1.174
    43   7 N    3.380 --    39 C    1.226    42 C    1.211     1 Fe   0.665
    44   1 H    1.001 --     2 C    0.970
    45   1 H    0.997 --     4 C    0.975
    46   1 H    1.005 --     5 C    0.973
    47   1 H    0.999 --    10 C    0.970
    48   1 H    0.877 --    12 O    0.847
    49   1 H    0.876 --    14 O    0.846
    50   1 H    0.881 --    16 O    0.860
    51   1 H    1.000 --    17 C    0.969
    52   1 H    1.005 --    19 C    0.973
    53   1 H    1.002 --    20 C    0.973
    54   1 H    1.002 --    25 C    0.973
    55   1 H    1.005 --    26 C    0.973
    56   1 H    0.999 --    31 C    0.970
    57   1 H    0.877 --    33 O    0.847
    58   1 H    0.876 --    35 O    0.846
    59   1 H    0.881 --    37 O    0.860
    60   1 H    1.000 --    38 C    0.970
    61   1 H    1.006 --    40 C    0.973
    62   1 H    0.998 --    41 C    0.975
    63  26 Fe   3.138 --    69 N    0.668   105 N    0.665    90 N    0.661
                            83 N    0.659
    64   6 C    3.923 --    65 C    1.364   104 C    1.362   106 H    0.970
    65   6 C    3.925 --    64 C    1.364    69 N    1.210    66 C    1.173
    66   6 C    3.959 --    67 C    1.650    65 C    1.173   107 H    0.975
    67   6 C    3.962 --    66 C    1.650    68 C    1.175   108 H    0.973
    68   6 C    3.920 --    70 C    1.315    69 N    1.225    67 C    1.175
    69   7 N    3.381 --    68 C    1.225    65 C    1.210    63 Fe   0.668
    70   6 C    3.926 --    80 C    1.333    68 C    1.315    71 C    1.026
    71   6 C    3.988 --    72 C    1.398    79 C    1.386    70 C    1.026
    72   6 C    3.977 --    71 C    1.398    73 C    1.380   109 H    0.970
    73   6 C    3.917 --    72 C    1.380    75 C    1.323    74 O    1.053
    74   8 O    2.049 --    73 C    1.053   110 H    0.847
    75   6 C    3.903 --    77 C    1.340    73 C    1.323    76 O    1.022
    76   8 O    2.021 --    75 C    1.022   111 H    0.846
    77   6 C    3.905 --    79 C    1.384    75 C    1.340    78 O    1.014
    78   8 O    2.025 --    77 C    1.014   112 H    0.860
    79   6 C    3.973 --    71 C    1.386    77 C    1.384   113 H    0.969
    80   6 C    3.917 --    70 C    1.333    83 N    1.201    81 C    1.181
    81   6 C    3.957 --    82 C    1.637    80 C    1.181   114 H    0.973
    82   6 C    3.960 --    81 C    1.637    84 C    1.189   115 H    0.973
    83   7 N    3.379 --    84 C    1.247    80 C    1.201    63 Fe   0.659
    84   6 C    3.904 --    85 C    1.248    83 N    1.247    82 C    1.189
    85   6 C    3.924 --    86 C    1.250    84 C    1.248   132 C    1.206
    86   6 C    3.903 --    85 C    1.250    90 N    1.247    87 C    1.188
    87   6 C    3.960 --    88 C    1.639    86 C    1.188   116 H    0.973
    88   6 C    3.957 --    87 C    1.639    89 C    1.179   117 H    0.973
    89   6 C    3.916 --    91 C    1.336    90 N    1.200    88 C    1.179
    90   7 N    3.380 --    86 C    1.247    89 C    1.200    63 Fe   0.661
    91   6 C    3.926 --    89 C    1.336   101 C    1.313    92 C    1.024
    92   6 C    3.988 --    93 C    1.399   100 C    1.387    91 C    1.024
    93   6 C    3.977 --    92 C    1.399    94 C    1.379   118 H    0.970
    94   6 C    3.917 --    93 C    1.379    96 C    1.324    95 O    1.053
    95   8 O    2.049 --    94 C    1.053   119 H    0.847
    96   6 C    3.904 --    98 C    1.340    94 C    1.324    97 O    1.021
    97   8 O    2.021 --    96 C    1.021   120 H    0.846
    98   6 C    3.905 --   100 C    1.384    96 C    1.340    99 O    1.014
    99   8 O    2.025 --    98 C    1.014   121 H    0.860
   100   6 C    3.973 --    92 C    1.387    98 C    1.384   122 H    0.969
   101   6 C    3.920 --    91 C    1.313   105 N    1.226   102 C    1.176
   102   6 C    3.962 --   103 C    1.648   101 C    1.176   123 H    0.973
   103   6 C    3.959 --   102 C    1.648   104 C    1.174   124 H    0.975
   104   6 C    3.925 --    64 C    1.362   105 N    1.211   103 C    1.174
   105   7 N    3.380 --   101 C    1.226   104 C    1.211    63 Fe   0.665
   106   1 H    1.001 --    64 C    0.970
   107   1 H    0.997 --    66 C    0.975
   108   1 H    1.005 --    67 C    0.973
   109   1 H    0.999 --    72 C    0.970
   110   1 H    0.877 --    74 O    0.847
   111   1 H    0.876 --    76 O    0.846
   112   1 H    0.881 --    78 O    0.860
   113   1 H    1.000 --    79 C    0.969
   114   1 H    1.005 --    81 C    0.973
   115   1 H    1.002 --    82 C    0.973
   116   1 H    1.002 --    87 C    0.973
   117   1 H    1.005 --    88 C    0.973
   118   1 H    0.999 --    93 C    0.970
   119   1 H    0.877 --    95 O    0.847
   120   1 H    0.876 --    97 O    0.846
   121   1 H    0.881 --    99 O    0.860
   122   1 H    1.000 --   100 C    0.969
   123   1 H    1.006 --   102 C    0.973
   124   1 H    0.998 --   103 C    0.975
   125   6 C    3.865 --   126 C    2.411    23 C    1.206   128 C    0.182
   126   6 C    3.923 --   125 C    2.411   127 C    1.363
   127   6 C    3.881 --   128 C    2.306   126 C    1.363   130 C    0.178
   128   6 C    3.914 --   127 C    2.306   129 C    1.389   125 C    0.182
   129   6 C    3.914 --   130 C    2.306   128 C    1.389   132 C    0.182
   130   6 C    3.881 --   129 C    2.306   131 C    1.363   127 C    0.178
   131   6 C    3.923 --   132 C    2.411   130 C    1.363
   132   6 C    3.865 --   131 C    2.411    85 C    1.206   129 C    0.182
 ---------------------------------------------------------------------------

Topologies differ in total number of bonds
Writing topology from bond orders to xtbtopo.mol

 dipole moment from electron density (au)
     X       Y       Z   
   0.0204   0.0320  -0.4491  total (Debye):    1.146

           -------------------------------------------------
          |                Geometry Summary                 |
           -------------------------------------------------

      molecular mass/u    :     1318.8115069
   center of mass at/Å    :       22.7188736      -0.0017429       0.0024855
  moments of inertia/u·Å² :        0.3032353E+05   0.1111033E+06   0.1394801E+06
rotational constants/cm⁻¹ :        0.5559258E-03   0.1517293E-03   0.1208604E-03

 * 134 selected distances

     #   Z          #   Z                                           value/Å
     2   6 C        3   6 C                                       1.3790193
     3   6 C        4   6 C                                       1.4317080
     4   6 C        5   6 C                                       1.3533521
     5   6 C        6   6 C                                       1.4346447
     3   6 C        7   7 N                                       1.3703775
     6   6 C        7   7 N                                       1.3690048
     6   6 C        8   6 C                                       1.3905053
     9   6 C       10   6 C                                       1.3948732
    10   6 C       11   6 C                                       1.3899695
    11   6 C       12   8 O                                       1.3550112
    11   6 C       13   6 C                                       1.3960644
    13   6 C       14   8 O                                       1.3698447
    13   6 C       15   6 C                                       1.3926640
    15   6 C       16   8 O                                       1.3700052
     9   6 C       17   6 C                                       1.3973191
    15   6 C       17   6 C                                       1.3893688
     8   6 C       18   6 C                                       1.3876642
    18   6 C       19   6 C                                       1.4326458
    19   6 C       20   6 C                                       1.3545650
    18   6 C       21   7 N                                       1.3749207
    20   6 C       22   6 C                                       1.4291123
    21   7 N       22   6 C                                       1.3630932
    22   6 C       23   6 C                                       1.4002955
    23   6 C       24   6 C                                       1.4002325
    24   6 C       25   6 C                                       1.4292815
    25   6 C       26   6 C                                       1.3541936
    26   6 C       27   6 C                                       1.4328534
    24   6 C       28   7 N                                       1.3631345
    27   6 C       28   7 N                                       1.3754030
    27   6 C       29   6 C                                       1.3873155
    30   6 C       31   6 C                                       1.3945787
    31   6 C       32   6 C                                       1.3901434
    32   6 C       33   8 O                                       1.3551042
    32   6 C       34   6 C                                       1.3959567
    34   6 C       35   8 O                                       1.3699884
    34   6 C       36   6 C                                       1.3925848
    36   6 C       37   8 O                                       1.3700268
    30   6 C       38   6 C                                       1.3972472
    36   6 C       38   6 C                                       1.3893556
    29   6 C       39   6 C                                       1.3908162
    39   6 C       40   6 C                                       1.4345865
    40   6 C       41   6 C                                       1.3535757
     2   6 C       42   6 C                                       1.3793444
    41   6 C       42   6 C                                       1.4314446
    39   6 C       43   7 N                                       1.3688297
    42   6 C       43   7 N                                       1.3701821
     2   6 C       44   1 H                                       1.0842902
     4   6 C       45   1 H                                       1.0784307
     5   6 C       46   1 H                                       1.0778049
    10   6 C       47   1 H                                       1.0823244
    12   8 O       48   1 H                                       0.9714713
    14   8 O       49   1 H                                       0.9705187
    16   8 O       50   1 H                                       0.9661803
    17   6 C       51   1 H                                       1.0836299
    19   6 C       52   1 H                                       1.0777844
    20   6 C       53   1 H                                       1.0780793
    25   6 C       54   1 H                                       1.0780448
    26   6 C       55   1 H                                       1.0776476
    31   6 C       56   1 H                                       1.0822788
    33   8 O       57   1 H                                       0.9714851
    35   8 O       58   1 H                                       0.9705416
    37   8 O       59   1 H                                       0.9661880
    38   6 C       60   1 H                                       1.0836323
    40   6 C       61   1 H                                       1.0779089
    41   6 C       62   1 H                                       1.0784453
    64   6 C       65   6 C                                       1.3790164
    65   6 C       66   6 C                                       1.4317118
    66   6 C       67   6 C                                       1.3533269
    67   6 C       68   6 C                                       1.4346732 (max)
    65   6 C       69   7 N                                       1.3703792
    68   6 C       69   7 N                                       1.3690881
    68   6 C       70   6 C                                       1.3905071
    71   6 C       72   6 C                                       1.3948681
    72   6 C       73   6 C                                       1.3899859
    73   6 C       74   8 O                                       1.3550052
    73   6 C       75   6 C                                       1.3960481
    75   6 C       76   8 O                                       1.3698402
    75   6 C       77   6 C                                       1.3926890
    77   6 C       78   8 O                                       1.3699617
    71   6 C       79   6 C                                       1.3973790
    77   6 C       79   6 C                                       1.3893255
    70   6 C       80   6 C                                       1.3877604
    80   6 C       81   6 C                                       1.4326394
    81   6 C       82   6 C                                       1.3545801
    80   6 C       83   7 N                                       1.3748495
    82   6 C       84   6 C                                       1.4290666
    83   7 N       84   6 C                                       1.3630348
    84   6 C       85   6 C                                       1.4003501
    85   6 C       86   6 C                                       1.4001540
    86   6 C       87   6 C                                       1.4292041
    87   6 C       88   6 C                                       1.3541968
    88   6 C       89   6 C                                       1.4328366
    86   6 C       90   7 N                                       1.3632966
    89   6 C       90   7 N                                       1.3753850
    89   6 C       91   6 C                                       1.3874121
    92   6 C       93   6 C                                       1.3946341
    93   6 C       94   6 C                                       1.3901122
    94   6 C       95   8 O                                       1.3550981
    94   6 C       96   6 C                                       1.3959827
    96   6 C       97   8 O                                       1.3699603
    96   6 C       98   6 C                                       1.3926064
    98   6 C       99   8 O                                       1.3700127
    92   6 C      100   6 C                                       1.3972682
    98   6 C      100   6 C                                       1.3893579
    91   6 C      101   6 C                                       1.3908142
   101   6 C      102   6 C                                       1.4346250
   102   6 C      103   6 C                                       1.3535594
    64   6 C      104   6 C                                       1.3793403
   103   6 C      104   6 C                                       1.4314601
   101   6 C      105   7 N                                       1.3688272
   104   6 C      105   7 N                                       1.3701165
    64   6 C      106   1 H                                       1.0842937
    66   6 C      107   1 H                                       1.0784244
    67   6 C      108   1 H                                       1.0777998
    72   6 C      109   1 H                                       1.0823224
    74   8 O      110   1 H                                       0.9714717
    76   8 O      111   1 H                                       0.9705209
    78   8 O      112   1 H                                       0.9661816
    79   6 C      113   1 H                                       1.0836292
    81   6 C      114   1 H                                       1.0777768
    82   6 C      115   1 H                                       1.0780719
    87   6 C      116   1 H                                       1.0780493
    88   6 C      117   1 H                                       1.0776319
    93   6 C      118   1 H                                       1.0822836
    95   8 O      119   1 H                                       0.9714710
    97   8 O      120   1 H                                       0.9705063
    99   8 O      121   1 H                                       0.9661609 (min)
   100   6 C      122   1 H                                       1.0836304
   102   6 C      123   1 H                                       1.0779052
   103   6 C      124   1 H                                       1.0784439
   125   6 C      126   6 C                                       1.2265766
   127   6 C      128   6 C                                       1.2328248
   129   6 C      130   6 C                                       1.2328761
   131   6 C      132   6 C                                       1.2265673

 * 5 distinct bonds (by element types)

   Z      Z             #   av. dist./Å        max./Å        min./Å
   1 H    6 C          26     1.0800217     1.0842937     1.0776319
   6 C    6 C          68     1.3872591     1.4346732     1.2265673
   6 C    7 N          16     1.3693701     1.3754030     1.3630348
   1 H    8 O          12     0.9693915     0.9714851     0.9661609
   6 C    8 O          12     1.3649882     1.3700268     1.3550052


optimized geometry written to: xtbopt.xyz


           -------------------------------------------------
          | TOTAL ENERGY             -260.488789324124 Eh   |
          | GRADIENT NORM               0.000502793622 Eh/α |
          | HOMO-LUMO GAP               0.088361952132 eV   |
           -------------------------------------------------

------------------------------------------------------------------------
 * finished run on 2022/07/29 at 22:29:59.465     
------------------------------------------------------------------------
 total:
 * wall-time:     0 d,  0 h,  1 min, 23.406 sec
 *  cpu-time:     0 d,  0 h,  1 min, 22.934 sec
 * ratio c/w:     0.994 speedup
 SCF:
 * wall-time:     0 d,  0 h,  0 min,  4.595 sec
 *  cpu-time:     0 d,  0 h,  0 min,  4.569 sec
 * ratio c/w:     0.994 speedup
 ANC optimizer:
 * wall-time:     0 d,  0 h,  1 min, 18.647 sec
 *  cpu-time:     0 d,  0 h,  1 min, 18.223 sec
 * ratio c/w:     0.995 speedup

