      -----------------------------------------------------------      
     |                   =====================                   |     
     |                           x T B                           |     
     |                   =====================                   |     
     |                         S. Grimme                         |     
     |          Mulliken Center for Theoretical Chemistry        |     
     |                    University of Bonn                     |     
      -----------------------------------------------------------      

   * xtb version 6.5.1 (b24c23e) compiled by 'conda@728c89f4b128' on 2022-07-12

   xtb is free software: you can redistribute it and/or modify it under
   the terms of the GNU Lesser General Public License as published by
   the Free Software Foundation, either version 3 of the License, or
   (at your option) any later version.
   
   xtb is distributed in the hope that it will be useful,
   but WITHOUT ANY WARRANTY; without even the implied warranty of
   MERCHANTABILITY or FITNESS FOR A PARTICULAR PURPOSE.  See the
   GNU Lesser General Public License for more details.
   
   Cite this work as:
   * C. Bannwarth, E. Caldeweyher, S. Ehlert, A. Hansen, P. Pracht,
     J. Seibert, S. Spicher, S. Grimme, WIREs Comput. Mol. Sci., 2020, 11,
     e01493. DOI: 10.1002/wcms.1493
   
   for GFN2-xTB:
   * C. Bannwarth, S. Ehlert and S. Grimme., J. Chem. Theory Comput., 2019,
     15, 1652-1671. DOI: 10.1021/acs.jctc.8b01176
   for GFN1-xTB:
   * S. Grimme, C. Bannwarth, P. Shushkov, J. Chem. Theory Comput., 2017,
     13, 1989-2009. DOI: 10.1021/acs.jctc.7b00118
   for GFN0-xTB:
   * P. Pracht, E. Caldeweyher, S. Ehlert, S. Grimme, ChemRxiv, 2019, preprint.
     DOI: 10.26434/chemrxiv.8326202.v1
   for GFN-FF:
   * S. Spicher and S. Grimme, Angew. Chem. Int. Ed., 2020, 59, 15665-15673.
     DOI: 10.1002/anie.202004239
   
   for ALPB and GBSA implicit solvation:
   * S. Ehlert, M. Stahn, S. Spicher, S. Grimme, J. Chem. Theory Comput.,
     2021, 17, 4250-4261. DOI: 10.1021/acs.jctc.1c00471
   
   for DFT-D4:
   * E. Caldeweyher, C. Bannwarth and S. Grimme, J. Chem. Phys., 2017,
     147, 034112. DOI: 10.1063/1.4993215
   * E. Caldeweyher, S. Ehlert, A. Hansen, H. Neugebauer, S. Spicher,
     C. Bannwarth and S. Grimme, J. Chem. Phys., 2019, 150, 154122.
     DOI: 10.1063/1.5090222
   * E. Caldeweyher, J.-M. Mewes, S. Ehlert and S. Grimme, Phys. Chem. Chem. Phys.
     2020, 22, 8499-8512. DOI: 10.1039/D0CP00502A
   
   for sTDA-xTB:
   * S. Grimme and C. Bannwarth, J. Chem. Phys., 2016, 145, 054103.
     DOI: 10.1063/1.4959605
   
   in the mass-spec context:
   * V. Asgeirsson, C. Bauer and S. Grimme, Chem. Sci., 2017, 8, 4879.
     DOI: 10.1039/c7sc00601b
   * J. Koopman and S. Grimme, ACS Omega 2019, 4, 12, 15120-15133.
     DOI: 10.1021/acsomega.9b02011
   
   for metadynamics refer to:
   * S. Grimme, J. Chem. Theory Comput., 2019, 155, 2847-2862
     DOI: 10.1021/acs.jctc.9b00143
   
   for SPH calculations refer to:
   * S. Spicher and S. Grimme, J. Chem. Theory Comput., 2021, 17, 1701-1714
     DOI: 10.1021/acs.jctc.0c01306
   
   with help from (in alphabetical order)
   P. Atkinson, C. Bannwarth, F. Bohle, G. Brandenburg, E. Caldeweyher
   M. Checinski, S. Dohm, S. Ehlert, S. Ehrlich, I. Gerasimov, C. Hölzer
   A. Katbashev, J. Koopman, C. Lavigne, S. Lehtola, F. März, M. Müller,
   F. Musil, H. Neugebauer, J. Pisarek, C. Plett, P. Pracht, F. Pultar,
   J. Seibert, P. Shushkov, S. Spicher, M. Stahn, M. Steiner, T. Strunk,
   J. Stückrath, T. Rose, and J. Unsleber
   
 * started run on 2022/07/28 at 17:20:01.696     

           -------------------------------------------------
          |                Calculation Setup                |
           -------------------------------------------------

          program call               : xtb xtbopt.xyz --gfn 1 --vipea
          hostname                   : cx3-2-25.cx3.hpc.ic.ac.uk
          coordinate file            : xtbopt.xyz
          omp threads                :                     1

   ID    Z sym.   atoms
    1    6 C      1-5, 7-19, 21-26, 28-41, 76-80, 82-94, 96-101, 103-116,
                  151-171, 173-185, 187-192, 194-207, 241-245, 247-259,
                  261-266, 268-281, 315-319, 321-333, 335-340, 342-355,
                  389-393, 395-407, 409-414, 416-429, 463-467, 469-481,
                  483-488, 490-503, 537-541, 543-555, 557-562, 564-577,
                  611-615, 617-629, 631-636, 638-651
    2    7 N      6, 20, 27, 42, 81, 95, 102, 117, 172, 186, 193, 208, 246,
                  260, 267, 282, 320, 334, 341, 356, 394, 408, 415, 430, 468,
                  482, 489, 504, 542, 556, 563, 578, 616, 630, 637, 652
    3    1 H      43-75, 118-150, 209-240, 283-314, 357-388, 431-462,
                  505-536, 579-610, 653-684

           -------------------------------------------------
          |                 I P E A - x T B                 |
           -------------------------------------------------

        Reference                      10.1039/c7sc00601b
      * Hamiltonian:
        H0-scaling (s, p, d)           2.150000    2.300000    2.000000
        zeta-weighting                 0.000000
      * Dispersion:
        s8                             2.400000
        a1                             0.630000
        a2                             5.000000
        s9                             0.000000
      * Repulsion:
        kExp                           1.500000
        rExp                           1.000000
      * Coulomb:
        alpha                          1.000000
        third order                    atomic
        anisotropic                    false
      * Halogen bond correction:
        rad-scale                      1.300000
        damping                        0.440000


          ...................................................
          :                      SETUP                      :
          :.................................................:
          :  # basis functions                2550          :
          :  # atomic orbitals                2550          :
          :  # shells                         1762          :
          :  # electrons                      1902          :
          :  # halogen bonds                     0          :
          :  max. iterations                   250          :
          :  Hamiltonian                  GFN1-xTB          :
          :  restarted?                      false          :
          :  GBSA solvation                  false          :
          :  PC potential                    false          :
          :  electronic temp.          300.0000000     K    :
          :  accuracy                    1.0000000          :
          :  -> integral cutoff          0.2500000E+02      :
          :  -> integral neglect         0.1000000E-07      :
          :  -> SCF convergence          0.1000000E-05 Eh   :
          :  -> wf. convergence          0.2000000E-04 e    :
          :  Broyden damping             0.4000000          :
          ...................................................

 iter      E             dE          RMSdq      gap      omega  full diag
   1  -1181.2845031 -0.118128E+04  0.954E+00    0.07       0.0  T
   2  -1184.2058507 -0.292135E+01  0.608E+00    1.03       1.0  T
   3  -1164.9133414  0.192925E+02  0.443E+00    0.02       1.0  T
   4  -1186.5605153 -0.216472E+02  0.116E+00    0.94       1.0  T
   5  -1188.8042216 -0.224371E+01  0.268E-01    0.73       1.0  T
   6  -1188.9139130 -0.109691E+00  0.913E-02    0.79       1.0  T
   7  -1188.9233379 -0.942485E-02  0.412E-02    0.77       1.0  T
   8  -1188.9238755 -0.537635E-03  0.329E-02    0.76       1.0  T
   9  -1188.9245546 -0.679065E-03  0.196E-02    0.77       1.0  T
  10  -1188.9249374 -0.382803E-03  0.500E-03    0.77       1.0  T
  11  -1188.9249717 -0.343392E-04  0.180E-03    0.77       2.1  T
  12  -1188.9249761 -0.443183E-05  0.613E-04    0.77       6.2  T
  13  -1188.9249764 -0.292424E-06  0.393E-04    0.77       9.7  T
  14  -1188.9249766 -0.153484E-06  0.165E-04    0.77      23.2  T
  15  -1188.9249766 -0.378161E-07  0.563E-05    0.77      67.9  T

   *** convergence criteria satisfied after 15 iterations ***

         #    Occupation            Energy/Eh            Energy/eV
      -------------------------------------------------------------
         1        2.0000           -1.0443175             -28.4173
       ...           ...                  ...                  ...
       945        2.0000           -0.3847007             -10.4682
       946        2.0000           -0.3801270             -10.3438
       947        2.0000           -0.3752505             -10.2111
       948        2.0000           -0.3702245             -10.0743
       949        2.0000           -0.3652442              -9.9388
       950        2.0000           -0.3605998              -9.8124
       951        2.0000           -0.3571788              -9.7193 (HOMO)
       952        0.0000           -0.3289193              -8.9504 (LUMO)
       953                         -0.3246720              -8.8348
       954                         -0.3195072              -8.6942
       955                         -0.3140758              -8.5464
       956                         -0.3087065              -8.4003
       ...                                ...                  ...
      2550                        737.0725937           20056.7662
      -------------------------------------------------------------
                  HL-Gap            0.0282595 Eh            0.7690 eV
             Fermi-level           -0.3430416 Eh           -9.3346 eV

 SCC (total)                   0 d,  0 h,  1 min, 35.523 sec
 SCC setup                      ...        0 min,  0.069 sec (  0.073%)
 Dispersion                     ...        0 min,  0.071 sec (  0.074%)
 classical contributions        ...        0 min,  0.018 sec (  0.018%)
 integral evaluation            ...        0 min,  3.610 sec (  3.779%)
 iterations                     ...        1 min, 23.953 sec ( 87.888%)
 molecular gradient             ...        0 min,  6.827 sec (  7.147%)
 printout                       ...        0 min,  0.975 sec (  1.020%)

         :::::::::::::::::::::::::::::::::::::::::::::::::::::
         ::                     SUMMARY                     ::
         :::::::::::::::::::::::::::::::::::::::::::::::::::::
         :: total energy           -1165.091118408813 Eh    ::
         :: gradient norm              0.129295564973 Eh/a0 ::
         :: HOMO-LUMO gap              0.768979194262 eV    ::
         ::.................................................::
         :: SCC energy             -1188.924976633188 Eh    ::
         :: -> electrostatic           0.550954608862 Eh    ::
         :: repulsion energy          24.455516633532 Eh    ::
         :: dispersion energy         -0.621658409156 Eh    ::
         :: halogen bond corr.         0.000000000000 Eh    ::
         :: add. restraining           0.000000000000 Eh    ::
         :: total charge              -0.000000000000 e     ::
         :::::::::::::::::::::::::::::::::::::::::::::::::::::

           ------------------------------------------------- 
          |        vertical delta SCC IP calculation        |
           ------------------------------------------------- 
   1  -1188.5472114 -0.118855E+04  0.386E-02    0.77       0.0  T
   2  -1188.5461534  0.105796E-02  0.429E-02    0.73       1.0  T
   3  -1188.5515227 -0.536932E-02  0.205E-02    0.77       1.0  T
   4  -1188.5517486 -0.225883E-03  0.159E-02    0.76       1.0  T
   5  -1188.5508190  0.929652E-03  0.171E-02    0.76       1.0  T
   6  -1188.5519208 -0.110187E-02  0.996E-03    0.76       1.0  T
   7  -1188.5523792 -0.458397E-03  0.345E-03    0.76       1.1  T
   8  -1188.5523968 -0.175549E-04  0.110E-03    0.76       3.5  T
   9  -1188.5523984 -0.160798E-05  0.686E-04    0.76       5.6  T
  10  -1188.5523990 -0.593569E-06  0.285E-04    0.76      13.4  T
  11  -1188.5523991 -0.115054E-06  0.111E-04    0.76      34.5  T
  12  -1188.5523991 -0.154096E-07  0.446E-05    0.76      85.8  T
     SCC iter.                  ...        1 min,  9.052 sec
     gradient                   ...        0 min,  6.300 sec
------------------------------------------------------------------------
empirical IP shift (eV):    4.8455
delta SCC IP (eV):    5.2928
------------------------------------------------------------------------
           ------------------------------------------------- 
          |        vertical delta SCC EA calculation        |
           ------------------------------------------------- 
   1  -1189.2210374 -0.118922E+04  0.653E-02    0.14       0.0  T
   2  -1189.2275479 -0.651052E-02  0.621E-02    0.04       1.0  T
   3  -1189.2358339 -0.828607E-02  0.345E-02    0.09       1.0  T
   4  -1189.2357868  0.471812E-04  0.281E-02    0.07       1.0  T
   5  -1189.2323628  0.342397E-02  0.305E-02    0.10       1.0  T
   6  -1189.2359941 -0.363133E-02  0.188E-02    0.08       1.0  T
   7  -1189.2377742 -0.178009E-02  0.488E-03    0.07       1.0  T
   8  -1189.2378115 -0.372534E-04  0.204E-03    0.07       1.9  T
   9  -1189.2378158 -0.428872E-05  0.115E-03    0.07       3.3  T
  10  -1189.2378173 -0.149625E-05  0.523E-04    0.07       7.3  T
  11  -1189.2378176 -0.349057E-06  0.241E-04    0.07      15.9  T
  12  -1189.2378177 -0.748421E-07  0.777E-05    0.07      49.2  T
  13  -1189.2378177 -0.751970E-08  0.376E-05    0.07     101.7  T
     SCC iter.                  ...        1 min, 14.448 sec
     gradient                   ...        0 min,  7.239 sec
------------------------------------------------------------------------
empirical EA shift (eV):    4.8455
delta SCC EA (eV):    3.6673
------------------------------------------------------------------------
           -------------------------------------------------
          |                Property Printout                |
           -------------------------------------------------

    * Orbital Energies and Occupations

         #    Occupation            Energy/Eh            Energy/eV
      -------------------------------------------------------------
         1        2.0000           -1.0182183             -27.7071
       ...           ...                  ...                  ...
       940        2.0000           -0.3583676              -9.7517
       941        2.0000           -0.3582024              -9.7472
       942        2.0000           -0.3576645              -9.7325
       943        2.0000           -0.3575901              -9.7305
       944        2.0000           -0.3575297              -9.7289
       945        2.0000           -0.3553297              -9.6690
       946        2.0000           -0.3508100              -9.5460
       947        2.0000           -0.3458214              -9.4103
       948        2.0000           -0.3405617              -9.2672
       949        2.0000           -0.3351803              -9.1207
       950        2.0000           -0.3297781              -8.9737
       951        2.0000           -0.3249063              -8.8411
       952        0.7940           -0.2967853              -8.0759 (HOMO)
       953        0.2041           -0.2942104              -8.0059 (LUMO)
       954        0.0019           -0.2895638              -7.8794
       955        0.0000           -0.2844366              -7.7399
       956                         -0.2796096              -7.6086
       957                         -0.2785553              -7.5799
       958                         -0.2780474              -7.5661
       959                         -0.2745414              -7.4707
       960                         -0.2741544              -7.4601
       961                         -0.2734117              -7.4399
       962                         -0.2718497              -7.3974
       963                         -0.2716982              -7.3933
       ...                                ...                  ...
      2550                        737.1027520           20057.5868
      -------------------------------------------------------------
                  HL-Gap            0.0025749 Eh            0.0701 eV
             Fermi-level           -0.3031886 Eh           -8.2502 eV

  Mulliken/CM5 charges         n(s)   n(p)   n(d)
     1C    -0.02252 -0.06326   1.089  2.933  0.000
     2C     0.06211  0.12256   1.108  2.830  0.000
     3C    -0.03439 -0.07968   1.083  2.951  0.000
     4C    -0.03106 -0.07611   1.077  2.954  0.000
     5C     0.06421  0.12751   1.099  2.837  0.000
     6N    -0.15743 -0.51080   1.307  3.851  0.000
     7C     0.01525  0.02006   1.078  2.906  0.000
     8C     0.00154 -0.00331   1.056  2.943  0.000
     9C     0.00177 -0.01302   1.087  2.911  0.000
    10C    -0.05680 -0.20076   1.064  2.993  0.000
    11C    -0.03174 -0.08352   1.063  2.969  0.000
    12C    -0.00352 -0.02119   1.099  2.904  0.000
    13C    -0.06241 -0.20711   1.075  2.987  0.000
    14C    -0.03179 -0.08357   1.063  2.969  0.000
    15C     0.00168 -0.01312   1.087  2.911  0.000
    16C    -0.05684 -0.20080   1.064  2.993  0.000
    17C     0.06121  0.12861   1.113  2.826  0.000
    18C    -0.03551 -0.08167   1.083  2.952  0.000
    19C    -0.03608 -0.08177   1.088  2.948  0.000
    20N    -0.28193 -0.46879   1.286  3.996  0.000
    21C     0.06397  0.13474   1.131  2.805  0.000
    22C     0.01776  0.02500   1.086  2.896  0.000
    23C     0.06655  0.13138   1.112  2.821  0.000
    24C    -0.03022 -0.07494   1.078  2.952  0.000
    25C    -0.02995 -0.07505   1.074  2.956  0.000
    26C     0.06399  0.12674   1.097  2.839  0.000
    27N    -0.15502 -0.50766   1.309  3.846  0.000
    28C     0.01497  0.01984   1.079  2.906  0.000
    29C     0.00159 -0.00325   1.056  2.943  0.000
    30C     0.00180 -0.01299   1.087  2.911  0.000
    31C    -0.05677 -0.20074   1.064  2.993  0.000
    32C    -0.03170 -0.08348   1.063  2.969  0.000
    33C    -0.00348 -0.02115   1.099  2.904  0.000
    34C    -0.06238 -0.20708   1.075  2.987  0.000
    35C    -0.03173 -0.08350   1.063  2.969  0.000
    36C     0.00181 -0.01298   1.087  2.911  0.000
    37C    -0.05679 -0.20075   1.064  2.993  0.000
    38C     0.06257  0.13121   1.117  2.821  0.000
    39C    -0.03625 -0.08234   1.087  2.949  0.000
    40C    -0.03935 -0.08571   1.094  2.945  0.000
    41C     0.05923  0.12505   1.127  2.813  0.000
    42N    -0.28480 -0.47204   1.286  3.999  0.000
    43H     0.02940  0.08830   0.971  0.000  0.000
    44H     0.03861  0.09526   0.961  0.000  0.000
    45H     0.02757  0.08599   0.972  0.000  0.000
    46H     0.16165  0.36994   0.838  0.000  0.000
    47H     0.01701  0.07074   0.983  0.000  0.000
    48H     0.01871  0.07139   0.981  0.000  0.000
    49H     0.01839  0.07224   0.982  0.000  0.000
    50H     0.03182  0.08932   0.968  0.000  0.000
    51H     0.02480  0.07668   0.975  0.000  0.000
    52H     0.02198  0.07437   0.978  0.000  0.000
    53H     0.02155  0.07397   0.978  0.000  0.000
    54H     0.03168  0.08918   0.968  0.000  0.000
    55H     0.01695  0.07065   0.983  0.000  0.000
    56H     0.01865  0.07133   0.981  0.000  0.000
    57H     0.01822  0.07206   0.982  0.000  0.000
    58H     0.01883  0.07731   0.981  0.000  0.000
    59H     0.01983  0.07812   0.980  0.000  0.000
    60H     0.02992  0.08824   0.970  0.000  0.000
    61H     0.02844  0.08692   0.972  0.000  0.000
    62H     0.15960  0.36787   0.840  0.000  0.000
    63H     0.01863  0.07132   0.981  0.000  0.000
    64H     0.01865  0.07236   0.981  0.000  0.000
    65H     0.01681  0.07064   0.983  0.000  0.000
    66H     0.03170  0.08920   0.968  0.000  0.000
    67H     0.02174  0.07412   0.978  0.000  0.000
    68H     0.02502  0.07690   0.975  0.000  0.000
    69H     0.02143  0.07384   0.979  0.000  0.000
    70H     0.03172  0.08923   0.968  0.000  0.000
    71H     0.01854  0.07122   0.981  0.000  0.000
    72H     0.01677  0.07063   0.983  0.000  0.000
    73H     0.01841  0.07212   0.982  0.000  0.000
    74H     0.01839  0.07676   0.982  0.000  0.000
    75H     0.02857  0.08496   0.971  0.000  0.000
    76C    -0.02251 -0.06326   1.089  2.933  0.000
    77C     0.06212  0.12258   1.108  2.830  0.000
    78C    -0.03436 -0.07966   1.083  2.951  0.000
    79C    -0.03104 -0.07609   1.077  2.954  0.000
    80C     0.06424  0.12754   1.099  2.837  0.000
    81N    -0.15745 -0.51082   1.307  3.851  0.000
    82C     0.01523  0.02004   1.078  2.906  0.000
    83C     0.00153 -0.00332   1.056  2.943  0.000
    84C     0.00165 -0.01314   1.087  2.911  0.000
    85C    -0.05685 -0.20081   1.064  2.993  0.000
    86C    -0.03180 -0.08358   1.063  2.969  0.000
    87C    -0.00352 -0.02119   1.099  2.904  0.000
    88C    -0.06242 -0.20711   1.075  2.987  0.000
    89C    -0.03174 -0.08351   1.063  2.969  0.000
    90C     0.00178 -0.01301   1.087  2.911  0.000
    91C    -0.05681 -0.20077   1.064  2.993  0.000
    92C     0.06127  0.12869   1.113  2.826  0.000
    93C    -0.03551 -0.08166   1.083  2.952  0.000
    94C    -0.03606 -0.08173   1.088  2.948  0.000
    95N    -0.28193 -0.46881   1.286  3.996  0.000
    96C     0.06394  0.13469   1.131  2.805  0.000
    97C     0.01785  0.02510   1.086  2.896  0.000
    98C     0.06653  0.13136   1.112  2.821  0.000
    99C    -0.03021 -0.07491   1.078  2.952  0.000
   100C    -0.02996 -0.07505   1.074  2.956  0.000
   101C     0.06403  0.12680   1.097  2.839  0.000
   102N    -0.15502 -0.50767   1.309  3.846  0.000
   103C     0.01494  0.01981   1.079  2.907  0.000
   104C     0.00157 -0.00326   1.056  2.943  0.000
   105C     0.00180 -0.01299   1.087  2.911  0.000
   106C    -0.05680 -0.20077   1.064  2.993  0.000
   107C    -0.03173 -0.08351   1.063  2.969  0.000
   108C    -0.00348 -0.02116   1.099  2.904  0.000
   109C    -0.06238 -0.20708   1.075  2.987  0.000
   110C    -0.03170 -0.08348   1.063  2.969  0.000
   111C     0.00180 -0.01300   1.087  2.911  0.000
   112C    -0.05677 -0.20074   1.064  2.993  0.000
   113C     0.06258  0.13123   1.117  2.821  0.000
   114C    -0.03624 -0.08233   1.087  2.949  0.000
   115C    -0.03933 -0.08569   1.094  2.945  0.000
   116C     0.05924  0.12506   1.127  2.813  0.000
   117N    -0.28481 -0.47205   1.286  3.999  0.000
   118H     0.02942  0.08832   0.971  0.000  0.000
   119H     0.03864  0.09529   0.961  0.000  0.000
   120H     0.02760  0.08602   0.972  0.000  0.000
   121H     0.16166  0.36996   0.838  0.000  0.000
   122H     0.01700  0.07070   0.983  0.000  0.000
   123H     0.01864  0.07132   0.981  0.000  0.000
   124H     0.01815  0.07198   0.982  0.000  0.000
   125H     0.03164  0.08914   0.968  0.000  0.000
   126H     0.02479  0.07667   0.975  0.000  0.000
   127H     0.02146  0.07389   0.979  0.000  0.000
   128H     0.02211  0.07448   0.978  0.000  0.000
   129H     0.03187  0.08937   0.968  0.000  0.000
   130H     0.01696  0.07068   0.983  0.000  0.000
   131H     0.01871  0.07139   0.981  0.000  0.000
   132H     0.01842  0.07228   0.982  0.000  0.000
   133H     0.01891  0.07739   0.981  0.000  0.000
   134H     0.01999  0.07824   0.980  0.000  0.000
   135H     0.03005  0.08835   0.970  0.000  0.000
   136H     0.02848  0.08697   0.972  0.000  0.000
   137H     0.15962  0.36790   0.840  0.000  0.000
   138H     0.01856  0.07125   0.981  0.000  0.000
   139H     0.01840  0.07213   0.982  0.000  0.000
   140H     0.01678  0.07063   0.983  0.000  0.000
   141H     0.03175  0.08926   0.968  0.000  0.000
   142H     0.02140  0.07382   0.979  0.000  0.000
   143H     0.02502  0.07691   0.975  0.000  0.000
   144H     0.02179  0.07417   0.978  0.000  0.000
   145H     0.03168  0.08919   0.968  0.000  0.000
   146H     0.01861  0.07129   0.981  0.000  0.000
   147H     0.01681  0.07066   0.983  0.000  0.000
   148H     0.01861  0.07231   0.981  0.000  0.000
   149H     0.01842  0.07678   0.982  0.000  0.000
   150H     0.02858  0.08498   0.971  0.000  0.000
   151C    -0.02561 -0.02780   1.068  2.957  0.000
   152C    -0.02285 -0.02501   1.071  2.951  0.000
   153C    -0.02526 -0.02733   1.069  2.956  0.000
   154C    -0.02382 -0.02587   1.071  2.953  0.000
   155C    -0.02475 -0.02675   1.070  2.955  0.000
   156C    -0.02434 -0.02634   1.070  2.954  0.000
   157C    -0.02451 -0.02650   1.070  2.954  0.000
   158C    -0.02442 -0.02642   1.070  2.954  0.000
   159C    -0.02445 -0.02645   1.070  2.954  0.000
   160C    -0.02447 -0.02647   1.070  2.954  0.000
   161C    -0.02437 -0.02636   1.070  2.954  0.000
   162C    -0.02475 -0.02674   1.070  2.955  0.000
   163C    -0.02390 -0.02590   1.071  2.953  0.000
   164C    -0.02536 -0.02738   1.069  2.956  0.000
   165C    -0.02270 -0.02485   1.072  2.951  0.000
   166C    -0.02556 -0.02774   1.069  2.957  0.000
   167C     0.01423  0.02153   1.083  2.903  0.000
   168C     0.06589  0.13073   1.112  2.822  0.000
   169C    -0.03276 -0.07750   1.077  2.956  0.000
   170C    -0.03073 -0.07582   1.075  2.956  0.000
   171C     0.06223  0.12506   1.095  2.843  0.000
   172N    -0.15483 -0.50767   1.308  3.846  0.000
   173C     0.01789  0.02258   1.080  2.902  0.000
   174C     0.00225 -0.00269   1.056  2.942  0.000
   175C     0.00210 -0.01276   1.087  2.911  0.000
   176C    -0.05641 -0.20038   1.063  2.993  0.000
   177C    -0.03162 -0.08340   1.063  2.969  0.000
   178C    -0.00352 -0.02120   1.099  2.905  0.000
   179C    -0.06232 -0.20701   1.075  2.987  0.000
   180C    -0.03160 -0.08337   1.063  2.969  0.000
   181C     0.00217 -0.01264   1.087  2.911  0.000
   182C    -0.05650 -0.20045   1.064  2.993  0.000
   183C     0.06006  0.12727   1.111  2.828  0.000
   184C    -0.03576 -0.08194   1.083  2.953  0.000
   185C    -0.03701 -0.08285   1.087  2.950  0.000
   186N    -0.28136 -0.46805   1.286  3.996  0.000
   187C     0.06384  0.13465   1.131  2.805  0.000
   188C     0.01670  0.02398   1.086  2.897  0.000
   189C     0.06611  0.13091   1.112  2.822  0.000
   190C    -0.03168 -0.07655   1.076  2.955  0.000
   191C    -0.03064 -0.07574   1.074  2.957  0.000
   192C     0.06256  0.12529   1.095  2.843  0.000
   193N    -0.15434 -0.50701   1.309  3.845  0.000
   194C     0.01751  0.02221   1.080  2.902  0.000
   195C     0.00222 -0.00272   1.056  2.942  0.000
   196C     0.00213 -0.01268   1.087  2.911  0.000
   197C    -0.05646 -0.20041   1.064  2.993  0.000
   198C    -0.03157 -0.08335   1.063  2.969  0.000
   199C    -0.00352 -0.02119   1.099  2.905  0.000
   200C    -0.06231 -0.20700   1.075  2.987  0.000
   201C    -0.03163 -0.08342   1.063  2.969  0.000
   202C     0.00212 -0.01273   1.087  2.911  0.000
   203C    -0.05644 -0.20042   1.064  2.993  0.000
   204C     0.06026  0.12766   1.112  2.828  0.000
   205C    -0.03576 -0.08192   1.084  2.952  0.000
   206C    -0.03777 -0.08347   1.087  2.951  0.000
   207C     0.06348  0.13422   1.131  2.805  0.000
   208N    -0.28219 -0.46883   1.285  3.997  0.000
   209H     0.02753  0.08581   0.972  0.000  0.000
   210H     0.02637  0.08495   0.974  0.000  0.000
   211H     0.15953  0.36767   0.840  0.000  0.000
   212H     0.01806  0.07178   0.982  0.000  0.000
   213H     0.01780  0.07164   0.982  0.000  0.000
   214H     0.01863  0.07131   0.981  0.000  0.000
   215H     0.03128  0.08878   0.969  0.000  0.000
   216H     0.02102  0.07341   0.979  0.000  0.000
   217H     0.02076  0.07317   0.979  0.000  0.000
   218H     0.02558  0.07747   0.974  0.000  0.000
   219H     0.03146  0.08896   0.969  0.000  0.000
   220H     0.01726  0.07098   0.983  0.000  0.000
   221H     0.01837  0.07105   0.982  0.000  0.000
   222H     0.01782  0.07172   0.982  0.000  0.000
   223H     0.01796  0.07652   0.982  0.000  0.000
   224H     0.01867  0.07708   0.981  0.000  0.000
   225H     0.02853  0.08697   0.971  0.000  0.000
   226H     0.02716  0.08576   0.973  0.000  0.000
   227H     0.15936  0.36750   0.841  0.000  0.000
   228H     0.01858  0.07126   0.981  0.000  0.000
   229H     0.01724  0.07109   0.983  0.000  0.000
   230H     0.01848  0.07225   0.982  0.000  0.000
   231H     0.03148  0.08899   0.969  0.000  0.000
   232H     0.02124  0.07361   0.979  0.000  0.000
   233H     0.02541  0.07730   0.975  0.000  0.000
   234H     0.02069  0.07311   0.979  0.000  0.000
   235H     0.03124  0.08873   0.969  0.000  0.000
   236H     0.01782  0.07152   0.982  0.000  0.000
   237H     0.01837  0.07105   0.982  0.000  0.000
   238H     0.01734  0.07119   0.983  0.000  0.000
   239H     0.01728  0.07583   0.983  0.000  0.000
   240H     0.01784  0.07605   0.982  0.000  0.000
   241C     0.01489  0.02220   1.084  2.901  0.000
   242C     0.06594  0.13076   1.112  2.822  0.000
   243C    -0.03261 -0.07748   1.076  2.957  0.000
   244C    -0.03078 -0.07590   1.074  2.957  0.000
   245C     0.06201  0.12479   1.094  2.844  0.000
   246N    -0.15456 -0.50736   1.309  3.846  0.000
   247C     0.01811  0.02277   1.081  2.901  0.000
   248C     0.00233 -0.00263   1.056  2.942  0.000
   249C     0.00209 -0.01275   1.087  2.911  0.000
   250C    -0.05640 -0.20038   1.063  2.993  0.000
   251C    -0.03164 -0.08343   1.063  2.969  0.000
   252C    -0.00354 -0.02122   1.099  2.905  0.000
   253C    -0.06228 -0.20698   1.075  2.987  0.000
   254C    -0.03155 -0.08334   1.063  2.969  0.000
   255C     0.00231 -0.01253   1.087  2.911  0.000
   256C    -0.05636 -0.20034   1.064  2.993  0.000
   257C     0.05980  0.12693   1.111  2.829  0.000
   258C    -0.03575 -0.08197   1.082  2.953  0.000
   259C    -0.03730 -0.08325   1.086  2.952  0.000
   260N    -0.28155 -0.46832   1.286  3.996  0.000
   261C     0.06377  0.13456   1.131  2.805  0.000
   262C     0.01600  0.02328   1.085  2.899  0.000
   263C     0.06601  0.13080   1.112  2.822  0.000
   264C    -0.03216 -0.07713   1.076  2.956  0.000
   265C    -0.03073 -0.07586   1.073  2.957  0.000
   266C     0.06218  0.12490   1.094  2.843  0.000
   267N    -0.15449 -0.50714   1.309  3.845  0.000
   268C     0.01796  0.02262   1.081  2.901  0.000
   269C     0.00233 -0.00263   1.056  2.942  0.000
   270C     0.00212 -0.01272   1.087  2.911  0.000
   271C    -0.05640 -0.20038   1.063  2.993  0.000
   272C    -0.03160 -0.08339   1.063  2.969  0.000
   273C    -0.00354 -0.02122   1.099  2.905  0.000
   274C    -0.06228 -0.20698   1.075  2.987  0.000
   275C    -0.03159 -0.08338   1.063  2.969  0.000
   276C     0.00226 -0.01259   1.087  2.911  0.000
   277C    -0.05636 -0.20034   1.064  2.993  0.000
   278C     0.05987  0.12712   1.111  2.829  0.000
   279C    -0.03578 -0.08198   1.083  2.953  0.000
   280C    -0.03761 -0.08345   1.086  2.952  0.000
   281C     0.06365  0.13444   1.131  2.805  0.000
   282N    -0.28178 -0.46855   1.285  3.996  0.000
   283H     0.02754  0.08594   0.972  0.000  0.000
   284H     0.02642  0.08503   0.974  0.000  0.000
   285H     0.15937  0.36762   0.841  0.000  0.000
   286H     0.01827  0.07203   0.982  0.000  0.000
   287H     0.01747  0.07131   0.983  0.000  0.000
   288H     0.01854  0.07123   0.981  0.000  0.000
   289H     0.03120  0.08871   0.969  0.000  0.000
   290H     0.02077  0.07318   0.979  0.000  0.000
   291H     0.02093  0.07331   0.979  0.000  0.000
   292H     0.02533  0.07721   0.975  0.000  0.000
   293H     0.03132  0.08883   0.969  0.000  0.000
   294H     0.01713  0.07087   0.983  0.000  0.000
   295H     0.01823  0.07093   0.982  0.000  0.000
   296H     0.01777  0.07170   0.982  0.000  0.000
   297H     0.01786  0.07648   0.982  0.000  0.000
   298H     0.01823  0.07674   0.982  0.000  0.000
   299H     0.02811  0.08663   0.972  0.000  0.000
   300H     0.02699  0.08564   0.973  0.000  0.000
   301H     0.15928  0.36758   0.841  0.000  0.000
   302H     0.01856  0.07125   0.981  0.000  0.000
   303H     0.01725  0.07110   0.983  0.000  0.000
   304H     0.01852  0.07228   0.981  0.000  0.000
   305H     0.03126  0.08876   0.969  0.000  0.000
   306H     0.02085  0.07326   0.979  0.000  0.000
   307H     0.02519  0.07707   0.975  0.000  0.000
   308H     0.02097  0.07336   0.979  0.000  0.000
   309H     0.03125  0.08876   0.969  0.000  0.000
   310H     0.01742  0.07114   0.983  0.000  0.000
   311H     0.01819  0.07088   0.982  0.000  0.000
   312H     0.01745  0.07135   0.983  0.000  0.000
   313H     0.01733  0.07591   0.983  0.000  0.000
   314H     0.01779  0.07615   0.982  0.000  0.000
   315C     0.01558  0.02288   1.085  2.899  0.000
   316C     0.06598  0.13077   1.112  2.822  0.000
   317C    -0.03238 -0.07736   1.075  2.957  0.000
   318C    -0.03071 -0.07584   1.073  2.957  0.000
   319C     0.06214  0.12489   1.094  2.844  0.000
   320N    -0.15453 -0.50721   1.309  3.845  0.000
   321C     0.01816  0.02280   1.081  2.901  0.000
   322C     0.00236 -0.00264   1.056  2.941  0.000
   323C     0.00212 -0.01273   1.087  2.911  0.000
   324C    -0.05639 -0.20036   1.063  2.993  0.000
   325C    -0.03161 -0.08340   1.063  2.969  0.000
   326C    -0.00353 -0.02122   1.099  2.905  0.000
   327C    -0.06227 -0.20697   1.075  2.987  0.000
   328C    -0.03154 -0.08333   1.063  2.969  0.000
   329C     0.00230 -0.01256   1.087  2.911  0.000
   330C    -0.05634 -0.20033   1.064  2.993  0.000
   331C     0.05987  0.12703   1.111  2.829  0.000
   332C    -0.03570 -0.08192   1.082  2.953  0.000
   333C    -0.03734 -0.08329   1.086  2.952  0.000
   334N    -0.28159 -0.46843   1.286  3.996  0.000
   335C     0.06376  0.13455   1.131  2.805  0.000
   336C     0.01586  0.02316   1.085  2.899  0.000
   337C     0.06603  0.13082   1.112  2.822  0.000
   338C    -0.03222 -0.07719   1.076  2.957  0.000
   339C    -0.03067 -0.07579   1.073  2.957  0.000
   340C     0.06218  0.12493   1.094  2.844  0.000
   341N    -0.15452 -0.50720   1.309  3.845  0.000
   342C     0.01813  0.02277   1.081  2.901  0.000
   343C     0.00236 -0.00263   1.056  2.941  0.000
   344C     0.00213 -0.01273   1.087  2.911  0.000
   345C    -0.05638 -0.20036   1.063  2.993  0.000
   346C    -0.03159 -0.08338   1.063  2.969  0.000
   347C    -0.00353 -0.02122   1.099  2.905  0.000
   348C    -0.06228 -0.20698   1.075  2.987  0.000
   349C    -0.03156 -0.08334   1.063  2.969  0.000
   350C     0.00229 -0.01257   1.087  2.911  0.000
   351C    -0.05636 -0.20033   1.064  2.993  0.000
   352C     0.05987  0.12704   1.111  2.829  0.000
   353C    -0.03574 -0.08196   1.083  2.953  0.000
   354C    -0.03746 -0.08341   1.086  2.952  0.000
   355C     0.06369  0.13445   1.131  2.805  0.000
   356N    -0.28164 -0.46846   1.286  3.996  0.000
   357H     0.02779  0.08630   0.972  0.000  0.000
   358H     0.02669  0.08535   0.973  0.000  0.000
   359H     0.15939  0.36774   0.841  0.000  0.000
   360H     0.01824  0.07202   0.982  0.000  0.000
   361H     0.01743  0.07127   0.983  0.000  0.000
   362H     0.01852  0.07121   0.981  0.000  0.000
   363H     0.03124  0.08875   0.969  0.000  0.000
   364H     0.02074  0.07316   0.979  0.000  0.000
   365H     0.02103  0.07341   0.979  0.000  0.000
   366H     0.02521  0.07709   0.975  0.000  0.000
   367H     0.03128  0.08879   0.969  0.000  0.000
   368H     0.01729  0.07102   0.983  0.000  0.000
   369H     0.01825  0.07094   0.982  0.000  0.000
   370H     0.01766  0.07157   0.982  0.000  0.000
   371H     0.01784  0.07648   0.982  0.000  0.000
   372H     0.01817  0.07666   0.982  0.000  0.000
   373H     0.02804  0.08654   0.972  0.000  0.000
   374H     0.02695  0.08562   0.973  0.000  0.000
   375H     0.15938  0.36772   0.841  0.000  0.000
   376H     0.01853  0.07122   0.981  0.000  0.000
   377H     0.01735  0.07119   0.983  0.000  0.000
   378H     0.01835  0.07212   0.982  0.000  0.000
   379H     0.03121  0.08872   0.969  0.000  0.000
   380H     0.02082  0.07324   0.979  0.000  0.000
   381H     0.02508  0.07696   0.975  0.000  0.000
   382H     0.02107  0.07346   0.979  0.000  0.000
   383H     0.03131  0.08882   0.969  0.000  0.000
   384H     0.01745  0.07116   0.983  0.000  0.000
   385H     0.01824  0.07092   0.982  0.000  0.000
   386H     0.01748  0.07141   0.983  0.000  0.000
   387H     0.01761  0.07624   0.982  0.000  0.000
   388H     0.01797  0.07645   0.982  0.000  0.000
   389C     0.01583  0.02313   1.085  2.899  0.000
   390C     0.06604  0.13083   1.112  2.822  0.000
   391C    -0.03222 -0.07720   1.076  2.957  0.000
   392C    -0.03064 -0.07577   1.073  2.957  0.000
   393C     0.06221  0.12496   1.094  2.844  0.000
   394N    -0.15448 -0.50717   1.309  3.845  0.000
   395C     0.01816  0.02280   1.081  2.901  0.000
   396C     0.00234 -0.00264   1.056  2.941  0.000
   397C     0.00213 -0.01272   1.087  2.911  0.000
   398C    -0.05639 -0.20037   1.063  2.993  0.000
   399C    -0.03160 -0.08339   1.063  2.969  0.000
   400C    -0.00352 -0.02120   1.099  2.905  0.000
   401C    -0.06227 -0.20696   1.075  2.987  0.000
   402C    -0.03153 -0.08332   1.063  2.969  0.000
   403C     0.00229 -0.01256   1.087  2.911  0.000
   404C    -0.05635 -0.20033   1.064  2.993  0.000
   405C     0.05990  0.12704   1.111  2.829  0.000
   406C    -0.03571 -0.08192   1.082  2.953  0.000
   407C    -0.03735 -0.08329   1.086  2.952  0.000
   408N    -0.28158 -0.46836   1.286  3.996  0.000
   409C     0.06375  0.13454   1.131  2.805  0.000
   410C     0.01587  0.02316   1.085  2.899  0.000
   411C     0.06603  0.13081   1.112  2.822  0.000
   412C    -0.03222 -0.07719   1.076  2.957  0.000
   413C    -0.03066 -0.07579   1.073  2.957  0.000
   414C     0.06220  0.12494   1.094  2.843  0.000
   415N    -0.15449 -0.50717   1.309  3.845  0.000
   416C     0.01816  0.02280   1.081  2.901  0.000
   417C     0.00235 -0.00264   1.056  2.941  0.000
   418C     0.00213 -0.01272   1.087  2.911  0.000
   419C    -0.05639 -0.20037   1.063  2.993  0.000
   420C    -0.03159 -0.08338   1.063  2.969  0.000
   421C    -0.00351 -0.02120   1.099  2.905  0.000
   422C    -0.06227 -0.20696   1.075  2.987  0.000
   423C    -0.03154 -0.08333   1.063  2.969  0.000
   424C     0.00230 -0.01255   1.087  2.911  0.000
   425C    -0.05636 -0.20034   1.064  2.993  0.000
   426C     0.05991  0.12706   1.111  2.829  0.000
   427C    -0.03568 -0.08190   1.083  2.953  0.000
   428C    -0.03735 -0.08330   1.086  2.952  0.000
   429C     0.06377  0.13456   1.131  2.805  0.000
   430N    -0.28156 -0.46835   1.286  3.996  0.000
   431H     0.02797  0.08649   0.972  0.000  0.000
   432H     0.02682  0.08547   0.973  0.000  0.000
   433H     0.15940  0.36771   0.841  0.000  0.000
   434H     0.01828  0.07206   0.982  0.000  0.000
   435H     0.01743  0.07125   0.983  0.000  0.000
   436H     0.01854  0.07123   0.981  0.000  0.000
   437H     0.03127  0.08878   0.969  0.000  0.000
   438H     0.02076  0.07318   0.979  0.000  0.000
   439H     0.02110  0.07348   0.979  0.000  0.000
   440H     0.02515  0.07704   0.975  0.000  0.000
   441H     0.03129  0.08880   0.969  0.000  0.000
   442H     0.01739  0.07111   0.983  0.000  0.000
   443H     0.01827  0.07096   0.982  0.000  0.000
   444H     0.01759  0.07151   0.982  0.000  0.000
   445H     0.01784  0.07646   0.982  0.000  0.000
   446H     0.01813  0.07663   0.982  0.000  0.000
   447H     0.02801  0.08651   0.972  0.000  0.000
   448H     0.02695  0.08560   0.973  0.000  0.000
   449H     0.15939  0.36770   0.841  0.000  0.000
   450H     0.01854  0.07123   0.981  0.000  0.000
   451H     0.01742  0.07125   0.983  0.000  0.000
   452H     0.01830  0.07208   0.982  0.000  0.000
   453H     0.03123  0.08873   0.969  0.000  0.000
   454H     0.02086  0.07327   0.979  0.000  0.000
   455H     0.02502  0.07691   0.975  0.000  0.000
   456H     0.02113  0.07351   0.979  0.000  0.000
   457H     0.03133  0.08884   0.969  0.000  0.000
   458H     0.01741  0.07112   0.983  0.000  0.000
   459H     0.01826  0.07095   0.982  0.000  0.000
   460H     0.01756  0.07149   0.982  0.000  0.000
   461H     0.01770  0.07632   0.982  0.000  0.000
   462H     0.01812  0.07661   0.982  0.000  0.000
   463C     0.01582  0.02312   1.085  2.899  0.000
   464C     0.06603  0.13083   1.112  2.822  0.000
   465C    -0.03224 -0.07721   1.076  2.957  0.000
   466C    -0.03067 -0.07580   1.073  2.957  0.000
   467C     0.06218  0.12492   1.094  2.844  0.000
   468N    -0.15451 -0.50719   1.309  3.845  0.000
   469C     0.01814  0.02278   1.081  2.901  0.000
   470C     0.00236 -0.00263   1.056  2.941  0.000
   471C     0.00214 -0.01272   1.087  2.911  0.000
   472C    -0.05638 -0.20036   1.063  2.993  0.000
   473C    -0.03160 -0.08339   1.063  2.969  0.000
   474C    -0.00354 -0.02122   1.099  2.905  0.000
   475C    -0.06227 -0.20697   1.075  2.987  0.000
   476C    -0.03154 -0.08334   1.063  2.969  0.000
   477C     0.00228 -0.01258   1.087  2.911  0.000
   478C    -0.05635 -0.20033   1.064  2.993  0.000
   479C     0.05983  0.12700   1.111  2.829  0.000
   480C    -0.03577 -0.08199   1.082  2.953  0.000
   481C    -0.03747 -0.08342   1.086  2.952  0.000
   482N    -0.28165 -0.46847   1.286  3.996  0.000
   483C     0.06369  0.13446   1.131  2.805  0.000
   484C     0.01559  0.02289   1.085  2.899  0.000
   485C     0.06595  0.13073   1.112  2.822  0.000
   486C    -0.03239 -0.07736   1.075  2.957  0.000
   487C    -0.03075 -0.07588   1.073  2.957  0.000
   488C     0.06211  0.12487   1.094  2.844  0.000
   489N    -0.15454 -0.50722   1.309  3.845  0.000
   490C     0.01815  0.02279   1.081  2.901  0.000
   491C     0.00237 -0.00263   1.056  2.941  0.000
   492C     0.00213 -0.01273   1.087  2.911  0.000
   493C    -0.05637 -0.20035   1.063  2.993  0.000
   494C    -0.03159 -0.08339   1.063  2.969  0.000
   495C    -0.00353 -0.02121   1.099  2.905  0.000
   496C    -0.06227 -0.20697   1.075  2.987  0.000
   497C    -0.03155 -0.08334   1.063  2.969  0.000
   498C     0.00229 -0.01256   1.087  2.911  0.000
   499C    -0.05636 -0.20033   1.064  2.993  0.000
   500C     0.05988  0.12704   1.111  2.829  0.000
   501C    -0.03570 -0.08192   1.082  2.953  0.000
   502C    -0.03735 -0.08330   1.086  2.952  0.000
   503C     0.06376  0.13455   1.131  2.805  0.000
   504N    -0.28160 -0.46842   1.286  3.996  0.000
   505H     0.02800  0.08651   0.972  0.000  0.000
   506H     0.02680  0.08547   0.973  0.000  0.000
   507H     0.15938  0.36772   0.841  0.000  0.000
   508H     0.01831  0.07210   0.982  0.000  0.000
   509H     0.01735  0.07120   0.983  0.000  0.000
   510H     0.01851  0.07120   0.981  0.000  0.000
   511H     0.03125  0.08876   0.969  0.000  0.000
   512H     0.02076  0.07318   0.979  0.000  0.000
   513H     0.02113  0.07351   0.979  0.000  0.000
   514H     0.02506  0.07695   0.975  0.000  0.000
   515H     0.03126  0.08877   0.969  0.000  0.000
   516H     0.01744  0.07114   0.983  0.000  0.000
   517H     0.01824  0.07093   0.982  0.000  0.000
   518H     0.01752  0.07143   0.982  0.000  0.000
   519H     0.01773  0.07637   0.982  0.000  0.000
   520H     0.01798  0.07647   0.982  0.000  0.000
   521H     0.02784  0.08634   0.972  0.000  0.000
   522H     0.02683  0.08548   0.973  0.000  0.000
   523H     0.15939  0.36772   0.841  0.000  0.000
   524H     0.01850  0.07119   0.982  0.000  0.000
   525H     0.01742  0.07127   0.983  0.000  0.000
   526H     0.01824  0.07201   0.982  0.000  0.000
   527H     0.03119  0.08870   0.969  0.000  0.000
   528H     0.02086  0.07328   0.979  0.000  0.000
   529H     0.02493  0.07681   0.975  0.000  0.000
   530H     0.02115  0.07354   0.979  0.000  0.000
   531H     0.03131  0.08882   0.969  0.000  0.000
   532H     0.01732  0.07104   0.983  0.000  0.000
   533H     0.01825  0.07094   0.982  0.000  0.000
   534H     0.01765  0.07155   0.982  0.000  0.000
   535H     0.01769  0.07634   0.982  0.000  0.000
   536H     0.01813  0.07662   0.982  0.000  0.000
   537C     0.01596  0.02326   1.085  2.899  0.000
   538C     0.06602  0.13082   1.112  2.822  0.000
   539C    -0.03222 -0.07720   1.076  2.957  0.000
   540C    -0.03074 -0.07587   1.073  2.957  0.000
   541C     0.06213  0.12487   1.094  2.844  0.000
   542N    -0.15449 -0.50717   1.309  3.845  0.000
   543C     0.01802  0.02266   1.081  2.901  0.000
   544C     0.00237 -0.00262   1.056  2.941  0.000
   545C     0.00212 -0.01274   1.087  2.911  0.000
   546C    -0.05638 -0.20036   1.063  2.993  0.000
   547C    -0.03163 -0.08341   1.063  2.969  0.000
   548C    -0.00355 -0.02124   1.099  2.905  0.000
   549C    -0.06228 -0.20698   1.075  2.987  0.000
   550C    -0.03157 -0.08336   1.063  2.969  0.000
   551C     0.00226 -0.01258   1.087  2.911  0.000
   552C    -0.05637 -0.20035   1.064  2.993  0.000
   553C     0.05974  0.12694   1.111  2.829  0.000
   554C    -0.03585 -0.08206   1.083  2.953  0.000
   555C    -0.03770 -0.08364   1.086  2.952  0.000
   556N    -0.28191 -0.46870   1.286  3.996  0.000
   557C     0.06358  0.13431   1.131  2.805  0.000
   558C     0.01485  0.02215   1.084  2.901  0.000
   559C     0.06590  0.13068   1.112  2.822  0.000
   560C    -0.03275 -0.07773   1.075  2.958  0.000
   561C    -0.03084 -0.07597   1.073  2.958  0.000
   562C     0.06192  0.12466   1.094  2.844  0.000
   563N    -0.15469 -0.50736   1.309  3.846  0.000
   564C     0.01819  0.02283   1.081  2.901  0.000
   565C     0.00238 -0.00261   1.056  2.941  0.000
   566C     0.00212 -0.01273   1.087  2.911  0.000
   567C    -0.05638 -0.20036   1.063  2.993  0.000
   568C    -0.03162 -0.08341   1.063  2.969  0.000
   569C    -0.00355 -0.02124   1.099  2.905  0.000
   570C    -0.06229 -0.20699   1.075  2.987  0.000
   571C    -0.03156 -0.08335   1.063  2.969  0.000
   572C     0.00229 -0.01255   1.087  2.911  0.000
   573C    -0.05637 -0.20034   1.064  2.993  0.000
   574C     0.05979  0.12695   1.111  2.829  0.000
   575C    -0.03576 -0.08197   1.082  2.953  0.000
   576C    -0.03734 -0.08328   1.086  2.952  0.000
   577C     0.06376  0.13455   1.131  2.805  0.000
   578N    -0.28152 -0.46836   1.286  3.996  0.000
   579H     0.02805  0.08656   0.972  0.000  0.000
   580H     0.02680  0.08546   0.973  0.000  0.000
   581H     0.15931  0.36765   0.841  0.000  0.000
   582H     0.01846  0.07222   0.982  0.000  0.000
   583H     0.01722  0.07108   0.983  0.000  0.000
   584H     0.01849  0.07118   0.982  0.000  0.000
   585H     0.03123  0.08874   0.969  0.000  0.000
   586H     0.02082  0.07324   0.979  0.000  0.000
   587H     0.02117  0.07355   0.979  0.000  0.000
   588H     0.02495  0.07684   0.975  0.000  0.000
   589H     0.03124  0.08875   0.969  0.000  0.000
   590H     0.01743  0.07116   0.983  0.000  0.000
   591H     0.01819  0.07088   0.982  0.000  0.000
   592H     0.01743  0.07132   0.983  0.000  0.000
   593H     0.01759  0.07621   0.982  0.000  0.000
   594H     0.01772  0.07619   0.982  0.000  0.000
   595H     0.02746  0.08599   0.973  0.000  0.000
   596H     0.02665  0.08530   0.973  0.000  0.000
   597H     0.15933  0.36767   0.841  0.000  0.000
   598H     0.01847  0.07116   0.982  0.000  0.000
   599H     0.01747  0.07133   0.983  0.000  0.000
   600H     0.01815  0.07191   0.982  0.000  0.000
   601H     0.03115  0.08866   0.969  0.000  0.000
   602H     0.02091  0.07332   0.979  0.000  0.000
   603H     0.02482  0.07670   0.975  0.000  0.000
   604H     0.02120  0.07359   0.979  0.000  0.000
   605H     0.03132  0.08883   0.969  0.000  0.000
   606H     0.01721  0.07094   0.983  0.000  0.000
   607H     0.01823  0.07092   0.982  0.000  0.000
   608H     0.01771  0.07161   0.982  0.000  0.000
   609H     0.01770  0.07633   0.982  0.000  0.000
   610H     0.01820  0.07669   0.982  0.000  0.000
   611C     0.01670  0.02396   1.086  2.897  0.000
   612C     0.06607  0.13084   1.112  2.822  0.000
   613C    -0.03179 -0.07676   1.076  2.956  0.000
   614C    -0.03068 -0.07580   1.073  2.957  0.000
   615C     0.06250  0.12519   1.095  2.843  0.000
   616N    -0.15445 -0.50702   1.309  3.845  0.000
   617C     0.01752  0.02220   1.080  2.902  0.000
   618C     0.00224 -0.00272   1.056  2.942  0.000
   619C     0.00202 -0.01280   1.087  2.911  0.000
   620C    -0.05653 -0.20050   1.064  2.993  0.000
   621C    -0.03166 -0.08344   1.063  2.969  0.000
   622C    -0.00354 -0.02122   1.099  2.905  0.000
   623C    -0.06231 -0.20701   1.075  2.987  0.000
   624C    -0.03157 -0.08336   1.063  2.969  0.000
   625C     0.00223 -0.01263   1.087  2.911  0.000
   626C    -0.05637 -0.20036   1.064  2.993  0.000
   627C     0.06025  0.12768   1.112  2.828  0.000
   628C    -0.03579 -0.08195   1.084  2.952  0.000
   629C    -0.03785 -0.08353   1.087  2.951  0.000
   630N    -0.28224 -0.46896   1.285  3.997  0.000
   631C     0.06343  0.13416   1.131  2.805  0.000
   632C     0.01417  0.02150   1.083  2.903  0.000
   633C     0.06583  0.13066   1.112  2.822  0.000
   634C    -0.03286 -0.07757   1.077  2.956  0.000
   635C    -0.03079 -0.07587   1.075  2.956  0.000
   636C     0.06216  0.12502   1.095  2.843  0.000
   637N    -0.15490 -0.50777   1.308  3.846  0.000
   638C     0.01789  0.02256   1.081  2.902  0.000
   639C     0.00227 -0.00269   1.056  2.942  0.000
   640C     0.00208 -0.01277   1.087  2.911  0.000
   641C    -0.05645 -0.20043   1.064  2.993  0.000
   642C    -0.03165 -0.08344   1.063  2.969  0.000
   643C    -0.00354 -0.02122   1.099  2.905  0.000
   644C    -0.06233 -0.20703   1.075  2.987  0.000
   645C    -0.03158 -0.08336   1.063  2.969  0.000
   646C     0.00218 -0.01264   1.087  2.911  0.000
   647C    -0.05646 -0.20043   1.064  2.993  0.000
   648C     0.05995  0.12708   1.111  2.829  0.000
   649C    -0.03577 -0.08199   1.082  2.954  0.000
   650C    -0.03709 -0.08305   1.086  2.951  0.000
   651C     0.06381  0.13458   1.131  2.805  0.000
   652N    -0.28148 -0.46818   1.286  3.996  0.000
   653H     0.02845  0.08699   0.972  0.000  0.000
   654H     0.02714  0.08577   0.973  0.000  0.000
   655H     0.15930  0.36754   0.841  0.000  0.000
   656H     0.01844  0.07216   0.982  0.000  0.000
   657H     0.01698  0.07084   0.983  0.000  0.000
   658H     0.01847  0.07115   0.982  0.000  0.000
   659H     0.03135  0.08885   0.969  0.000  0.000
   660H     0.02092  0.07335   0.979  0.000  0.000
   661H     0.02140  0.07377   0.979  0.000  0.000
   662H     0.02492  0.07681   0.975  0.000  0.000
   663H     0.03131  0.08882   0.969  0.000  0.000
   664H     0.01781  0.07155   0.982  0.000  0.000
   665H     0.01839  0.07108   0.982  0.000  0.000
   666H     0.01752  0.07139   0.982  0.000  0.000
   667H     0.01735  0.07591   0.983  0.000  0.000
   668H     0.01791  0.07608   0.982  0.000  0.000
   669H     0.02765  0.08589   0.972  0.000  0.000
   670H     0.02644  0.08502   0.974  0.000  0.000
   671H     0.15956  0.36775   0.840  0.000  0.000
   672H     0.01851  0.07119   0.981  0.000  0.000
   673H     0.01773  0.07159   0.982  0.000  0.000
   674H     0.01780  0.07155   0.982  0.000  0.000
   675H     0.03125  0.08875   0.969  0.000  0.000
   676H     0.02103  0.07345   0.979  0.000  0.000
   677H     0.02478  0.07667   0.975  0.000  0.000
   678H     0.02147  0.07385   0.979  0.000  0.000
   679H     0.03145  0.08896   0.969  0.000  0.000
   680H     0.01743  0.07112   0.983  0.000  0.000
   681H     0.01841  0.07110   0.982  0.000  0.000
   682H     0.01783  0.07171   0.982  0.000  0.000
   683H     0.01796  0.07658   0.982  0.000  0.000
   684H     0.01852  0.07706   0.981  0.000  0.000

Wiberg/Mayer (AO) data.
largest (>0.10) Wiberg bond orders for each atom

 ---------------------------------------------------------------------------
     #   Z sym  total        # sym  WBO       # sym  WBO       # sym  WBO
 ---------------------------------------------------------------------------
     1   6 C    3.815 --    41 C    1.384     2 C    1.376    43 H    0.997
     2   6 C    3.925 --     1 C    1.376     3 C    1.239     6 N    1.230
     3   6 C    3.843 --     4 C    1.603     2 C    1.239    44 H    0.993
     4   6 C    3.826 --     3 C    1.603     5 C    1.250    45 H    1.001
     5   6 C    3.892 --     7 C    1.357     4 C    1.250     6 N    1.227
     6   7 N    3.228 --     2 C    1.230     5 C    1.227    46 H    0.962
     7   6 C    3.800 --    17 C    1.380     5 C    1.357     8 C    1.027
     8   6 C    3.815 --    15 C    1.421     9 C    1.420     7 C    1.027
     9   6 C    3.888 --    11 C    1.437     8 C    1.420    10 C    1.018
    10   6 C    3.889 --     9 C    1.018    48 H    0.996    49 H    0.992
                            47 H    0.992
    11   6 C    3.835 --     9 C    1.437    12 C    1.432    50 H    0.994
    12   6 C    3.930 --    14 C    1.433    11 C    1.432    13 C    1.010
    13   6 C    3.920 --    12 C    1.010    53 H    0.998    52 H    0.997
                            51 H    0.987
    14   6 C    3.835 --    15 C    1.435    12 C    1.433    54 H    0.994
    15   6 C    3.888 --    14 C    1.435     8 C    1.421    16 C    1.018
    16   6 C    3.890 --    15 C    1.018    56 H    0.996    57 H    0.992
                            55 H    0.992
    17   6 C    3.913 --     7 C    1.380    20 N    1.355    18 C    1.163
    18   6 C    3.834 --    19 C    1.693    17 C    1.163    58 H    1.001
    19   6 C    3.838 --    18 C    1.693    21 C    1.167    59 H    1.000
    20   7 N    2.542 --    21 C    1.414    17 C    1.355
    21   6 C    3.943 --    20 N    1.414    22 C    1.293    19 C    1.167
    22   6 C    3.847 --    23 C    1.297    21 C    1.293   151 C    1.206
    23   6 C    3.906 --    22 C    1.297    24 C    1.265    27 N    1.250
    24   6 C    3.824 --    25 C    1.589    23 C    1.265    60 H    0.999
    25   6 C    3.815 --    24 C    1.589    26 C    1.256    61 H    1.000
    26   6 C    3.886 --    28 C    1.359    25 C    1.256    27 N    1.222
    27   7 N    3.239 --    23 C    1.250    26 C    1.222    62 H    0.961
    28   6 C    3.788 --    38 C    1.371    26 C    1.359    29 C    1.028
    29   6 C    3.815 --    30 C    1.421    36 C    1.420    28 C    1.028
    30   6 C    3.888 --    32 C    1.436    29 C    1.421    31 C    1.018
    31   6 C    3.890 --    30 C    1.018    63 H    0.996    65 H    0.993
                            64 H    0.992
    32   6 C    3.835 --    30 C    1.436    33 C    1.433    66 H    0.994
    33   6 C    3.930 --    32 C    1.433    35 C    1.432    34 C    1.010
    34   6 C    3.920 --    33 C    1.010    69 H    0.998    67 H    0.998
                            68 H    0.987
    35   6 C    3.835 --    36 C    1.437    33 C    1.432    70 H    0.994
    36   6 C    3.888 --    35 C    1.437    29 C    1.420    37 C    1.018
    37   6 C    3.890 --    36 C    1.018    71 H    0.996    72 H    0.993
                            73 H    0.992
    38   6 C    3.934 --    42 N    1.377    28 C    1.371    39 C    1.154
    39   6 C    3.844 --    40 C    1.708    38 C    1.154    74 H    1.002
    40   6 C    3.865 --    39 C    1.708    41 C    1.147    75 H    0.994
    41   6 C    3.966 --     1 C    1.384    42 N    1.376    40 C    1.147
    42   7 N    2.530 --    38 C    1.377    41 C    1.376
    43   1 H    1.028 --     1 C    0.997
    44   1 H    1.015 --     3 C    0.993
    45   1 H    1.037 --     4 C    1.001
    46   1 H    1.080 --     6 N    0.962
    47   1 H    1.049 --    10 C    0.992
    48   1 H    1.041 --    10 C    0.996
    49   1 H    1.052 --    10 C    0.992
    50   1 H    1.017 --    11 C    0.994
    51   1 H    1.032 --    13 C    0.987
    52   1 H    1.033 --    13 C    0.997
    53   1 H    1.033 --    13 C    0.998
    54   1 H    1.017 --    14 C    0.994
    55   1 H    1.049 --    16 C    0.992
    56   1 H    1.041 --    16 C    0.996
    57   1 H    1.052 --    16 C    0.992
    58   1 H    1.041 --    18 C    1.001
    59   1 H    1.032 --    19 C    1.000
    60   1 H    1.029 --    24 C    0.999
    61   1 H    1.038 --    25 C    1.000
    62   1 H    1.081 --    27 N    0.961
    63   1 H    1.041 --    31 C    0.996
    64   1 H    1.048 --    31 C    0.992
    65   1 H    1.052 --    31 C    0.993
    66   1 H    1.017 --    32 C    0.994
    67   1 H    1.033 --    34 C    0.998
    68   1 H    1.033 --    34 C    0.987
    69   1 H    1.033 --    34 C    0.998
    70   1 H    1.017 --    35 C    0.994
    71   1 H    1.041 --    37 C    0.996
    72   1 H    1.052 --    37 C    0.993
    73   1 H    1.048 --    37 C    0.992
    74   1 H    1.041 --    39 C    1.002
    75   1 H    1.018 --    40 C    0.994
    76   6 C    3.816 --   116 C    1.384    77 C    1.376   118 H    0.997
    77   6 C    3.925 --    76 C    1.376    78 C    1.238    81 N    1.230
    78   6 C    3.843 --    79 C    1.603    77 C    1.238   119 H    0.993
    79   6 C    3.826 --    78 C    1.603    80 C    1.249   120 H    1.001
    80   6 C    3.892 --    82 C    1.357    79 C    1.249    81 N    1.227
    81   7 N    3.228 --    77 C    1.230    80 C    1.227   121 H    0.961
    82   6 C    3.800 --    92 C    1.379    80 C    1.357    83 C    1.027
    83   6 C    3.815 --    84 C    1.421    90 C    1.420    82 C    1.027
    84   6 C    3.888 --    86 C    1.435    83 C    1.421    85 C    1.018
    85   6 C    3.890 --    84 C    1.018   123 H    0.996   124 H    0.993
                           122 H    0.992
    86   6 C    3.835 --    84 C    1.435    87 C    1.433   125 H    0.994
    87   6 C    3.930 --    86 C    1.433    89 C    1.431    88 C    1.010
    88   6 C    3.920 --    87 C    1.010   127 H    0.998   128 H    0.997
                           126 H    0.987
    89   6 C    3.835 --    90 C    1.437    87 C    1.431   129 H    0.994
    90   6 C    3.888 --    89 C    1.437    83 C    1.420    91 C    1.018
    91   6 C    3.890 --    90 C    1.018   131 H    0.996   132 H    0.992
                           130 H    0.992
    92   6 C    3.913 --    82 C    1.379    95 N    1.355    93 C    1.163
    93   6 C    3.835 --    94 C    1.694    92 C    1.163   133 H    1.001
    94   6 C    3.840 --    93 C    1.694    96 C    1.167   134 H    1.000
    95   7 N    2.542 --    96 C    1.413    92 C    1.355
    96   6 C    3.943 --    95 N    1.413    97 C    1.294    94 C    1.167
    97   6 C    3.847 --    98 C    1.297    96 C    1.294   166 C    1.205
    98   6 C    3.906 --    97 C    1.297    99 C    1.265   102 N    1.249
    99   6 C    3.825 --   100 C    1.589    98 C    1.265   135 H    0.999
   100   6 C    3.817 --    99 C    1.589   101 C    1.256   136 H    1.000
   101   6 C    3.887 --   103 C    1.359   100 C    1.256   102 N    1.223
   102   7 N    3.239 --    98 C    1.249   101 C    1.223   137 H    0.961
   103   6 C    3.788 --   113 C    1.371   101 C    1.359   104 C    1.028
   104   6 C    3.815 --   111 C    1.421   105 C    1.419   103 C    1.028
   105   6 C    3.888 --   107 C    1.437   104 C    1.419   106 C    1.018
   106   6 C    3.890 --   105 C    1.018   138 H    0.996   140 H    0.993
                           139 H    0.992
   107   6 C    3.835 --   105 C    1.437   108 C    1.432   141 H    0.994
   108   6 C    3.930 --   110 C    1.433   107 C    1.432   109 C    1.010
   109   6 C    3.920 --   108 C    1.010   142 H    0.998   144 H    0.997
                           143 H    0.987
   110   6 C    3.835 --   111 C    1.435   108 C    1.433   145 H    0.994
   111   6 C    3.888 --   110 C    1.435   104 C    1.421   112 C    1.018
   112   6 C    3.890 --   111 C    1.018   146 H    0.996   147 H    0.993
                           148 H    0.992
   113   6 C    3.934 --   117 N    1.377   103 C    1.371   114 C    1.154
   114   6 C    3.844 --   115 C    1.708   113 C    1.154   149 H    1.002
   115   6 C    3.865 --   114 C    1.708   116 C    1.147   150 H    0.994
   116   6 C    3.966 --    76 C    1.384   117 N    1.376   115 C    1.147
   117   7 N    2.530 --   113 C    1.377   116 C    1.376
   118   1 H    1.028 --    76 C    0.997
   119   1 H    1.015 --    78 C    0.993
   120   1 H    1.037 --    79 C    1.001
   121   1 H    1.080 --    81 N    0.961
   122   1 H    1.049 --    85 C    0.992
   123   1 H    1.041 --    85 C    0.996
   124   1 H    1.052 --    85 C    0.993
   125   1 H    1.017 --    86 C    0.994
   126   1 H    1.032 --    88 C    0.987
   127   1 H    1.033 --    88 C    0.998
   128   1 H    1.033 --    88 C    0.997
   129   1 H    1.016 --    89 C    0.994
   130   1 H    1.049 --    91 C    0.992
   131   1 H    1.041 --    91 C    0.996
   132   1 H    1.052 --    91 C    0.992
   133   1 H    1.041 --    93 C    1.001
   134   1 H    1.032 --    94 C    1.000
   135   1 H    1.029 --    99 C    0.999
   136   1 H    1.038 --   100 C    1.000
   137   1 H    1.081 --   102 N    0.961
   138   1 H    1.041 --   106 C    0.996
   139   1 H    1.048 --   106 C    0.992
   140   1 H    1.052 --   106 C    0.993
   141   1 H    1.016 --   107 C    0.994
   142   1 H    1.033 --   109 C    0.998
   143   1 H    1.033 --   109 C    0.987
   144   1 H    1.033 --   109 C    0.997
   145   1 H    1.017 --   110 C    0.994
   146   1 H    1.041 --   112 C    0.996
   147   1 H    1.052 --   112 C    0.993
   148   1 H    1.048 --   112 C    0.992
   149   1 H    1.041 --   114 C    1.002
   150   1 H    1.018 --   115 C    0.994
   151   6 C    3.759 --   152 C    2.619    22 C    1.206
   152   6 C    3.763 --   151 C    2.619   167 C    1.209
   153   6 C    3.760 --   154 C    2.605   188 C    1.223
   154   6 C    3.761 --   153 C    2.605   241 C    1.223
   155   6 C    3.761 --   156 C    2.601   262 C    1.227
   156   6 C    3.761 --   155 C    2.601   315 C    1.227
   157   6 C    3.762 --   158 C    2.601   336 C    1.227
   158   6 C    3.762 --   157 C    2.601   389 C    1.227
   159   6 C    3.762 --   160 C    2.601   410 C    1.227
   160   6 C    3.762 --   159 C    2.601   463 C    1.227
   161   6 C    3.761 --   162 C    2.600   484 C    1.227
   162   6 C    3.761 --   161 C    2.600   537 C    1.228
   163   6 C    3.762 --   164 C    2.602   558 C    1.226
   164   6 C    3.761 --   163 C    2.602   611 C    1.226
   165   6 C    3.763 --   166 C    2.620   632 C    1.207
   166   6 C    3.758 --   165 C    2.620    97 C    1.205
   167   6 C    3.826 --   207 C    1.291   168 C    1.290   152 C    1.209
   168   6 C    3.907 --   167 C    1.290   169 C    1.269   172 N    1.252
   169   6 C    3.817 --   170 C    1.583   168 C    1.269   209 H    0.999
   170   6 C    3.816 --   169 C    1.583   171 C    1.262   210 H    1.001
   171   6 C    3.878 --   173 C    1.352   170 C    1.262   172 N    1.222
   172   7 N    3.228 --   168 C    1.252   171 C    1.222   211 H    0.962
   173   6 C    3.789 --   183 C    1.385   171 C    1.352   174 C    1.028
   174   6 C    3.814 --   175 C    1.421   181 C    1.420   173 C    1.028
   175   6 C    3.886 --   177 C    1.436   174 C    1.421   176 C    1.018
   176   6 C    3.887 --   175 C    1.018   214 H    0.996   213 H    0.993
                           212 H    0.992
   177   6 C    3.835 --   175 C    1.436   178 C    1.433   215 H    0.994
   178   6 C    3.929 --   177 C    1.433   180 C    1.432   179 C    1.009
   179   6 C    3.919 --   178 C    1.009   217 H    0.998   216 H    0.998
                           218 H    0.987
   180   6 C    3.835 --   181 C    1.437   178 C    1.432   219 H    0.994
   181   6 C    3.888 --   180 C    1.437   174 C    1.420   182 C    1.018
   182   6 C    3.887 --   181 C    1.018   221 H    0.996   222 H    0.992
                           220 H    0.992
   183   6 C    3.912 --   173 C    1.385   186 N    1.350   184 C    1.164
   184   6 C    3.832 --   185 C    1.691   183 C    1.164   223 H    1.002
   185   6 C    3.832 --   184 C    1.691   187 C    1.170   224 H    0.999
   186   7 N    2.527 --   187 C    1.419   183 C    1.350
   187   6 C    3.944 --   186 N    1.419   188 C    1.285   185 C    1.170
   188   6 C    3.829 --   189 C    1.286   187 C    1.285   153 C    1.223
   189   6 C    3.902 --   188 C    1.286   190 C    1.272   193 N    1.252
   190   6 C    3.816 --   191 C    1.580   189 C    1.272   225 H    0.998
   191   6 C    3.813 --   190 C    1.580   192 C    1.264   226 H    1.001
   192   6 C    3.879 --   194 C    1.348   191 C    1.264   193 N    1.224
   193   7 N    3.230 --   189 C    1.252   192 C    1.224   227 H    0.962
   194   6 C    3.787 --   204 C    1.388   192 C    1.348   195 C    1.028
   195   6 C    3.814 --   202 C    1.422   196 C    1.420   194 C    1.028
   196   6 C    3.886 --   198 C    1.437   195 C    1.420   197 C    1.018
   197   6 C    3.888 --   196 C    1.018   228 H    0.996   229 H    0.993
                           230 H    0.992
   198   6 C    3.835 --   196 C    1.437   199 C    1.431   231 H    0.994
   199   6 C    3.929 --   201 C    1.433   198 C    1.431   200 C    1.009
   200   6 C    3.919 --   199 C    1.009   234 H    0.999   232 H    0.997
                           233 H    0.987
   201   6 C    3.835 --   202 C    1.435   199 C    1.433   235 H    0.994
   202   6 C    3.888 --   201 C    1.435   195 C    1.422   203 C    1.018
   203   6 C    3.887 --   202 C    1.018   237 H    0.996   238 H    0.993
                           236 H    0.992
   204   6 C    3.913 --   194 C    1.388   208 N    1.351   205 C    1.162
   205   6 C    3.835 --   206 C    1.694   204 C    1.162   239 H    1.002
   206   6 C    3.835 --   205 C    1.694   207 C    1.167   240 H    1.000
   207   6 C    3.947 --   208 N    1.416   167 C    1.291   206 C    1.167
   208   7 N    2.524 --   207 C    1.416   204 C    1.351
   209   1 H    1.027 --   169 C    0.999
   210   1 H    1.041 --   170 C    1.001
   211   1 H    1.080 --   172 N    0.962
   212   1 H    1.048 --   176 C    0.992
   213   1 H    1.052 --   176 C    0.993
   214   1 H    1.041 --   176 C    0.996
   215   1 H    1.017 --   177 C    0.994
   216   1 H    1.034 --   179 C    0.998
   217   1 H    1.034 --   179 C    0.998
   218   1 H    1.033 --   179 C    0.987
   219   1 H    1.017 --   180 C    0.994
   220   1 H    1.051 --   182 C    0.992
   221   1 H    1.041 --   182 C    0.996
   222   1 H    1.051 --   182 C    0.992
   223   1 H    1.044 --   184 C    1.002
   224   1 H    1.033 --   185 C    0.999
   225   1 H    1.027 --   190 C    0.998
   226   1 H    1.042 --   191 C    1.001
   227   1 H    1.080 --   193 N    0.962
   228   1 H    1.041 --   197 C    0.996
   229   1 H    1.052 --   197 C    0.993
   230   1 H    1.048 --   197 C    0.992
   231   1 H    1.017 --   198 C    0.994
   232   1 H    1.034 --   200 C    0.997
   233   1 H    1.033 --   200 C    0.987
   234   1 H    1.034 --   200 C    0.999
   235   1 H    1.017 --   201 C    0.994
   236   1 H    1.050 --   203 C    0.992
   237   1 H    1.041 --   203 C    0.996
   238   1 H    1.052 --   203 C    0.993
   239   1 H    1.044 --   205 C    1.002
   240   1 H    1.031 --   206 C    1.000
   241   6 C    3.826 --   242 C    1.284   281 C    1.284   154 C    1.223
   242   6 C    3.903 --   241 C    1.284   243 C    1.273   246 N    1.253
   243   6 C    3.814 --   244 C    1.580   242 C    1.273   283 H    0.998
   244   6 C    3.812 --   243 C    1.580   245 C    1.264   284 H    1.001
   245   6 C    3.879 --   247 C    1.349   244 C    1.264   246 N    1.222
   246   7 N    3.228 --   242 C    1.253   245 C    1.222   285 H    0.961
   247   6 C    3.788 --   257 C    1.388   245 C    1.349   248 C    1.028
   248   6 C    3.814 --   255 C    1.421   249 C    1.421   247 C    1.028
   249   6 C    3.886 --   251 C    1.437   248 C    1.421   250 C    1.018
   250   6 C    3.887 --   249 C    1.018   288 H    0.996   287 H    0.993
                           286 H    0.992
   251   6 C    3.834 --   249 C    1.437   252 C    1.432   289 H    0.994
   252   6 C    3.929 --   254 C    1.433   251 C    1.432   253 C    1.009
   253   6 C    3.919 --   252 C    1.009   290 H    0.998   291 H    0.998
                           292 H    0.987
   254   6 C    3.834 --   255 C    1.436   252 C    1.433   293 H    0.994
   255   6 C    3.888 --   254 C    1.436   248 C    1.421   256 C    1.018
   256   6 C    3.887 --   255 C    1.018   295 H    0.996   294 H    0.992
                           296 H    0.992
   257   6 C    3.912 --   247 C    1.388   260 N    1.348   258 C    1.164
   258   6 C    3.831 --   259 C    1.691   257 C    1.164   297 H    1.002
   259   6 C    3.831 --   258 C    1.691   261 C    1.171   298 H    0.998
   260   7 N    2.524 --   261 C    1.420   257 C    1.348
   261   6 C    3.941 --   260 N    1.420   262 C    1.282   259 C    1.171
   262   6 C    3.827 --   263 C    1.283   261 C    1.282   155 C    1.227
   263   6 C    3.902 --   262 C    1.283   264 C    1.274   267 N    1.253
   264   6 C    3.814 --   265 C    1.579   263 C    1.274   299 H    0.997
   265   6 C    3.810 --   264 C    1.579   266 C    1.264   300 H    1.002
   266   6 C    3.879 --   268 C    1.348   265 C    1.264   267 N    1.223
   267   7 N    3.229 --   263 C    1.253   266 C    1.223   301 H    0.961
   268   6 C    3.787 --   278 C    1.389   266 C    1.348   269 C    1.028
   269   6 C    3.814 --   270 C    1.421   276 C    1.420   268 C    1.028
   270   6 C    3.886 --   272 C    1.436   269 C    1.421   271 C    1.018
   271   6 C    3.887 --   270 C    1.018   302 H    0.996   303 H    0.993
                           304 H    0.992
   272   6 C    3.835 --   270 C    1.436   273 C    1.433   305 H    0.994
   273   6 C    3.929 --   272 C    1.433   275 C    1.432   274 C    1.009
   274   6 C    3.919 --   273 C    1.009   306 H    0.998   308 H    0.998
                           307 H    0.987
   275   6 C    3.834 --   276 C    1.437   273 C    1.432   309 H    0.994
   276   6 C    3.888 --   275 C    1.437   269 C    1.420   277 C    1.018
   277   6 C    3.887 --   276 C    1.018   311 H    0.996   312 H    0.992
                           310 H    0.992
   278   6 C    3.912 --   268 C    1.389   282 N    1.348   279 C    1.163
   279   6 C    3.832 --   280 C    1.692   278 C    1.163   313 H    1.002
   280   6 C    3.832 --   279 C    1.692   281 C    1.170   314 H    0.999
   281   6 C    3.944 --   282 N    1.420   241 C    1.284   280 C    1.170
   282   7 N    2.523 --   281 C    1.420   278 C    1.348
   283   1 H    1.027 --   243 C    0.998
   284   1 H    1.041 --   244 C    1.001
   285   1 H    1.080 --   246 N    0.961
   286   1 H    1.048 --   250 C    0.992
   287   1 H    1.053 --   250 C    0.993
   288   1 H    1.041 --   250 C    0.996
   289   1 H    1.017 --   251 C    0.994
   290   1 H    1.034 --   253 C    0.998
   291   1 H    1.034 --   253 C    0.998
   292   1 H    1.033 --   253 C    0.987
   293   1 H    1.015 --   254 C    0.994
   294   1 H    1.051 --   256 C    0.992
   295   1 H    1.041 --   256 C    0.996
   296   1 H    1.052 --   256 C    0.992
   297   1 H    1.044 --   258 C    1.002
   298   1 H    1.031 --   259 C    0.998
   299   1 H    1.028 --   264 C    0.997
   300   1 H    1.042 --   265 C    1.002
   301   1 H    1.080 --   267 N    0.961
   302   1 H    1.041 --   271 C    0.996
   303   1 H    1.053 --   271 C    0.993
   304   1 H    1.048 --   271 C    0.992
   305   1 H    1.017 --   272 C    0.994
   306   1 H    1.034 --   274 C    0.998
   307   1 H    1.033 --   274 C    0.987
   308   1 H    1.034 --   274 C    0.998
   309   1 H    1.015 --   275 C    0.994
   310   1 H    1.051 --   277 C    0.992
   311   1 H    1.041 --   277 C    0.996
   312   1 H    1.052 --   277 C    0.992
   313   1 H    1.044 --   279 C    1.002
   314   1 H    1.032 --   280 C    0.999
   315   6 C    3.827 --   316 C    1.283   355 C    1.282   156 C    1.227
   316   6 C    3.902 --   315 C    1.283   317 C    1.274   320 N    1.253
   317   6 C    3.814 --   318 C    1.580   316 C    1.274   357 H    0.997
   318   6 C    3.812 --   317 C    1.580   319 C    1.264   358 H    1.002
   319   6 C    3.879 --   321 C    1.349   318 C    1.264   320 N    1.223
   320   7 N    3.228 --   316 C    1.253   319 C    1.223   359 H    0.961
   321   6 C    3.787 --   331 C    1.388   319 C    1.349   322 C    1.028
   322   6 C    3.814 --   329 C    1.421   323 C    1.420   321 C    1.028
   323   6 C    3.886 --   325 C    1.437   322 C    1.420   324 C    1.018
   324   6 C    3.887 --   323 C    1.018   362 H    0.996   361 H    0.993
                           360 H    0.992
   325   6 C    3.834 --   323 C    1.437   326 C    1.432   363 H    0.994
   326   6 C    3.929 --   328 C    1.433   325 C    1.432   327 C    1.009
   327   6 C    3.919 --   326 C    1.009   364 H    0.998   365 H    0.998
                           366 H    0.987
   328   6 C    3.834 --   329 C    1.436   326 C    1.433   367 H    0.994
   329   6 C    3.888 --   328 C    1.436   322 C    1.421   330 C    1.018
   330   6 C    3.887 --   329 C    1.018   369 H    0.996   368 H    0.992
                           370 H    0.992
   331   6 C    3.912 --   321 C    1.388   334 N    1.349   332 C    1.164
   332   6 C    3.831 --   333 C    1.691   331 C    1.164   371 H    1.002
   333   6 C    3.831 --   332 C    1.691   335 C    1.171   372 H    0.998
   334   7 N    2.524 --   335 C    1.420   331 C    1.349
   335   6 C    3.942 --   334 N    1.420   336 C    1.282   333 C    1.171
   336   6 C    3.827 --   337 C    1.283   335 C    1.282   157 C    1.227
   337   6 C    3.902 --   336 C    1.283   338 C    1.274   341 N    1.253
   338   6 C    3.814 --   339 C    1.580   337 C    1.274   373 H    0.997
   339   6 C    3.812 --   338 C    1.580   340 C    1.264   374 H    1.002
   340   6 C    3.879 --   342 C    1.349   339 C    1.264   341 N    1.223
   341   7 N    3.228 --   337 C    1.253   340 C    1.223   375 H    0.961
   342   6 C    3.787 --   352 C    1.388   340 C    1.349   343 C    1.028
   343   6 C    3.814 --   344 C    1.421   350 C    1.420   342 C    1.028
   344   6 C    3.886 --   346 C    1.436   343 C    1.421   345 C    1.018
   345   6 C    3.887 --   344 C    1.018   376 H    0.996   377 H    0.993
                           378 H    0.992
   346   6 C    3.834 --   344 C    1.436   347 C    1.433   379 H    0.994
   347   6 C    3.929 --   346 C    1.433   349 C    1.432   348 C    1.009
   348   6 C    3.919 --   347 C    1.009   380 H    0.998   382 H    0.998
                           381 H    0.987
   349   6 C    3.834 --   350 C    1.437   347 C    1.432   383 H    0.994
   350   6 C    3.888 --   349 C    1.437   343 C    1.420   351 C    1.018
   351   6 C    3.887 --   350 C    1.018   385 H    0.996   386 H    0.993
                           384 H    0.992
   352   6 C    3.912 --   342 C    1.388   356 N    1.349   353 C    1.164
   353   6 C    3.831 --   354 C    1.691   352 C    1.164   387 H    1.002
   354   6 C    3.831 --   353 C    1.691   355 C    1.171   388 H    0.998
   355   6 C    3.942 --   356 N    1.420   315 C    1.282   354 C    1.171
   356   7 N    2.524 --   355 C    1.420   352 C    1.349
   357   1 H    1.028 --   317 C    0.997
   358   1 H    1.041 --   318 C    1.002
   359   1 H    1.080 --   320 N    0.961
   360   1 H    1.048 --   324 C    0.992
   361   1 H    1.053 --   324 C    0.993
   362   1 H    1.041 --   324 C    0.996
   363   1 H    1.017 --   325 C    0.994
   364   1 H    1.034 --   327 C    0.998
   365   1 H    1.034 --   327 C    0.998
   366   1 H    1.033 --   327 C    0.987
   367   1 H    1.017 --   328 C    0.994
   368   1 H    1.051 --   330 C    0.992
   369   1 H    1.041 --   330 C    0.996
   370   1 H    1.052 --   330 C    0.992
   371   1 H    1.044 --   332 C    1.002
   372   1 H    1.031 --   333 C    0.998
   373   1 H    1.028 --   338 C    0.997
   374   1 H    1.042 --   339 C    1.002
   375   1 H    1.080 --   341 N    0.961
   376   1 H    1.041 --   345 C    0.996
   377   1 H    1.053 --   345 C    0.993
   378   1 H    1.048 --   345 C    0.992
   379   1 H    1.017 --   346 C    0.994
   380   1 H    1.034 --   348 C    0.998
   381   1 H    1.033 --   348 C    0.987
   382   1 H    1.034 --   348 C    0.998
   383   1 H    1.017 --   349 C    0.994
   384   1 H    1.051 --   351 C    0.992
   385   1 H    1.041 --   351 C    0.996
   386   1 H    1.052 --   351 C    0.993
   387   1 H    1.043 --   353 C    1.002
   388   1 H    1.031 --   354 C    0.998
   389   6 C    3.828 --   390 C    1.283   429 C    1.283   158 C    1.227
   390   6 C    3.902 --   389 C    1.283   391 C    1.274   394 N    1.253
   391   6 C    3.814 --   392 C    1.580   390 C    1.274   431 H    0.997
   392   6 C    3.812 --   391 C    1.580   393 C    1.264   432 H    1.002
   393   6 C    3.879 --   395 C    1.349   392 C    1.264   394 N    1.223
   394   7 N    3.228 --   390 C    1.253   393 C    1.223   433 H    0.961
   395   6 C    3.787 --   405 C    1.388   393 C    1.349   396 C    1.028
   396   6 C    3.814 --   403 C    1.421   397 C    1.420   395 C    1.028
   397   6 C    3.886 --   399 C    1.437   396 C    1.420   398 C    1.018
   398   6 C    3.887 --   397 C    1.018   436 H    0.996   435 H    0.993
                           434 H    0.992
   399   6 C    3.834 --   397 C    1.437   400 C    1.432   437 H    0.994
   400   6 C    3.929 --   402 C    1.433   399 C    1.432   401 C    1.009
   401   6 C    3.919 --   400 C    1.009   438 H    0.998   439 H    0.998
                           440 H    0.987
   402   6 C    3.834 --   403 C    1.436   400 C    1.433   441 H    0.994
   403   6 C    3.888 --   402 C    1.436   396 C    1.421   404 C    1.018
   404   6 C    3.887 --   403 C    1.018   443 H    0.996   444 H    0.992
                           442 H    0.992
   405   6 C    3.912 --   395 C    1.388   408 N    1.349   406 C    1.164
   406   6 C    3.831 --   407 C    1.691   405 C    1.164   445 H    1.002
   407   6 C    3.831 --   406 C    1.691   409 C    1.171   446 H    0.998
   408   7 N    2.524 --   409 C    1.420   405 C    1.349
   409   6 C    3.942 --   408 N    1.420   410 C    1.283   407 C    1.171
   410   6 C    3.828 --   411 C    1.283   409 C    1.283   159 C    1.227
   411   6 C    3.902 --   410 C    1.283   412 C    1.274   415 N    1.253
   412   6 C    3.814 --   413 C    1.580   411 C    1.274   447 H    0.997
   413   6 C    3.812 --   412 C    1.580   414 C    1.264   448 H    1.002
   414   6 C    3.879 --   416 C    1.349   413 C    1.264   415 N    1.223
   415   7 N    3.229 --   411 C    1.253   414 C    1.223   449 H    0.961
   416   6 C    3.787 --   426 C    1.388   414 C    1.349   417 C    1.028
   417   6 C    3.814 --   418 C    1.421   424 C    1.420   416 C    1.028
   418   6 C    3.886 --   420 C    1.436   417 C    1.421   419 C    1.018
   419   6 C    3.887 --   418 C    1.018   450 H    0.996   451 H    0.993
                           452 H    0.992
   420   6 C    3.834 --   418 C    1.436   421 C    1.433   453 H    0.994
   421   6 C    3.929 --   420 C    1.433   423 C    1.432   422 C    1.009
   422   6 C    3.919 --   421 C    1.009   454 H    0.998   456 H    0.998
                           455 H    0.987
   423   6 C    3.834 --   424 C    1.437   421 C    1.432   457 H    0.994
   424   6 C    3.888 --   423 C    1.437   417 C    1.420   425 C    1.018
   425   6 C    3.887 --   424 C    1.018   459 H    0.996   460 H    0.992
                           458 H    0.992
   426   6 C    3.912 --   416 C    1.388   430 N    1.348   427 C    1.164
   427   6 C    3.831 --   428 C    1.691   426 C    1.164   461 H    1.002
   428   6 C    3.831 --   427 C    1.691   429 C    1.171   462 H    0.998
   429   6 C    3.942 --   430 N    1.420   389 C    1.283   428 C    1.171
   430   7 N    2.524 --   429 C    1.420   426 C    1.348
   431   1 H    1.028 --   391 C    0.997
   432   1 H    1.041 --   392 C    1.002
   433   1 H    1.080 --   394 N    0.961
   434   1 H    1.048 --   398 C    0.992
   435   1 H    1.053 --   398 C    0.993
   436   1 H    1.041 --   398 C    0.996
   437   1 H    1.017 --   399 C    0.994
   438   1 H    1.034 --   401 C    0.998
   439   1 H    1.034 --   401 C    0.998
   440   1 H    1.033 --   401 C    0.987
   441   1 H    1.017 --   402 C    0.994
   442   1 H    1.051 --   404 C    0.992
   443   1 H    1.041 --   404 C    0.996
   444   1 H    1.052 --   404 C    0.992
   445   1 H    1.044 --   406 C    1.002
   446   1 H    1.031 --   407 C    0.998
   447   1 H    1.028 --   412 C    0.997
   448   1 H    1.042 --   413 C    1.002
   449   1 H    1.080 --   415 N    0.961
   450   1 H    1.041 --   419 C    0.996
   451   1 H    1.053 --   419 C    0.993
   452   1 H    1.048 --   419 C    0.992
   453   1 H    1.017 --   420 C    0.994
   454   1 H    1.034 --   422 C    0.998
   455   1 H    1.033 --   422 C    0.987
   456   1 H    1.034 --   422 C    0.998
   457   1 H    1.017 --   423 C    0.994
   458   1 H    1.051 --   425 C    0.992
   459   1 H    1.041 --   425 C    0.996
   460   1 H    1.052 --   425 C    0.992
   461   1 H    1.043 --   427 C    1.002
   462   1 H    1.031 --   428 C    0.998
   463   6 C    3.827 --   464 C    1.283   503 C    1.282   160 C    1.227
   464   6 C    3.902 --   463 C    1.283   465 C    1.274   468 N    1.253
   465   6 C    3.814 --   466 C    1.580   464 C    1.274   505 H    0.997
   466   6 C    3.812 --   465 C    1.580   467 C    1.264   506 H    1.002
   467   6 C    3.879 --   469 C    1.349   466 C    1.264   468 N    1.223
   468   7 N    3.228 --   464 C    1.253   467 C    1.223   507 H    0.961
   469   6 C    3.787 --   479 C    1.389   467 C    1.349   470 C    1.028
   470   6 C    3.814 --   477 C    1.421   471 C    1.420   469 C    1.028
   471   6 C    3.886 --   473 C    1.437   470 C    1.420   472 C    1.018
   472   6 C    3.887 --   471 C    1.018   510 H    0.996   509 H    0.993
                           508 H    0.992
   473   6 C    3.834 --   471 C    1.437   474 C    1.432   511 H    0.994
   474   6 C    3.929 --   476 C    1.433   473 C    1.432   475 C    1.009
   475   6 C    3.919 --   474 C    1.009   512 H    0.998   513 H    0.998
                           514 H    0.987
   476   6 C    3.834 --   477 C    1.435   474 C    1.433   515 H    0.994
   477   6 C    3.888 --   476 C    1.435   470 C    1.421   478 C    1.018
   478   6 C    3.887 --   477 C    1.018   517 H    0.996   518 H    0.992
                           516 H    0.992
   479   6 C    3.912 --   469 C    1.389   482 N    1.348   480 C    1.164
   480   6 C    3.831 --   481 C    1.691   479 C    1.164   519 H    1.002
   481   6 C    3.831 --   480 C    1.691   483 C    1.171   520 H    0.998
   482   7 N    2.524 --   483 C    1.420   479 C    1.348
   483   6 C    3.942 --   482 N    1.420   484 C    1.282   481 C    1.171
   484   6 C    3.827 --   485 C    1.283   483 C    1.282   161 C    1.227
   485   6 C    3.902 --   484 C    1.283   486 C    1.274   489 N    1.253
   486   6 C    3.814 --   487 C    1.579   485 C    1.274   521 H    0.997
   487   6 C    3.812 --   486 C    1.579   488 C    1.264   522 H    1.002
   488   6 C    3.879 --   490 C    1.349   487 C    1.264   489 N    1.223
   489   7 N    3.228 --   485 C    1.253   488 C    1.223   523 H    0.961
   490   6 C    3.787 --   500 C    1.389   488 C    1.349   491 C    1.028
   491   6 C    3.814 --   492 C    1.421   498 C    1.420   490 C    1.028
   492   6 C    3.886 --   494 C    1.436   491 C    1.421   493 C    1.018
   493   6 C    3.887 --   492 C    1.018   524 H    0.996   525 H    0.993
                           526 H    0.992
   494   6 C    3.834 --   492 C    1.436   495 C    1.433   527 H    0.994
   495   6 C    3.929 --   494 C    1.433   497 C    1.432   496 C    1.009
   496   6 C    3.919 --   495 C    1.009   528 H    0.998   530 H    0.998
                           529 H    0.987
   497   6 C    3.834 --   498 C    1.437   495 C    1.432   531 H    0.994
   498   6 C    3.888 --   497 C    1.437   491 C    1.420   499 C    1.018
   499   6 C    3.887 --   498 C    1.018   533 H    0.996   534 H    0.992
                           532 H    0.992
   500   6 C    3.912 --   490 C    1.389   504 N    1.349   501 C    1.164
   501   6 C    3.831 --   502 C    1.691   500 C    1.164   535 H    1.002
   502   6 C    3.831 --   501 C    1.691   503 C    1.171   536 H    0.998
   503   6 C    3.942 --   504 N    1.420   463 C    1.282   502 C    1.171
   504   7 N    2.524 --   503 C    1.420   500 C    1.349
   505   1 H    1.028 --   465 C    0.997
   506   1 H    1.041 --   466 C    1.002
   507   1 H    1.080 --   468 N    0.961
   508   1 H    1.048 --   472 C    0.992
   509   1 H    1.053 --   472 C    0.993
   510   1 H    1.041 --   472 C    0.996
   511   1 H    1.017 --   473 C    0.994
   512   1 H    1.034 --   475 C    0.998
   513   1 H    1.034 --   475 C    0.998
   514   1 H    1.033 --   475 C    0.987
   515   1 H    1.017 --   476 C    0.994
   516   1 H    1.051 --   478 C    0.992
   517   1 H    1.041 --   478 C    0.996
   518   1 H    1.052 --   478 C    0.992
   519   1 H    1.044 --   480 C    1.002
   520   1 H    1.031 --   481 C    0.998
   521   1 H    1.028 --   486 C    0.997
   522   1 H    1.042 --   487 C    1.002
   523   1 H    1.080 --   489 N    0.961
   524   1 H    1.041 --   493 C    0.996
   525   1 H    1.053 --   493 C    0.993
   526   1 H    1.048 --   493 C    0.992
   527   1 H    1.017 --   494 C    0.994
   528   1 H    1.034 --   496 C    0.998
   529   1 H    1.033 --   496 C    0.987
   530   1 H    1.034 --   496 C    0.998
   531   1 H    1.017 --   497 C    0.994
   532   1 H    1.051 --   499 C    0.992
   533   1 H    1.041 --   499 C    0.996
   534   1 H    1.052 --   499 C    0.992
   535   1 H    1.043 --   501 C    1.002
   536   1 H    1.031 --   502 C    0.998
   537   6 C    3.826 --   538 C    1.283   577 C    1.282   162 C    1.228
   538   6 C    3.902 --   537 C    1.283   539 C    1.274   542 N    1.253
   539   6 C    3.814 --   540 C    1.579   538 C    1.274   579 H    0.997
   540   6 C    3.812 --   539 C    1.579   541 C    1.264   580 H    1.002
   541   6 C    3.878 --   543 C    1.348   540 C    1.264   542 N    1.223
   542   7 N    3.228 --   538 C    1.253   541 C    1.223   581 H    0.961
   543   6 C    3.787 --   553 C    1.389   541 C    1.348   544 C    1.028
   544   6 C    3.814 --   551 C    1.421   545 C    1.420   543 C    1.028
   545   6 C    3.886 --   547 C    1.437   544 C    1.420   546 C    1.018
   546   6 C    3.887 --   545 C    1.018   584 H    0.996   583 H    0.993
                           582 H    0.992
   547   6 C    3.834 --   545 C    1.437   548 C    1.432   585 H    0.994
   548   6 C    3.929 --   550 C    1.433   547 C    1.432   549 C    1.009
   549   6 C    3.919 --   548 C    1.009   586 H    0.998   587 H    0.998
                           588 H    0.987
   550   6 C    3.834 --   551 C    1.436   548 C    1.433   589 H    0.994
   551   6 C    3.888 --   550 C    1.436   544 C    1.421   552 C    1.018
   552   6 C    3.887 --   551 C    1.018   591 H    0.996   592 H    0.992
                           590 H    0.992
   553   6 C    3.912 --   543 C    1.389   556 N    1.348   554 C    1.163
   554   6 C    3.831 --   555 C    1.691   553 C    1.163   593 H    1.002
   555   6 C    3.831 --   554 C    1.691   557 C    1.171   594 H    0.998
   556   7 N    2.523 --   557 C    1.420   553 C    1.348
   557   6 C    3.942 --   556 N    1.420   558 C    1.282   555 C    1.171
   558   6 C    3.825 --   559 C    1.283   557 C    1.282   163 C    1.226
   559   6 C    3.902 --   558 C    1.283   560 C    1.274   563 N    1.253
   560   6 C    3.813 --   561 C    1.579   559 C    1.274   595 H    0.997
   561   6 C    3.812 --   560 C    1.579   562 C    1.264   596 H    1.002
   562   6 C    3.878 --   564 C    1.349   561 C    1.264   563 N    1.222
   563   7 N    3.228 --   559 C    1.253   562 C    1.222   597 H    0.961
   564   6 C    3.787 --   574 C    1.388   562 C    1.349   565 C    1.028
   565   6 C    3.814 --   566 C    1.421   572 C    1.420   564 C    1.028
   566   6 C    3.886 --   568 C    1.436   565 C    1.421   567 C    1.018
   567   6 C    3.887 --   566 C    1.018   598 H    0.996   599 H    0.993
                           600 H    0.992
   568   6 C    3.834 --   566 C    1.436   569 C    1.433   601 H    0.994
   569   6 C    3.929 --   568 C    1.433   571 C    1.432   570 C    1.009
   570   6 C    3.919 --   569 C    1.009   602 H    0.998   604 H    0.998
                           603 H    0.987
   571   6 C    3.834 --   572 C    1.437   569 C    1.432   605 H    0.994
   572   6 C    3.888 --   571 C    1.437   565 C    1.420   573 C    1.018
   573   6 C    3.887 --   572 C    1.018   607 H    0.996   606 H    0.992
                           608 H    0.992
   574   6 C    3.912 --   564 C    1.388   578 N    1.349   575 C    1.164
   575   6 C    3.831 --   576 C    1.691   574 C    1.164   609 H    1.002
   576   6 C    3.831 --   575 C    1.691   577 C    1.171   610 H    0.998
   577   6 C    3.941 --   578 N    1.420   537 C    1.282   576 C    1.171
   578   7 N    2.523 --   577 C    1.420   574 C    1.349
   579   1 H    1.028 --   539 C    0.997
   580   1 H    1.041 --   540 C    1.002
   581   1 H    1.080 --   542 N    0.961
   582   1 H    1.048 --   546 C    0.992
   583   1 H    1.053 --   546 C    0.993
   584   1 H    1.041 --   546 C    0.996
   585   1 H    1.017 --   547 C    0.994
   586   1 H    1.034 --   549 C    0.998
   587   1 H    1.034 --   549 C    0.998
   588   1 H    1.033 --   549 C    0.987
   589   1 H    1.017 --   550 C    0.994
   590   1 H    1.051 --   552 C    0.992
   591   1 H    1.041 --   552 C    0.996
   592   1 H    1.052 --   552 C    0.992
   593   1 H    1.044 --   554 C    1.002
   594   1 H    1.031 --   555 C    0.998
   595   1 H    1.028 --   560 C    0.997
   596   1 H    1.042 --   561 C    1.002
   597   1 H    1.080 --   563 N    0.961
   598   1 H    1.041 --   567 C    0.996
   599   1 H    1.053 --   567 C    0.993
   600   1 H    1.048 --   567 C    0.992
   601   1 H    1.017 --   568 C    0.994
   602   1 H    1.034 --   570 C    0.998
   603   1 H    1.033 --   570 C    0.987
   604   1 H    1.034 --   570 C    0.998
   605   1 H    1.017 --   571 C    0.994
   606   1 H    1.051 --   573 C    0.992
   607   1 H    1.041 --   573 C    0.996
   608   1 H    1.052 --   573 C    0.992
   609   1 H    1.043 --   575 C    1.002
   610   1 H    1.031 --   576 C    0.998
   611   6 C    3.829 --   612 C    1.284   651 C    1.283   164 C    1.226
   612   6 C    3.901 --   611 C    1.284   613 C    1.274   616 N    1.252
   613   6 C    3.814 --   614 C    1.580   612 C    1.274   653 H    0.997
   614   6 C    3.812 --   613 C    1.580   615 C    1.264   654 H    1.001
   615   6 C    3.879 --   617 C    1.348   614 C    1.264   616 N    1.224
   616   7 N    3.230 --   612 C    1.252   615 C    1.224   655 H    0.962
   617   6 C    3.787 --   627 C    1.388   615 C    1.348   618 C    1.028
   618   6 C    3.814 --   625 C    1.421   619 C    1.420   617 C    1.028
   619   6 C    3.886 --   621 C    1.437   618 C    1.420   620 C    1.018
   620   6 C    3.888 --   619 C    1.018   658 H    0.996   657 H    0.993
                           656 H    0.992
   621   6 C    3.835 --   619 C    1.437   622 C    1.431   659 H    0.994
   622   6 C    3.929 --   624 C    1.433   621 C    1.431   623 C    1.009
   623   6 C    3.919 --   622 C    1.009   660 H    0.999   661 H    0.997
                           662 H    0.987
   624   6 C    3.835 --   625 C    1.435   622 C    1.433   663 H    0.994
   625   6 C    3.888 --   624 C    1.435   618 C    1.421   626 C    1.018
   626   6 C    3.887 --   625 C    1.018   665 H    0.996   666 H    0.992
                           664 H    0.992
   627   6 C    3.913 --   617 C    1.388   630 N    1.351   628 C    1.162
   628   6 C    3.837 --   629 C    1.694   627 C    1.162   667 H    1.002
   629   6 C    3.837 --   628 C    1.694   631 C    1.167   668 H    1.000
   630   7 N    2.523 --   631 C    1.416   627 C    1.351
   631   6 C    3.947 --   630 N    1.416   632 C    1.291   629 C    1.167
   632   6 C    3.825 --   631 C    1.291   633 C    1.291   165 C    1.207
   633   6 C    3.907 --   632 C    1.291   634 C    1.269   637 N    1.251
   634   6 C    3.817 --   635 C    1.583   633 C    1.269   669 H    0.999
   635   6 C    3.818 --   634 C    1.583   636 C    1.262   670 H    1.001
   636   6 C    3.878 --   638 C    1.352   635 C    1.262   637 N    1.222
   637   7 N    3.228 --   633 C    1.251   636 C    1.222   671 H    0.961
   638   6 C    3.789 --   648 C    1.386   636 C    1.352   639 C    1.028
   639   6 C    3.814 --   640 C    1.421   646 C    1.420   638 C    1.028
   640   6 C    3.886 --   642 C    1.436   639 C    1.421   641 C    1.018
   641   6 C    3.888 --   640 C    1.018   672 H    0.996   673 H    0.993
                           674 H    0.992
   642   6 C    3.835 --   640 C    1.436   643 C    1.433   675 H    0.994
   643   6 C    3.929 --   642 C    1.433   645 C    1.432   644 C    1.009
   644   6 C    3.919 --   643 C    1.009   676 H    0.998   678 H    0.998
                           677 H    0.987
   645   6 C    3.835 --   646 C    1.437   643 C    1.432   679 H    0.994
   646   6 C    3.888 --   645 C    1.437   639 C    1.420   647 C    1.018
   647   6 C    3.887 --   646 C    1.018   681 H    0.996   682 H    0.992
                           680 H    0.992
   648   6 C    3.911 --   638 C    1.386   652 N    1.350   649 C    1.164
   649   6 C    3.830 --   650 C    1.691   648 C    1.164   683 H    1.002
   650   6 C    3.831 --   649 C    1.691   651 C    1.171   684 H    0.998
   651   6 C    3.941 --   652 N    1.419   611 C    1.283   650 C    1.171
   652   7 N    2.526 --   651 C    1.419   648 C    1.350
   653   1 H    1.028 --   613 C    0.997
   654   1 H    1.041 --   614 C    1.001
   655   1 H    1.080 --   616 N    0.962
   656   1 H    1.048 --   620 C    0.992
   657   1 H    1.052 --   620 C    0.993
   658   1 H    1.041 --   620 C    0.996
   659   1 H    1.017 --   621 C    0.994
   660   1 H    1.033 --   623 C    0.999
   661   1 H    1.033 --   623 C    0.997
   662   1 H    1.033 --   623 C    0.987
   663   1 H    1.017 --   624 C    0.994
   664   1 H    1.050 --   626 C    0.992
   665   1 H    1.041 --   626 C    0.996
   666   1 H    1.052 --   626 C    0.992
   667   1 H    1.045 --   628 C    1.002
   668   1 H    1.031 --   629 C    1.000
   669   1 H    1.027 --   634 C    0.999
   670   1 H    1.042 --   635 C    1.001
   671   1 H    1.080 --   637 N    0.961
   672   1 H    1.041 --   641 C    0.996
   673   1 H    1.052 --   641 C    0.993
   674   1 H    1.049 --   641 C    0.992
   675   1 H    1.017 --   642 C    0.994
   676   1 H    1.034 --   644 C    0.998
   677   1 H    1.033 --   644 C    0.987
   678   1 H    1.034 --   644 C    0.998
   679   1 H    1.017 --   645 C    0.994
   680   1 H    1.049 --   647 C    0.992
   681   1 H    1.041 --   647 C    0.996
   682   1 H    1.052 --   647 C    0.992
   683   1 H    1.043 --   649 C    1.002
   684   1 H    1.031 --   650 C    0.998
 ---------------------------------------------------------------------------

Topologies differ in total number of bonds
Writing topology from bond orders to xtbtopo.mol

 dipole moment from electron density (au)
     X       Y       Z   
-353.4675  -0.1374  -0.1435  total (Debye):  898.425


           -------------------------------------------------
          | TOTAL ENERGY            -1165.403959461387 Eh   |
          | GRADIENT NORM               0.126493649960 Eh/α |
          | HOMO-LUMO GAP               0.070067357091 eV   |
           -------------------------------------------------
########################################################################
[WARNING] Runtime exception occurred
-1- restart_readRestart: Dimension missmatch in restart file.
########################################################################

------------------------------------------------------------------------
 * finished run on 2022/07/28 at 17:24:26.710     
------------------------------------------------------------------------
 total:
 * wall-time:     0 d,  0 h,  4 min, 25.014 sec
 *  cpu-time:     0 d,  0 h,  4 min, 23.465 sec
 * ratio c/w:     0.994 speedup
 SCF:
 * wall-time:     0 d,  0 h,  4 min, 21.837 sec
 *  cpu-time:     0 d,  0 h,  4 min, 20.405 sec
 * ratio c/w:     0.995 speedup

