      -----------------------------------------------------------      
     |                   =====================                   |     
     |                           x T B                           |     
     |                   =====================                   |     
     |                         S. Grimme                         |     
     |          Mulliken Center for Theoretical Chemistry        |     
     |                    University of Bonn                     |     
      -----------------------------------------------------------      

   * xtb version 6.5.1 (b24c23e) compiled by 'conda@728c89f4b128' on 2022-07-12

   xtb is free software: you can redistribute it and/or modify it under
   the terms of the GNU Lesser General Public License as published by
   the Free Software Foundation, either version 3 of the License, or
   (at your option) any later version.
   
   xtb is distributed in the hope that it will be useful,
   but WITHOUT ANY WARRANTY; without even the implied warranty of
   MERCHANTABILITY or FITNESS FOR A PARTICULAR PURPOSE.  See the
   GNU Lesser General Public License for more details.
   
   Cite this work as:
   * C. Bannwarth, E. Caldeweyher, S. Ehlert, A. Hansen, P. Pracht,
     J. Seibert, S. Spicher, S. Grimme, WIREs Comput. Mol. Sci., 2020, 11,
     e01493. DOI: 10.1002/wcms.1493
   
   for GFN2-xTB:
   * C. Bannwarth, S. Ehlert and S. Grimme., J. Chem. Theory Comput., 2019,
     15, 1652-1671. DOI: 10.1021/acs.jctc.8b01176
   for GFN1-xTB:
   * S. Grimme, C. Bannwarth, P. Shushkov, J. Chem. Theory Comput., 2017,
     13, 1989-2009. DOI: 10.1021/acs.jctc.7b00118
   for GFN0-xTB:
   * P. Pracht, E. Caldeweyher, S. Ehlert, S. Grimme, ChemRxiv, 2019, preprint.
     DOI: 10.26434/chemrxiv.8326202.v1
   for GFN-FF:
   * S. Spicher and S. Grimme, Angew. Chem. Int. Ed., 2020, 59, 15665-15673.
     DOI: 10.1002/anie.202004239
   
   for ALPB and GBSA implicit solvation:
   * S. Ehlert, M. Stahn, S. Spicher, S. Grimme, J. Chem. Theory Comput.,
     2021, 17, 4250-4261. DOI: 10.1021/acs.jctc.1c00471
   
   for DFT-D4:
   * E. Caldeweyher, C. Bannwarth and S. Grimme, J. Chem. Phys., 2017,
     147, 034112. DOI: 10.1063/1.4993215
   * E. Caldeweyher, S. Ehlert, A. Hansen, H. Neugebauer, S. Spicher,
     C. Bannwarth and S. Grimme, J. Chem. Phys., 2019, 150, 154122.
     DOI: 10.1063/1.5090222
   * E. Caldeweyher, J.-M. Mewes, S. Ehlert and S. Grimme, Phys. Chem. Chem. Phys.
     2020, 22, 8499-8512. DOI: 10.1039/D0CP00502A
   
   for sTDA-xTB:
   * S. Grimme and C. Bannwarth, J. Chem. Phys., 2016, 145, 054103.
     DOI: 10.1063/1.4959605
   
   in the mass-spec context:
   * V. Asgeirsson, C. Bauer and S. Grimme, Chem. Sci., 2017, 8, 4879.
     DOI: 10.1039/c7sc00601b
   * J. Koopman and S. Grimme, ACS Omega 2019, 4, 12, 15120-15133.
     DOI: 10.1021/acsomega.9b02011
   
   for metadynamics refer to:
   * S. Grimme, J. Chem. Theory Comput., 2019, 155, 2847-2862
     DOI: 10.1021/acs.jctc.9b00143
   
   for SPH calculations refer to:
   * S. Spicher and S. Grimme, J. Chem. Theory Comput., 2021, 17, 1701-1714
     DOI: 10.1021/acs.jctc.0c01306
   
   with help from (in alphabetical order)
   P. Atkinson, C. Bannwarth, F. Bohle, G. Brandenburg, E. Caldeweyher
   M. Checinski, S. Dohm, S. Ehlert, S. Ehrlich, I. Gerasimov, C. Hölzer
   A. Katbashev, J. Koopman, C. Lavigne, S. Lehtola, F. März, M. Müller,
   F. Musil, H. Neugebauer, J. Pisarek, C. Plett, P. Pracht, F. Pultar,
   J. Seibert, P. Shushkov, S. Spicher, M. Stahn, M. Steiner, T. Strunk,
   J. Stückrath, T. Rose, and J. Unsleber
   
 * started run on 2022/07/30 at 01:43:06.512     

           -------------------------------------------------
          |                Calculation Setup                |
           -------------------------------------------------

          program call               : xtb xtbopt.xyz --gfn 1 --vipea
          hostname                   : cx3-14-28.cx3.hpc.ic.ac.uk
          coordinate file            : xtbopt.xyz
          omp threads                :                     1

   ID    Z sym.   atoms
    1   27 Co     1, 57, 125, 180
    2    6 C      2-6, 8-11, 13-29, 32-37, 58-62, 64-67, 69-85, 88-93,
                  113-124, 126-130, 132-135, 137-153, 156-161, 181-185,
                  187-190, 192-208, 211-216
    3    7 N      7, 12, 30, 31, 63, 68, 86, 87, 131, 136, 154, 155, 186,
                  191, 209, 210
    4    1 H      38-56, 94-112, 162-179, 217-234

           -------------------------------------------------
          |                 I P E A - x T B                 |
           -------------------------------------------------

        Reference                      10.1039/c7sc00601b
      * Hamiltonian:
        H0-scaling (s, p, d)           2.150000    2.300000    2.000000
        zeta-weighting                 0.000000
      * Dispersion:
        s8                             2.400000
        a1                             0.630000
        a2                             5.000000
        s9                             0.000000
      * Repulsion:
        kExp                           1.500000
        rExp                           1.000000
      * Coulomb:
        alpha                          1.000000
        third order                    atomic
        anisotropic                    false
      * Halogen bond correction:
        rad-scale                      1.300000
        damping                        0.440000


          ...................................................
          :                      SETUP                      :
          :.................................................:
          :  # basis functions                 968          :
          :  # atomic orbitals                 964          :
          :  # shells                          628          :
          :  # electrons                       750          :
          :  # halogen bonds                     0          :
          :  max. iterations                   250          :
          :  Hamiltonian                  GFN1-xTB          :
          :  restarted?                      false          :
          :  GBSA solvation                  false          :
          :  PC potential                    false          :
          :  electronic temp.          300.0000000     K    :
          :  accuracy                    1.0000000          :
          :  -> integral cutoff          0.2500000E+02      :
          :  -> integral neglect         0.1000000E-07      :
          :  -> SCF convergence          0.1000000E-05 Eh   :
          :  -> wf. convergence          0.2000000E-04 e    :
          :  Broyden damping             0.4000000          :
          ...................................................

 iter      E             dE          RMSdq      gap      omega  full diag
   1   -459.7203164 -0.459720E+03  0.107E+01    0.28       0.0  T
   2   -442.1752841  0.175450E+02  0.958E+00    0.00       1.0  T
   3   -447.5028890 -0.532760E+01  0.643E+00    0.08       1.0  T
   4   -150.5488850  0.296954E+03  0.101E+01    0.01       1.0  T
   5     -5.8553978  0.144693E+03  0.109E+01    0.04       1.0  T
   6   -434.7576037 -0.428902E+03  0.578E+00    0.05       1.0  T
   7   -458.0479446 -0.232903E+02  0.396E+00    0.12       1.0  T
   8   -455.9827979  0.206515E+01  0.346E+00    0.01       1.0  T
   9   -460.8639119 -0.488111E+01  0.274E+00    0.09       1.0  T
  10   -459.1436582  0.172025E+01  0.285E+00    0.04       1.0  T
  11   -460.3624270 -0.121877E+01  0.262E+00    0.00       1.0  T
  12   -460.3361873  0.262397E-01  0.253E+00    0.00       1.0  T
  13   -452.9546862  0.738150E+01  0.406E+00    0.10       1.0  T
  14   -457.4414322 -0.448675E+01  0.296E+00    0.04       1.0  T
  15   -450.9775243  0.646391E+01  0.471E+00    0.43       1.0  T
  16   -451.4476706 -0.470146E+00  0.462E+00    0.23       1.0  T
  17   -461.1479785 -0.970031E+01  0.179E+00    0.09       1.0  T
  18   -460.1027638  0.104521E+01  0.250E+00    0.04       1.0  T
  19   -461.0207241 -0.917960E+00  0.204E+00    0.03       1.0  T
  20   -460.3959807  0.624743E+00  0.234E+00    0.01       1.0  T
  21   -460.4461837 -0.502030E-01  0.229E+00    0.01       1.0  T
  22   -461.6920917 -0.124591E+01  0.161E+00    0.11       1.0  T
  23   -461.7489041 -0.568124E-01  0.149E+00    0.14       1.0  T
  24   -461.9305373 -0.181633E+00  0.131E+00    0.03       1.0  T
  25   -461.8446457  0.858916E-01  0.133E+00    0.10       1.0  T
  26   -462.0107107 -0.166065E+00  0.955E-01    0.02       1.0  T
  27   -462.0996253 -0.889145E-01  0.105E+00    0.02       1.0  T
  28   -462.3281645 -0.228539E+00  0.648E-01    0.01       1.0  T
  29   -462.0504365  0.277728E+00  0.935E-01    0.09       1.0  T
  30   -462.2266215 -0.176185E+00  0.782E-01    0.03       1.0  T
  31   -462.3770337 -0.150412E+00  0.366E-01    0.00       1.0  T
  32   -462.3019051  0.751286E-01  0.604E-01    0.01       1.0  T
  33   -462.3946838 -0.927787E-01  0.327E-01    0.02       1.0  T
  34   -462.4001792 -0.549538E-02  0.320E-01    0.01       1.0  T
  35   -462.3967364  0.344273E-02  0.333E-01    0.00       1.0  T
  36   -462.3862238  0.105126E-01  0.371E-01    0.01       1.0  T
  37   -462.4197532 -0.335294E-01  0.207E-01    0.01       1.0  T
  38   -462.4262346 -0.648133E-02  0.158E-01    0.00       1.0  T
  39   -462.4271700 -0.935417E-03  0.150E-01    0.00       1.0  T
  40   -462.4351324 -0.796241E-02  0.353E-02    0.00       1.0  T
  41   -462.4335775  0.155492E-02  0.747E-02    0.00       1.0  T
  42   -462.4348990 -0.132150E-02  0.427E-02    0.00       1.0  T
  43   -462.4351606 -0.261629E-03  0.319E-02    0.00       1.0  T
  44   -462.4352624 -0.101796E-03  0.268E-02    0.00       1.0  T
  45   -462.4353327 -0.703097E-04  0.237E-02    0.00       1.0  T
  46   -462.4352952  0.374841E-04  0.253E-02    0.00       1.0  T
  47   -462.4354736 -0.178421E-03  0.123E-02    0.00       1.0  T
  48   -462.4355017 -0.280806E-04  0.938E-03    0.00       1.0  T
  49   -462.4355174 -0.157082E-04  0.676E-03    0.00       1.0  T
  50   -462.4355169  0.529938E-06  0.703E-03    0.00       1.0  T
  51   -462.4355217 -0.482186E-05  0.607E-03    0.00       1.1  T
  52   -462.4355307 -0.893956E-05  0.345E-03    0.00       1.9  T
  53   -462.4355331 -0.245681E-05  0.206E-03    0.00       3.2  T
  54   -462.4355340 -0.916723E-06  0.113E-03    0.00       5.8  T
  55   -462.4355342 -0.202555E-06  0.766E-04    0.00       8.5  T
  56   -462.4355344 -0.125484E-06  0.457E-04    0.00      14.3  T
  57   -462.4355344 -0.521258E-07  0.249E-04    0.00      26.2  T
  58   -462.4355344 -0.496971E-08  0.228E-04    0.00      28.7  T
  59   -462.4355344  0.485983E-08  0.251E-04    0.00      26.0  T
  60   -462.4355344 -0.767596E-08  0.198E-04    0.00      33.0  T
  61   -462.4355344 -0.314924E-08  0.170E-04    0.00      38.4  T

   *** convergence criteria satisfied after 61 iterations ***

         #    Occupation            Energy/Eh            Energy/eV
      -------------------------------------------------------------
         1        2.0000           -1.0227277             -27.8298
       ...           ...                  ...                  ...
       369        1.9998           -0.3594624              -9.7815
       370        1.9998           -0.3594001              -9.7798
       371        1.9998           -0.3593895              -9.7795
       372        1.9998           -0.3592214              -9.7749
       373        1.9998           -0.3591548              -9.7731
       374        1.0657           -0.3506669              -9.5421
       375        1.0235           -0.3505865              -9.5399 (HOMO)
       376        0.9757           -0.3504955              -9.5375 (LUMO)
       377        0.9368           -0.3504214              -9.5355
       378                         -0.3165829              -8.6147
       379                         -0.3087041              -8.4003
       380                         -0.2978231              -8.1042
       ...                                ...                  ...
       964                        532.3386569           14485.6722
      -------------------------------------------------------------
                  HL-Gap            0.0000910 Eh            0.0025 eV
             Fermi-level           -0.3505418 Eh           -9.5387 eV

 SCC (total)                   0 d,  0 h,  0 min, 28.942 sec
 SCC setup                      ...        0 min,  0.011 sec (  0.037%)
 Dispersion                     ...        0 min,  0.014 sec (  0.048%)
 classical contributions        ...        0 min,  0.005 sec (  0.017%)
 integral evaluation            ...        0 min,  0.926 sec (  3.201%)
 iterations                     ...        0 min, 25.879 sec ( 89.417%)
 molecular gradient             ...        0 min,  2.024 sec (  6.993%)
 printout                       ...        0 min,  0.083 sec (  0.288%)

         :::::::::::::::::::::::::::::::::::::::::::::::::::::
         ::                     SUMMARY                     ::
         :::::::::::::::::::::::::::::::::::::::::::::::::::::
         :: total energy            -453.016561154395 Eh    ::
         :: gradient norm              0.092135726986 Eh/a0 ::
         :: HOMO-LUMO gap              0.002476679906 eV    ::
         ::.................................................::
         :: SCC energy              -462.435534420631 Eh    ::
         :: -> electrostatic           0.227458753953 Eh    ::
         :: repulsion energy           9.633235908753 Eh    ::
         :: dispersion energy         -0.214262642517 Eh    ::
         :: halogen bond corr.         0.000000000000 Eh    ::
         :: add. restraining           0.000000000000 Eh    ::
         :: total charge               0.000000000963 e     ::
         :::::::::::::::::::::::::::::::::::::::::::::::::::::

           ------------------------------------------------- 
          |        vertical delta SCC IP calculation        |
           ------------------------------------------------- 
   1   -462.0380483 -0.462038E+03  0.289E-01    0.00       0.0  T
   2   -461.8687482  0.169300E+00  0.796E-01    0.00       1.0  T
   3   -461.0959170  0.772831E+00  0.160E+00    0.23       1.0  T
   4   -461.8468671 -0.750950E+00  0.723E-01    0.08       1.0  T
   5   -461.8199150  0.269521E-01  0.782E-01    0.03       1.0  T
   6   -461.9015218 -0.816068E-01  0.635E-01    0.05       1.0  T
   7   -461.8992351  0.228670E-02  0.640E-01    0.03       1.0  T
   8   -462.0037303 -0.104495E+00  0.359E-01    0.04       1.0  T
   9   -462.0522139 -0.484835E-01  0.915E-02    0.01       1.0  T
  10   -462.0498555  0.235833E-02  0.121E-01    0.01       1.0  T
  11   -462.0390745  0.107811E-01  0.204E-01    0.02       1.0  T
  12   -462.0497900 -0.107155E-01  0.120E-01    0.01       1.0  T
  13   -462.0533635 -0.357350E-02  0.743E-02    0.01       1.0  T
  14   -462.0553939 -0.203045E-02  0.215E-02    0.00       1.0  T
  15   -462.0555708 -0.176875E-03  0.430E-03    0.00       1.5  T
  16   -462.0555769 -0.608841E-05  0.190E-03    0.00       3.4  T
  17   -462.0555783 -0.141409E-05  0.265E-04    0.00      24.7  T
  18   -462.0555783 -0.102443E-07  0.210E-04    0.00      31.2  T
  19   -462.0555783 -0.160557E-07  0.557E-05    0.00     117.3  T
  20   -462.0555783  0.162856E-09  0.646E-05    0.00     101.1  T
     SCC iter.                  ...        0 min,  8.063 sec
     gradient                   ...        0 min,  2.053 sec
------------------------------------------------------------------------
empirical IP shift (eV):    4.8455
delta SCC IP (eV):    5.4936
------------------------------------------------------------------------
           ------------------------------------------------- 
          |        vertical delta SCC EA calculation        |
           ------------------------------------------------- 
   1   -462.6951151 -0.462695E+03  0.556E-01    0.00       0.0  T
   2   -462.5013029  0.193812E+00  0.833E-01    0.01       1.0  T
   3   -461.7504704  0.750832E+00  0.165E+00    0.08       1.0  T
   4   -462.6337135 -0.883243E+00  0.614E-01    0.02       1.0  T
   5   -462.5505670  0.831465E-01  0.747E-01    0.07       1.0  T
   6   -462.5004613  0.501057E-01  0.804E-01    0.05       1.0  T
   7   -462.5806644 -0.802031E-01  0.689E-01    0.03       1.0  T
   8   -462.5306470  0.500174E-01  0.782E-01    0.00       1.0  T
   9   -462.6947107 -0.164064E+00  0.406E-01    0.03       1.0  T
  10   -462.6765286  0.181821E-01  0.464E-01    0.00       1.0  T
  11   -462.6928403 -0.163118E-01  0.413E-01    0.01       1.0  T
  12   -462.7441099 -0.512696E-01  0.185E-01    0.00       1.0  T
  13   -462.7494287 -0.531875E-02  0.142E-01    0.01       1.0  T
  14   -462.7565716 -0.714293E-02  0.376E-02    0.00       1.0  T
  15   -462.7565355  0.360490E-04  0.391E-02    0.01       1.0  T
  16   -462.7570927 -0.557150E-03  0.847E-03    0.00       1.0  T
  17   -462.7570162  0.765469E-04  0.166E-02    0.00       1.0  T
  18   -462.7571199 -0.103758E-03  0.265E-04    0.00      24.6  T
  19   -462.7571170  0.293281E-05  0.280E-03    0.00       2.3  T
  20   -462.7571192 -0.218078E-05  0.144E-03    0.00       4.6  T
  21   -462.7571199 -0.770579E-06  0.118E-04    0.00      55.5  T
  22   -462.7571199 -0.340037E-09  0.116E-04    0.00      56.1  T
     SCC iter.                  ...        0 min,  9.669 sec
     gradient                   ...        0 min,  2.063 sec
------------------------------------------------------------------------
empirical EA shift (eV):    4.8455
delta SCC EA (eV):    3.9053
------------------------------------------------------------------------
           -------------------------------------------------
          |                Property Printout                |
           -------------------------------------------------

    * Orbital Energies and Occupations

         #    Occupation            Energy/Eh            Energy/eV
      -------------------------------------------------------------
         1        2.0000           -0.9753356             -26.5402
       ...           ...                  ...                  ...
       364        2.0000           -0.3039714              -8.2715
       365        2.0000           -0.3039710              -8.2715
       366        1.9999           -0.3036541              -8.2628
       367        1.9999           -0.3036468              -8.2627
       368        1.9999           -0.3035475              -8.2599
       369        1.9999           -0.3033933              -8.2558
       370        1.9999           -0.3033892              -8.2556
       371        1.9999           -0.3033346              -8.2542
       372        1.9999           -0.3033088              -8.2535
       373        1.9999           -0.3032834              -8.2528
       374        1.3104           -0.2941662              -8.0047
       375        1.2844           -0.2941082              -8.0031
       376        1.2303           -0.2939902              -7.9999 (HOMO)
       377        1.1755           -0.2938736              -7.9967 (LUMO)
       378                         -0.2695665              -7.3353
       379                         -0.2623381              -7.1386
       380                         -0.2517720              -6.8511
       381                         -0.2511198              -6.8333
       382                         -0.2511045              -6.8329
       383                         -0.2497508              -6.7961
       384                         -0.2497425              -6.7958
       385                         -0.2443542              -6.6492
       386                         -0.2216757              -6.0321
       387                         -0.2137387              -5.8161
       ...                                ...                  ...
       964                        532.3833883           14486.8894
      -------------------------------------------------------------
                  HL-Gap            0.0001166 Eh            0.0032 eV
             Fermi-level           -0.2935107 Eh           -7.9868 eV

  Mulliken/CM5 charges         n(s)   n(p)   n(d)
     1Co    0.30515  0.71008   0.327  0.988  7.380
     2C    -0.02223 -0.06350   1.084  2.938  0.000
     3C     0.05460  0.11505   1.110  2.835  0.000
     4C    -0.04137 -0.08784   1.085  2.956  0.000
     5C    -0.03875 -0.08471   1.079  2.960  0.000
     6C     0.05701  0.12107   1.105  2.838  0.000
     7N    -0.21564 -0.47588   1.317  3.899  0.000
     8C     0.00871  0.01411   1.086  2.906  0.000
     9C     0.05639  0.11954   1.103  2.840  0.000
    10C    -0.03731 -0.08327   1.078  2.959  0.000
    11C    -0.03813 -0.08368   1.083  2.955  0.000
    12N    -0.21378 -0.47351   1.318  3.896  0.000
    13C     0.06057  0.12586   1.116  2.823  0.000
    14C     0.01720  0.02421   1.080  2.903  0.000
    15C     0.06058  0.12584   1.116  2.823  0.000
    16C    -0.03803 -0.08359   1.082  2.956  0.000
    17C    -0.03707 -0.08319   1.078  2.959  0.000
    18C     0.05635  0.11949   1.104  2.840  0.000
    19C     0.00776  0.01315   1.085  2.907  0.000
    20C     0.00695 -0.00186   1.085  2.908  0.000
    21C    -0.02316 -0.07657   1.079  2.944  0.000
    22C    -0.02893 -0.08472   1.087  2.942  0.000
    23C    -0.03049 -0.08632   1.087  2.944  0.000
    24C    -0.02820 -0.08399   1.087  2.942  0.000
    25C    -0.02233 -0.07570   1.079  2.943  0.000
    26C     0.05700  0.12103   1.106  2.837  0.000
    27C    -0.03846 -0.08459   1.079  2.960  0.000
    28C    -0.04122 -0.08770   1.084  2.958  0.000
    29C     0.05465  0.11509   1.110  2.836  0.000
    30N    -0.21561 -0.47593   1.317  3.899  0.000
    31N    -0.21368 -0.47365   1.318  3.896  0.000
    32C     0.00740 -0.00148   1.086  2.907  0.000
    33C    -0.02342 -0.07683   1.079  2.944  0.000
    34C    -0.02866 -0.08445   1.087  2.942  0.000
    35C    -0.03091 -0.08674   1.086  2.945  0.000
    36C    -0.02850 -0.08430   1.087  2.942  0.000
    37C    -0.02324 -0.07667   1.079  2.944  0.000
    38H     0.02310  0.08202   0.977  0.000  0.000
    39H     0.02487  0.08148   0.975  0.000  0.000
    40H     0.01786  0.07672   0.982  0.000  0.000
    41H     0.01958  0.07846   0.980  0.000  0.000
    42H     0.02309  0.08117   0.977  0.000  0.000
    43H     0.02301  0.08106   0.977  0.000  0.000
    44H     0.01858  0.07737   0.981  0.000  0.000
    45H     0.01840  0.07632   0.982  0.000  0.000
    46H     0.02610  0.08196   0.974  0.000  0.000
    47H     0.02660  0.08243   0.973  0.000  0.000
    48H     0.02744  0.08330   0.973  0.000  0.000
    49H     0.01966  0.07758   0.980  0.000  0.000
    50H     0.01691  0.07570   0.983  0.000  0.000
    51H     0.02495  0.08156   0.975  0.000  0.000
    52H     0.01834  0.07594   0.982  0.000  0.000
    53H     0.02632  0.08218   0.974  0.000  0.000
    54H     0.02643  0.08227   0.974  0.000  0.000
    55H     0.02668  0.08254   0.973  0.000  0.000
    56H     0.01879  0.07638   0.981  0.000  0.000
    57Co    0.30522  0.71028   0.327  0.988  7.380
    58C    -0.02224 -0.06350   1.084  2.938  0.000
    59C     0.05459  0.11505   1.110  2.835  0.000
    60C    -0.04138 -0.08785   1.085  2.957  0.000
    61C    -0.03874 -0.08471   1.079  2.960  0.000
    62C     0.05700  0.12105   1.105  2.838  0.000
    63N    -0.21562 -0.47592   1.317  3.899  0.000
    64C     0.00874  0.01415   1.086  2.906  0.000
    65C     0.05639  0.11952   1.104  2.840  0.000
    66C    -0.03730 -0.08327   1.078  2.959  0.000
    67C    -0.03813 -0.08368   1.083  2.955  0.000
    68N    -0.21378 -0.47352   1.318  3.896  0.000
    69C     0.06058  0.12588   1.116  2.823  0.000
    70C     0.01720  0.02422   1.080  2.903  0.000
    71C     0.06056  0.12581   1.116  2.823  0.000
    72C    -0.03803 -0.08359   1.082  2.956  0.000
    73C    -0.03708 -0.08321   1.078  2.959  0.000
    74C     0.05636  0.11951   1.104  2.840  0.000
    75C     0.00774  0.01313   1.085  2.907  0.000
    76C     0.00695 -0.00186   1.085  2.908  0.000
    77C    -0.02316 -0.07656   1.079  2.944  0.000
    78C    -0.02894 -0.08473   1.087  2.942  0.000
    79C    -0.03050 -0.08632   1.087  2.944  0.000
    80C    -0.02820 -0.08399   1.087  2.942  0.000
    81C    -0.02233 -0.07572   1.079  2.943  0.000
    82C     0.05701  0.12105   1.106  2.837  0.000
    83C    -0.03846 -0.08460   1.079  2.960  0.000
    84C    -0.04121 -0.08769   1.084  2.958  0.000
    85C     0.05463  0.11506   1.110  2.836  0.000
    86N    -0.21559 -0.47594   1.317  3.899  0.000
    87N    -0.21370 -0.47369   1.318  3.896  0.000
    88C     0.00739 -0.00149   1.086  2.907  0.000
    89C    -0.02341 -0.07684   1.079  2.944  0.000
    90C    -0.02867 -0.08446   1.087  2.942  0.000
    91C    -0.03091 -0.08674   1.086  2.945  0.000
    92C    -0.02851 -0.08430   1.087  2.942  0.000
    93C    -0.02324 -0.07668   1.079  2.944  0.000
    94H     0.02309  0.08201   0.977  0.000  0.000
    95H     0.02487  0.08148   0.975  0.000  0.000
    96H     0.01786  0.07673   0.982  0.000  0.000
    97H     0.01958  0.07847   0.980  0.000  0.000
    98H     0.02309  0.08117   0.977  0.000  0.000
    99H     0.02303  0.08107   0.977  0.000  0.000
   100H     0.01859  0.07739   0.981  0.000  0.000
   101H     0.01840  0.07633   0.982  0.000  0.000
   102H     0.02609  0.08195   0.974  0.000  0.000
   103H     0.02660  0.08243   0.973  0.000  0.000
   104H     0.02744  0.08330   0.973  0.000  0.000
   105H     0.01964  0.07756   0.980  0.000  0.000
   106H     0.01690  0.07569   0.983  0.000  0.000
   107H     0.02495  0.08155   0.975  0.000  0.000
   108H     0.01832  0.07593   0.982  0.000  0.000
   109H     0.02632  0.08218   0.974  0.000  0.000
   110H     0.02643  0.08226   0.974  0.000  0.000
   111H     0.02669  0.08254   0.973  0.000  0.000
   112H     0.01877  0.07637   0.981  0.000  0.000
   113C    -0.02209 -0.02286   1.064  2.958  0.000
   114C    -0.01918 -0.02079   1.091  2.928  0.000
   115C    -0.02229 -0.02303   1.064  2.958  0.000
   116C    -0.01852 -0.02004   1.091  2.927  0.000
   117C    -0.02172 -0.02245   1.064  2.957  0.000
   118C    -0.01844 -0.01997   1.091  2.927  0.000
   119C    -0.02173 -0.02246   1.064  2.957  0.000
   120C    -0.01843 -0.01995   1.091  2.927  0.000
   121C    -0.02231 -0.02304   1.064  2.958  0.000
   122C    -0.01853 -0.02003   1.091  2.927  0.000
   123C    -0.02210 -0.02287   1.064  2.958  0.000
   124C    -0.01919 -0.02080   1.091  2.928  0.000
   125Co    0.31587  0.72232   0.324  0.985  7.375
   126C     0.01725  0.02435   1.080  2.903  0.000
   127C     0.06053  0.12586   1.116  2.824  0.000
   128C    -0.03833 -0.08389   1.082  2.957  0.000
   129C    -0.03677 -0.08291   1.079  2.958  0.000
   130C     0.05641  0.11971   1.104  2.840  0.000
   131N    -0.21315 -0.47363   1.317  3.896  0.000
   132C     0.01015  0.01554   1.086  2.903  0.000
   133C     0.05640  0.11965   1.104  2.840  0.000
   134C    -0.03671 -0.08282   1.078  2.958  0.000
   135C    -0.03821 -0.08376   1.082  2.956  0.000
   136N    -0.21310 -0.47397   1.317  3.896  0.000
   137C     0.06071  0.12608   1.116  2.823  0.000
   138C     0.01729  0.02437   1.080  2.903  0.000
   139C     0.06086  0.12628   1.116  2.823  0.000
   140C    -0.03812 -0.08367   1.082  2.956  0.000
   141C    -0.03659 -0.08274   1.079  2.958  0.000
   142C     0.05641  0.11957   1.104  2.840  0.000
   143C     0.01014  0.01554   1.086  2.903  0.000
   144C     0.00720 -0.00158   1.085  2.908  0.000
   145C    -0.02232 -0.07567   1.079  2.943  0.000
   146C    -0.02821 -0.08400   1.087  2.942  0.000
   147C    -0.03003 -0.08586   1.087  2.943  0.000
   148C    -0.02811 -0.08391   1.087  2.942  0.000
   149C    -0.02221 -0.07562   1.079  2.943  0.000
   150C     0.05640  0.11978   1.103  2.840  0.000
   151C    -0.03689 -0.08299   1.078  2.959  0.000
   152C    -0.03843 -0.08398   1.082  2.957  0.000
   153C     0.06036  0.12561   1.116  2.824  0.000
   154N    -0.21309 -0.47414   1.317  3.896  0.000
   155N    -0.21318 -0.47354   1.317  3.896  0.000
   156C     0.00719 -0.00159   1.085  2.908  0.000
   157C    -0.02228 -0.07567   1.079  2.943  0.000
   158C    -0.02820 -0.08400   1.087  2.942  0.000
   159C    -0.03003 -0.08586   1.087  2.943  0.000
   160C    -0.02812 -0.08391   1.087  2.941  0.000
   161C    -0.02225 -0.07563   1.079  2.943  0.000
   162H     0.02252  0.08052   0.977  0.000  0.000
   163H     0.01838  0.07715   0.982  0.000  0.000
   164H     0.01858  0.07734   0.981  0.000  0.000
   165H     0.02267  0.08066   0.977  0.000  0.000
   166H     0.02274  0.08075   0.977  0.000  0.000
   167H     0.01856  0.07734   0.981  0.000  0.000
   168H     0.01939  0.07735   0.981  0.000  0.000
   169H     0.02713  0.08299   0.973  0.000  0.000
   170H     0.02691  0.08274   0.973  0.000  0.000
   171H     0.02743  0.08330   0.973  0.000  0.000
   172H     0.01981  0.07777   0.980  0.000  0.000
   173H     0.01836  0.07710   0.982  0.000  0.000
   174H     0.02243  0.08041   0.978  0.000  0.000
   175H     0.01954  0.07752   0.980  0.000  0.000
   176H     0.02719  0.08306   0.973  0.000  0.000
   177H     0.02691  0.08275   0.973  0.000  0.000
   178H     0.02741  0.08328   0.973  0.000  0.000
   179H     0.01969  0.07764   0.980  0.000  0.000
   180Co    0.31649  0.72484   0.324  0.986  7.374
   181C     0.01725  0.02435   1.080  2.903  0.000
   182C     0.06078  0.12620   1.116  2.823  0.000
   183C    -0.03814 -0.08369   1.082  2.956  0.000
   184C    -0.03660 -0.08275   1.079  2.958  0.000
   185C     0.05635  0.11950   1.104  2.840  0.000
   186N    -0.21313 -0.47400   1.317  3.896  0.000
   187C     0.01009  0.01550   1.086  2.904  0.000
   188C     0.05635  0.11973   1.104  2.840  0.000
   189C    -0.03687 -0.08299   1.078  2.959  0.000
   190C    -0.03843 -0.08398   1.082  2.957  0.000
   191N    -0.21303 -0.47453   1.317  3.896  0.000
   192C     0.06030  0.12555   1.116  2.824  0.000
   193C     0.01722  0.02435   1.080  2.903  0.000
   194C     0.06045  0.12577   1.116  2.824  0.000
   195C    -0.03835 -0.08390   1.082  2.957  0.000
   196C    -0.03676 -0.08291   1.079  2.958  0.000
   197C     0.05635  0.11963   1.104  2.840  0.000
   198C     0.01009  0.01550   1.086  2.904  0.000
   199C     0.00712 -0.00163   1.085  2.908  0.000
   200C    -0.02221 -0.07560   1.079  2.943  0.000
   201C    -0.02814 -0.08393   1.087  2.942  0.000
   202C    -0.03001 -0.08584   1.087  2.943  0.000
   203C    -0.02823 -0.08402   1.087  2.942  0.000
   204C    -0.02226 -0.07565   1.079  2.943  0.000
   205C     0.05634  0.11957   1.104  2.840  0.000
   206C    -0.03667 -0.08281   1.079  2.958  0.000
   207C    -0.03822 -0.08377   1.082  2.956  0.000
   208C     0.06066  0.12601   1.116  2.823  0.000
   209N    -0.21306 -0.47437   1.317  3.896  0.000
   210N    -0.21309 -0.47415   1.317  3.896  0.000
   211C     0.00716 -0.00160   1.085  2.908  0.000
   212C    -0.02221 -0.07561   1.079  2.943  0.000
   213C    -0.02813 -0.08393   1.087  2.942  0.000
   214C    -0.03002 -0.08585   1.087  2.943  0.000
   215C    -0.02822 -0.08401   1.087  2.942  0.000
   216C    -0.02230 -0.07565   1.079  2.943  0.000
   217H     0.02273  0.08071   0.977  0.000  0.000
   218H     0.01852  0.07728   0.981  0.000  0.000
   219H     0.01831  0.07704   0.982  0.000  0.000
   220H     0.02242  0.08038   0.978  0.000  0.000
   221H     0.02250  0.08048   0.977  0.000  0.000
   222H     0.01832  0.07708   0.982  0.000  0.000
   223H     0.01968  0.07769   0.980  0.000  0.000
   224H     0.02744  0.08331   0.973  0.000  0.000
   225H     0.02692  0.08275   0.973  0.000  0.000
   226H     0.02721  0.08307   0.973  0.000  0.000
   227H     0.01950  0.07752   0.980  0.000  0.000
   228H     0.01850  0.07726   0.981  0.000  0.000
   229H     0.02265  0.08062   0.977  0.000  0.000
   230H     0.01979  0.07777   0.980  0.000  0.000
   231H     0.02744  0.08331   0.973  0.000  0.000
   232H     0.02691  0.08275   0.973  0.000  0.000
   233H     0.02714  0.08300   0.973  0.000  0.000
   234H     0.01938  0.07738   0.981  0.000  0.000

Wiberg/Mayer (AO) data.
largest (>0.10) Wiberg bond orders for each atom

 ---------------------------------------------------------------------------
     #   Z sym  total        # sym  WBO       # sym  WBO       # sym  WBO
 ---------------------------------------------------------------------------
     1  27 Co   3.667 --     7 N    0.714    30 N    0.713    12 N    0.711
                            31 N    0.710
     2   6 C    3.839 --     3 C    1.393    29 C    1.392    38 H    0.997
     3   6 C    3.955 --     2 C    1.393     7 N    1.244     4 C    1.198
     4   6 C    3.860 --     5 C    1.644     3 C    1.198    39 H    0.995
     5   6 C    3.838 --     4 C    1.644     6 C    1.205    40 H    1.000
     6   6 C    3.931 --     8 C    1.364     7 N    1.248     5 C    1.205
     7   7 N    2.993 --     6 C    1.248     3 C    1.244     1 Co   0.714
     8   6 C    3.846 --     9 C    1.375     6 C    1.364    32 C    1.040
     9   6 C    3.923 --     8 C    1.375    12 N    1.235    10 C    1.209
    10   6 C    3.833 --    11 C    1.634     9 C    1.209    41 H    0.999
    11   6 C    3.852 --    10 C    1.634    13 C    1.218    42 H    0.999
    12   7 N    3.002 --    13 C    1.269     9 C    1.235     1 Co   0.711
    13   6 C    3.934 --    14 C    1.306    12 N    1.269    11 C    1.218
    14   6 C    3.867 --    13 C    1.306    15 C    1.306   114 C    1.210
    15   6 C    3.934 --    14 C    1.306    31 N    1.268    16 C    1.219
    16   6 C    3.848 --    17 C    1.632    15 C    1.219    43 H    0.999
    17   6 C    3.833 --    16 C    1.632    18 C    1.210    44 H    0.999
    18   6 C    3.925 --    19 C    1.372    31 N    1.237    17 C    1.210
    19   6 C    3.847 --    18 C    1.372    26 C    1.362    20 C    1.050
    20   6 C    3.893 --    21 C    1.425    25 C    1.425    19 C    1.050
    21   6 C    3.870 --    22 C    1.447    20 C    1.425    45 H    0.990
    22   6 C    3.912 --    21 C    1.447    23 C    1.441    46 H    0.982
    23   6 C    3.904 --    24 C    1.441    22 C    1.441    47 H    0.984
    24   6 C    3.912 --    25 C    1.447    23 C    1.441    48 H    0.982
    25   6 C    3.870 --    24 C    1.447    20 C    1.425    49 H    0.990
    26   6 C    3.933 --    19 C    1.362    30 N    1.249    27 C    1.206
    27   6 C    3.838 --    28 C    1.642    26 C    1.206    50 H    1.000
    28   6 C    3.857 --    27 C    1.642    29 C    1.199    51 H    0.994
    29   6 C    3.955 --     2 C    1.392    30 N    1.244    28 C    1.199
    30   7 N    2.992 --    26 C    1.249    29 C    1.244     1 Co   0.713
    31   7 N    3.000 --    15 C    1.268    18 C    1.237     1 Co   0.710
    32   6 C    3.893 --    37 C    1.429    33 C    1.429     8 C    1.040
    33   6 C    3.872 --    34 C    1.446    32 C    1.429    52 H    0.990
    34   6 C    3.912 --    33 C    1.446    35 C    1.442    53 H    0.982
    35   6 C    3.906 --    36 C    1.442    34 C    1.442    54 H    0.984
    36   6 C    3.912 --    37 C    1.446    35 C    1.442    55 H    0.982
    37   6 C    3.872 --    36 C    1.446    32 C    1.429    56 H    0.990
    38   1 H    1.038 --     2 C    0.997
    39   1 H    1.028 --     4 C    0.995
    40   1 H    1.047 --     5 C    1.000
    41   1 H    1.046 --    10 C    0.999
    42   1 H    1.037 --    11 C    0.999
    43   1 H    1.038 --    16 C    0.999
    44   1 H    1.046 --    17 C    0.999
    45   1 H    1.059 --    21 C    0.990
    46   1 H    1.036 --    22 C    0.982
    47   1 H    1.030 --    23 C    0.984
    48   1 H    1.036 --    24 C    0.982
    49   1 H    1.059 --    25 C    0.990
    50   1 H    1.047 --    27 C    1.000
    51   1 H    1.029 --    28 C    0.994
    52   1 H    1.059 --    33 C    0.990
    53   1 H    1.036 --    34 C    0.982
    54   1 H    1.030 --    35 C    0.984
    55   1 H    1.036 --    36 C    0.982
    56   1 H    1.060 --    37 C    0.990
    57  27 Co   3.667 --    63 N    0.714    86 N    0.713    68 N    0.711
                            87 N    0.710
    58   6 C    3.839 --    59 C    1.393    85 C    1.393    94 H    0.997
    59   6 C    3.955 --    58 C    1.393    63 N    1.244    60 C    1.198
    60   6 C    3.860 --    61 C    1.644    59 C    1.198    95 H    0.995
    61   6 C    3.837 --    60 C    1.644    62 C    1.205    96 H    1.000
    62   6 C    3.931 --    64 C    1.364    63 N    1.248    61 C    1.205
    63   7 N    2.993 --    62 C    1.248    59 C    1.244    57 Co   0.714
    64   6 C    3.846 --    65 C    1.375    62 C    1.364    88 C    1.040
    65   6 C    3.923 --    64 C    1.375    68 N    1.235    66 C    1.209
    66   6 C    3.833 --    67 C    1.634    65 C    1.209    97 H    0.999
    67   6 C    3.851 --    66 C    1.634    69 C    1.218    98 H    0.999
    68   7 N    3.002 --    69 C    1.269    65 C    1.235    57 Co   0.711
    69   6 C    3.934 --    70 C    1.306    68 N    1.269    67 C    1.218
    70   6 C    3.868 --    69 C    1.306    71 C    1.306   124 C    1.210
    71   6 C    3.934 --    70 C    1.306    87 N    1.268    72 C    1.219
    72   6 C    3.848 --    73 C    1.632    71 C    1.219    99 H    0.999
    73   6 C    3.833 --    72 C    1.632    74 C    1.210   100 H    0.999
    74   6 C    3.925 --    75 C    1.372    87 N    1.237    73 C    1.210
    75   6 C    3.847 --    74 C    1.372    82 C    1.362    76 C    1.050
    76   6 C    3.893 --    81 C    1.425    77 C    1.425    75 C    1.050
    77   6 C    3.870 --    78 C    1.448    76 C    1.425   101 H    0.990
    78   6 C    3.912 --    77 C    1.448    79 C    1.441   102 H    0.982
    79   6 C    3.904 --    80 C    1.441    78 C    1.441   103 H    0.984
    80   6 C    3.912 --    81 C    1.448    79 C    1.441   104 H    0.982
    81   6 C    3.870 --    80 C    1.448    76 C    1.425   105 H    0.990
    82   6 C    3.933 --    75 C    1.362    86 N    1.249    83 C    1.206
    83   6 C    3.838 --    84 C    1.642    82 C    1.206   106 H    1.000
    84   6 C    3.857 --    83 C    1.642    85 C    1.199   107 H    0.994
    85   6 C    3.955 --    58 C    1.393    86 N    1.244    84 C    1.199
    86   7 N    2.992 --    82 C    1.249    85 C    1.244    57 Co   0.713
    87   7 N    3.001 --    71 C    1.268    74 C    1.237    57 Co   0.710
    88   6 C    3.893 --    93 C    1.429    89 C    1.428    64 C    1.040
    89   6 C    3.872 --    90 C    1.446    88 C    1.428   108 H    0.990
    90   6 C    3.912 --    89 C    1.446    91 C    1.442   109 H    0.982
    91   6 C    3.906 --    92 C    1.442    90 C    1.442   110 H    0.984
    92   6 C    3.912 --    93 C    1.446    91 C    1.442   111 H    0.982
    93   6 C    3.872 --    92 C    1.446    88 C    1.429   112 H    0.990
    94   1 H    1.038 --    58 C    0.997
    95   1 H    1.028 --    60 C    0.995
    96   1 H    1.047 --    61 C    1.000
    97   1 H    1.046 --    66 C    0.999
    98   1 H    1.037 --    67 C    0.999
    99   1 H    1.038 --    72 C    0.999
   100   1 H    1.046 --    73 C    0.999
   101   1 H    1.059 --    77 C    0.990
   102   1 H    1.036 --    78 C    0.982
   103   1 H    1.030 --    79 C    0.984
   104   1 H    1.036 --    80 C    0.982
   105   1 H    1.059 --    81 C    0.990
   106   1 H    1.047 --    83 C    1.000
   107   1 H    1.029 --    84 C    0.994
   108   1 H    1.058 --    89 C    0.990
   109   1 H    1.036 --    90 C    0.982
   110   1 H    1.030 --    91 C    0.984
   111   1 H    1.036 --    92 C    0.982
   112   1 H    1.060 --    93 C    0.990
   113   6 C    3.826 --   114 C    2.516   115 C    1.322
   114   6 C    3.806 --   113 C    2.516    14 C    1.210   116 C    0.188
   115   6 C    3.823 --   116 C    2.514   113 C    1.322
   116   6 C    3.808 --   115 C    2.514   126 C    1.213   114 C    0.188
   117   6 C    3.822 --   118 C    2.513   119 C    1.322
   118   6 C    3.804 --   117 C    2.513   138 C    1.212   120 C    0.187
   119   6 C    3.822 --   120 C    2.512   117 C    1.322
   120   6 C    3.804 --   119 C    2.512   181 C    1.212   118 C    0.187
   121   6 C    3.823 --   122 C    2.514   123 C    1.322
   122   6 C    3.808 --   121 C    2.514   193 C    1.214   124 C    0.188
   123   6 C    3.826 --   124 C    2.516   121 C    1.322
   124   6 C    3.806 --   123 C    2.516    70 C    1.210   122 C    0.188
   125  27 Co   3.630 --   155 N    0.709   131 N    0.708   136 N    0.708
                           154 N    0.708
   126   6 C    3.859 --   127 C    1.303   153 C    1.302   116 C    1.213
   127   6 C    3.933 --   126 C    1.303   131 N    1.268   128 C    1.222
   128   6 C    3.847 --   129 C    1.628   127 C    1.222   162 H    0.999
   129   6 C    3.834 --   128 C    1.628   130 C    1.213   163 H    0.999
   130   6 C    3.921 --   132 C    1.366   131 N    1.238   129 C    1.213
   131   7 N    2.992 --   127 C    1.268   130 C    1.238   125 Co   0.708
   132   6 C    3.843 --   130 C    1.366   133 C    1.366   156 C    1.051
   133   6 C    3.921 --   132 C    1.366   136 N    1.238   134 C    1.213
   134   6 C    3.834 --   135 C    1.628   133 C    1.213   164 H    0.999
   135   6 C    3.847 --   134 C    1.628   137 C    1.222   165 H    0.999
   136   7 N    2.992 --   137 C    1.269   133 C    1.238   125 Co   0.708
   137   6 C    3.934 --   138 C    1.302   136 N    1.269   135 C    1.222
   138   6 C    3.858 --   139 C    1.303   137 C    1.302   118 C    1.212
   139   6 C    3.934 --   138 C    1.303   155 N    1.270   140 C    1.221
   140   6 C    3.847 --   141 C    1.629   139 C    1.221   166 H    0.999
   141   6 C    3.834 --   140 C    1.629   142 C    1.212   167 H    0.999
   142   6 C    3.921 --   143 C    1.369   155 N    1.236   141 C    1.212
   143   6 C    3.843 --   142 C    1.369   150 C    1.363   144 C    1.051
   144   6 C    3.892 --   149 C    1.424   145 C    1.424   143 C    1.051
   145   6 C    3.870 --   146 C    1.448   144 C    1.424   168 H    0.990
   146   6 C    3.912 --   145 C    1.448   147 C    1.441   169 H    0.982
   147   6 C    3.904 --   148 C    1.441   146 C    1.441   170 H    0.984
   148   6 C    3.911 --   149 C    1.448   147 C    1.441   171 H    0.982
   149   6 C    3.869 --   148 C    1.448   144 C    1.424   172 H    0.990
   150   6 C    3.921 --   143 C    1.363   154 N    1.239   151 C    1.214
   151   6 C    3.834 --   152 C    1.627   150 C    1.214   173 H    0.999
   152   6 C    3.847 --   151 C    1.627   153 C    1.222   174 H    0.999
   153   6 C    3.933 --   126 C    1.302   154 N    1.267   152 C    1.222
   154   7 N    2.992 --   153 C    1.267   150 C    1.239   125 Co   0.708
   155   7 N    2.992 --   139 C    1.270   142 C    1.236   125 Co   0.709
   156   6 C    3.892 --   161 C    1.424   157 C    1.424   132 C    1.051
   157   6 C    3.869 --   158 C    1.448   156 C    1.424   175 H    0.990
   158   6 C    3.912 --   157 C    1.448   159 C    1.441   176 H    0.982
   159   6 C    3.904 --   160 C    1.441   158 C    1.441   177 H    0.984
   160   6 C    3.912 --   161 C    1.448   159 C    1.441   178 H    0.982
   161   6 C    3.870 --   160 C    1.448   156 C    1.424   179 H    0.990
   162   1 H    1.038 --   128 C    0.999
   163   1 H    1.047 --   129 C    0.999
   164   1 H    1.047 --   134 C    0.999
   165   1 H    1.038 --   135 C    0.999
   166   1 H    1.038 --   140 C    0.999
   167   1 H    1.047 --   141 C    0.999
   168   1 H    1.059 --   145 C    0.990
   169   1 H    1.036 --   146 C    0.982
   170   1 H    1.030 --   147 C    0.984
   171   1 H    1.035 --   148 C    0.982
   172   1 H    1.058 --   149 C    0.990
   173   1 H    1.047 --   151 C    0.999
   174   1 H    1.038 --   152 C    0.999
   175   1 H    1.058 --   157 C    0.990
   176   1 H    1.036 --   158 C    0.982
   177   1 H    1.030 --   159 C    0.984
   178   1 H    1.036 --   160 C    0.982
   179   1 H    1.058 --   161 C    0.990
   180  27 Co   3.637 --   186 N    0.709   210 N    0.709   209 N    0.709
                           191 N    0.708
   181   6 C    3.858 --   182 C    1.303   208 C    1.302   120 C    1.212
   182   6 C    3.934 --   181 C    1.303   186 N    1.269   183 C    1.221
   183   6 C    3.845 --   184 C    1.629   182 C    1.221   217 H    0.999
   184   6 C    3.834 --   183 C    1.629   185 C    1.212   218 H    0.999
   185   6 C    3.921 --   187 C    1.368   186 N    1.236   184 C    1.212
   186   7 N    2.992 --   182 C    1.269   185 C    1.236   180 Co   0.709
   187   6 C    3.843 --   185 C    1.368   188 C    1.363   211 C    1.052
   188   6 C    3.921 --   187 C    1.363   191 N    1.239   189 C    1.214
   189   6 C    3.834 --   190 C    1.627   188 C    1.214   219 H    0.999
   190   6 C    3.847 --   189 C    1.627   192 C    1.222   220 H    0.999
   191   7 N    2.992 --   192 C    1.267   188 C    1.239   180 Co   0.708
   192   6 C    3.933 --   193 C    1.302   191 N    1.267   190 C    1.222
   193   6 C    3.859 --   194 C    1.302   192 C    1.302   122 C    1.214
   194   6 C    3.933 --   193 C    1.302   210 N    1.268   195 C    1.222
   195   6 C    3.844 --   196 C    1.628   194 C    1.222   221 H    0.999
   196   6 C    3.834 --   195 C    1.628   197 C    1.213   222 H    0.999
   197   6 C    3.921 --   198 C    1.365   210 N    1.238   196 C    1.213
   198   6 C    3.843 --   205 C    1.366   197 C    1.365   199 C    1.053
   199   6 C    3.892 --   200 C    1.423   204 C    1.423   198 C    1.053
   200   6 C    3.867 --   201 C    1.448   199 C    1.423   223 H    0.990
   201   6 C    3.912 --   200 C    1.448   202 C    1.441   224 H    0.982
   202   6 C    3.904 --   201 C    1.441   203 C    1.441   225 H    0.984
   203   6 C    3.912 --   204 C    1.448   202 C    1.441   226 H    0.982
   204   6 C    3.867 --   203 C    1.448   199 C    1.423   227 H    0.990
   205   6 C    3.921 --   198 C    1.366   209 N    1.237   206 C    1.213
   206   6 C    3.834 --   207 C    1.628   205 C    1.213   228 H    0.999
   207   6 C    3.845 --   206 C    1.628   208 C    1.222   229 H    0.999
   208   6 C    3.934 --   181 C    1.302   209 N    1.268   207 C    1.222
   209   7 N    2.992 --   208 C    1.268   205 C    1.237   180 Co   0.709
   210   7 N    2.992 --   194 C    1.268   197 C    1.238   180 Co   0.709
   211   6 C    3.892 --   212 C    1.424   216 C    1.423   187 C    1.052
   212   6 C    3.869 --   213 C    1.448   211 C    1.424   230 H    0.990
   213   6 C    3.912 --   212 C    1.448   214 C    1.441   231 H    0.982
   214   6 C    3.904 --   213 C    1.441   215 C    1.441   232 H    0.984
   215   6 C    3.912 --   216 C    1.448   214 C    1.441   233 H    0.982
   216   6 C    3.867 --   215 C    1.448   211 C    1.423   234 H    0.990
   217   1 H    1.038 --   183 C    0.999
   218   1 H    1.047 --   184 C    0.999
   219   1 H    1.047 --   189 C    0.999
   220   1 H    1.035 --   190 C    0.999
   221   1 H    1.035 --   195 C    0.999
   222   1 H    1.047 --   196 C    0.999
   223   1 H    1.058 --   200 C    0.990
   224   1 H    1.036 --   201 C    0.982
   225   1 H    1.030 --   202 C    0.984
   226   1 H    1.036 --   203 C    0.982
   227   1 H    1.058 --   204 C    0.990
   228   1 H    1.047 --   206 C    0.999
   229   1 H    1.038 --   207 C    0.999
   230   1 H    1.058 --   212 C    0.990
   231   1 H    1.035 --   213 C    0.982
   232   1 H    1.030 --   214 C    0.984
   233   1 H    1.036 --   215 C    0.982
   234   1 H    1.059 --   216 C    0.990
 ---------------------------------------------------------------------------

Topologies differ in total number of bonds
Writing topology from bond orders to xtbtopo.mol

 dipole moment from electron density (au)
     X       Y       Z   
-119.9273  -0.0620  -0.0503  total (Debye):  304.825


           -------------------------------------------------
          | TOTAL ENERGY             -453.338146661166 Eh   |
          | GRADIENT NORM               0.091958952785 Eh/α |
          | HOMO-LUMO GAP               0.003173910086 eV   |
           -------------------------------------------------
########################################################################
[WARNING] Runtime exception occurred
-1- restart_readRestart: Dimension missmatch in restart file.
########################################################################

------------------------------------------------------------------------
 * finished run on 2022/07/30 at 01:44:00.354     
------------------------------------------------------------------------
 total:
 * wall-time:     0 d,  0 h,  0 min, 53.842 sec
 *  cpu-time:     0 d,  0 h,  0 min, 53.503 sec
 * ratio c/w:     0.994 speedup
 SCF:
 * wall-time:     0 d,  0 h,  0 min, 52.953 sec
 *  cpu-time:     0 d,  0 h,  0 min, 52.624 sec
 * ratio c/w:     0.994 speedup

