175
 energy: -296.332219804527 gnorm: 1.130035698078 xtb: 6.5.1 (b24c23e)
Fe          27.93709400000000        0.06377600000000        0.01377000000000
C           24.60053100000000       -0.09229400000000        0.00335800000000
C           25.26464000000000       -1.24449800000000       -0.12447100000000
C           24.61496199999999       -2.54123900000000       -0.27486100000000
C           25.55679100000000       -3.46495200000000       -0.32225300000000
C           26.86162000000000       -2.80053100000000       -0.20278500000000
N           26.68333300000000       -1.38895200000000       -0.08234900000000
C           28.05182300000000       -3.43225800000000       -0.15760500000000
C           29.34545600000000       -2.71622000000000       -0.00713700000000
C           30.63599900000000       -3.39101800000000        0.17777400000000
C           31.57071500000000       -2.46454200000000        0.23556800000000
N           29.48607400000000       -1.42716500000000       -0.06710500000000
C           30.88557900000000       -1.18712900000000        0.08016700000000
C           31.48015300000000        0.01529900000000        0.00947800000000
C           30.71913900000000        1.27288300000000       -0.16943200000000
C           31.25610700000000        2.41795400000000       -0.57163600000000
C           30.21237199999999        3.42270400000000       -0.52957800000000
C           29.10635400000000        2.82625900000000       -0.10028500000000
C           27.82124600000000        3.52827300000000        0.15091800000000
C           27.84036600000000        5.00307400000000        0.30887900000000
C           27.18110200000000        5.82902600000000       -0.61736900000000
C           27.21980500000000        7.21913900000000       -0.47227200000000
C           27.92136000000000        7.79309800000000        0.59170400000000
C           28.58740300000000        6.97786500000000        1.51120200000000
C           28.55060900000000        5.58721200000000        1.37027900000000
C           26.65619800000000        2.85827000000000        0.23962100000000
C           25.34383900000000        3.43920700000000        0.51840400000000
C           24.48224600000000        2.44213400000000        0.46592100000000
C           25.23522800000000        1.22518600000000        0.16763700000000
N           26.50337900000000        1.45529400000000        0.03420400000000
N           29.33611300000000        1.43763300000000        0.14673900000000
C           28.09060400000000       -4.90716700000000       -0.24951300000000
C           27.98961500000000       -5.53931900000000       -1.49840800000000
C           28.02770800000000       -6.93456700000000       -1.58300100000000
C           28.16762400000000       -7.70310000000000       -0.42340100000000
C           28.26947200000000       -7.07751800000000        0.82285000000000
C           28.23109100000000       -5.68256700000000        0.91170200000000
H           23.51712900000000       -0.12089400000000        0.00036900000000
H           23.55063500000000       -2.73095600000000       -0.32938400000000
H           25.37135700000000       -4.52681800000000       -0.42003800000000
H           30.81341800000000       -4.45586900000000        0.24987900000000
H           32.62938500000000       -2.64902600000000        0.36042000000000
H           32.28544700000000        2.58563600000000       -0.85879700000000
H           30.32522200000000        4.46934700000000       -0.78099700000000
H           26.64224300000000        5.39571400000000       -1.45105000000000
H           26.70853300000000        7.85157800000000       -1.18642500000000
H           27.95126000000000        8.86936700000000        0.70199800000000
H           29.13320400000000        7.42362500000000        2.33267400000000
H           29.07169800000000        4.96531800000000        2.08789800000000
H           25.09899400000000        4.47141600000000        0.73134200000000
H           23.41497000000000        2.52360300000000        0.62479500000000
H           27.88154100000000       -4.95176900000000       -2.40186800000000
H           27.94914400000000       -7.42003000000000       -2.54712300000000
H           28.19726199999999       -8.78291900000000       -0.49053900000000
H           28.37806900000000       -7.67352700000000        1.71970700000000
H           28.31072800000000       -5.20628200000000        1.88121200000000
Fe          56.68613100000000       -0.03331800000000        0.01166100000000
C           60.02269399999999        0.12305700000000        0.00803500000000
C           59.35858400000000        1.27972500000000       -0.06964200000000
C           60.00826300000000        2.58177300000000       -0.16358300000000
C           59.06643399999999        3.50667200000000       -0.17082100000000
C           57.76160500000000        2.83769100000000       -0.08031600000000
N           57.93989100000000        1.42221400000000       -0.02128700000000
C           56.57140200000000        3.46686000000000       -0.00774800000000
C           55.27776900000000        2.74496400000000        0.11148600000000
C           53.98722500000000        3.41109600000000        0.32552400000000
C           53.05251000000000        2.48298400000000        0.34303400000000
N           55.13715100000000        1.45972900000000       -0.00439900000000
C           53.73764500000000        1.21352400000000        0.13231200000000
C           53.14307200000000        0.01529900000000        0.00947800000000
C           53.90408600000000       -1.23332900000000       -0.22387000000000
C           53.36711800000000       -2.35985600000000       -0.67541600000000
C           54.41085300000000       -3.36548500000000       -0.67702600000000
C           55.51687100000000       -2.78824300000000       -0.22223800000000
C           56.80197900000000       -3.50050300000000       -0.00175500000000
C           56.78285899999999       -4.98077100000000        0.09201800000000
C           57.44212199999999       -5.76572500000000       -0.86922100000000
C           57.40341999999999       -7.16082700000000       -0.78462100000000
C           56.70186500000000       -7.78044500000000        0.25342800000000
C           56.03582200000000       -7.00590700000000        1.20745800000000
C           56.07261599999999       -5.61044600000000        1.12705200000000
C           57.96702700000000       -2.83498300000000        0.11595700000000
C           59.27938600000000       -3.42747700000000        0.36925200000000
C           60.14097900000000       -2.42906600000000        0.36011200000000
C           59.38799700000000       -1.20031400000000        0.11495200000000
N           58.11984600000000       -1.42441000000000       -0.02834600000000
N           55.28711200000000       -1.41165300000000        0.08484900000000
C           56.53261999999999        4.94436900000000       -0.03552600000000
C           56.63360899999999        5.63015400000000       -1.25579400000000
C           56.59551699999999        7.02775900000000       -1.27972200000000
C           56.45560100000000        7.74521600000000       -0.08784500000000
C           56.35375299999999        7.06610900000000        1.13006600000000
C           56.39213400000000        5.66861600000000        1.15826300000000
H           61.10609500000000        0.15176000000000        0.00629100000000
H           61.07258900000000        2.77367900000000       -0.20981700000000
H           59.25186700000000        4.57178300000000       -0.22240500000000
H           53.80980600000000        4.47181200000000        0.44379900000000
H           51.99384000000000        2.66187300000000        0.47577900000000
H           52.33777799999999       -2.51491100000000       -0.96958700000000
H           54.29800300000000       -4.40022400000000       -0.97365400000000
H           57.98098199999999       -5.29662200000000       -1.68330000000000
H           57.91469200000000       -7.76166000000000       -1.52556300000000
H           56.67196500000000       -8.86048800000000        0.31688500000000
H           55.49002000000000       -7.48691700000000        2.00879900000000
H           55.55152600000000       -5.02030000000000        1.87099800000000
H           59.52423100000000       -4.46795900000000        0.53716800000000
H           61.20825500000000       -2.51735700000000        0.51530000000000
H           56.74168400000000        5.08238800000000       -2.18391400000000
H           56.67408099999999        7.55462800000000       -2.22185600000000
H           56.42596300000000        8.82693100000000       -0.10803200000000
H           56.24515499999999        7.62261300000000        2.05195700000000
H           56.31249700000000        5.15068200000000        2.10617700000000
C           34.93171399999999        0.02803100000000        0.01200300000000
C           33.67944400000000        0.00885000000000        0.00765500000000
C           36.24538299999999        0.02726500000000        0.01393600000000
C           37.74851600000000        0.00885000000000        0.00765500000000
C           48.21304899999999        0.02803100000000        0.01200300000000
C           46.96077800000000        0.00885000000000        0.00765500000000
C           49.52671699999999        0.02726500000000        0.01393600000000
C           51.02985100000000        0.00885000000000        0.00765500000000
Fe          42.24108200000000        0.06451600000000        0.02114200000000
C           38.86687500000000       -0.03244200000000       -0.02041500000000
C           39.52569500000000       -1.20551400000000       -0.02522300000000
C           38.88024800000000       -2.52020300000000       -0.01330200000000
C           39.81999400000000       -3.44288600000000       -0.02158100000000
C           41.12365699999999       -2.77296800000000       -0.04297000000000
N           40.94772199999999       -1.35444700000000       -0.04205100000000
C           42.31018800000000       -3.41221600000000       -0.06141500000000
C           43.61931100000000       -2.71612500000000       -0.08709300000000
C           44.90427200000000       -3.41971700000000       -0.18512200000000
C           45.85891900000000       -2.51552200000000       -0.17941800000000
N           43.78022800000000       -1.42937700000000       -0.02312800000000
C           45.19278000000000       -1.22215300000000       -0.07562800000000
C           45.81484499999999       -0.03244200000000       -0.02041500000000
C           45.09051700000000        1.25591400000000        0.09371800000000
C           45.69126299999999        2.42833000000000        0.24813000000000
C           44.66069500000000        3.44115800000000        0.28772400000000
C           43.49128999999999        2.82757200000000        0.14795200000000
C           42.18448000000000        3.53697500000000        0.11188900000000
C           42.19364200000000        5.01914400000000        0.13453700000000
C           41.82600900000000        5.71164500000000        1.29959300000000
C           41.85005800000000        7.10945100000000        1.32305000000000
C           42.24677400000000        7.82155700000000        0.18694500000000
C           42.61717600000000        7.13719600000000       -0.97461500000000
C           42.59297599999999        5.73908800000000       -1.00260300000000
C           41.00237900000000        2.89191700000000        0.05929100000000
C           39.69372100000000        3.53562500000000       -0.00600800000000
C           38.80803300000000        2.56425700000000       -0.04724200000000
C           39.53633000000000        1.29139000000000       -0.01025400000000
N           40.82109499999999        1.47442600000000        0.05069500000000
N           43.67028799999999        1.41461300000000        0.02351400000000
C           42.33196900000000       -4.89086100000000       -0.06752200000000
C           42.19130500000000       -5.59438200000000       -1.27391600000000
C           42.22896500000000       -6.99207300000000       -1.27824400000000
C           42.40812200000000       -7.69173300000000       -0.08112700000000
C           42.54852900000000       -6.99450600000000        1.12286900000000
C           42.51309200000000       -5.59690400000000        1.13115100000000
H           37.81997000000000       -2.73423600000000        0.00304700000000
H           39.63368600000000       -4.50920700000000       -0.01080500000000
H           45.06077700000000       -4.48770500000000       -0.25545500000000
H           46.91806100000000       -2.72568700000000       -0.24220800000000
H           46.75402200000000        2.61224100000000        0.32576900000000
H           44.82645000000000        4.50318800000000        0.40192200000000
H           41.52567800000000        5.16886300000000        2.18687100000000
H           41.56443800000000        7.64123500000000        2.22226000000000
H           42.26725800000000        8.90321200000000        0.20846900000000
H           42.92660700000000        7.68955600000000       -1.85249000000000
H           42.88665500000000        5.21768800000000       -1.90544600000000
H           39.46647400000000        4.59418300000000       -0.02400900000000
H           37.73789599999999        2.70959300000000       -0.10194100000000
H           42.05604099999999       -5.06031600000000       -2.20611000000000
H           42.12177700000000       -7.53311400000000       -2.20945200000000
H           42.43891300000000       -8.77320500000000       -0.08600100000000
H           42.68726899999999       -7.53797800000000        2.04877900000000
H           42.62652000000000       -5.06431900000000        2.06710200000000
175
 energy: -296.670923667916 gnorm: 0.478745410983 xtb: 6.5.1 (b24c23e)
Fe          27.94742875348704        0.05474429093209        0.01232329113193
C           24.60146204569462       -0.07720043641757        0.00561186461282
C           25.27121570952081       -1.24432612713660       -0.12416700430700
C           24.61519611961299       -2.53428338366968       -0.27446630494401
C           25.56669564900281       -3.46572018600058       -0.32206221429866
C           26.86177868275992       -2.79139461977449       -0.20275829710195
N           26.67236525657766       -1.39521535560593       -0.08368089013011
C           28.06610205333994       -3.42715267168714       -0.15605593485814
C           29.33906044085569       -2.72700237770062       -0.00795363621157
C           30.62446725766532       -3.39934654291114        0.17572327834387
C           31.57072015104360       -2.45900581583131        0.23535321654501
N           29.49450800021476       -1.41809786740653       -0.06167353802829
C           30.89787226126197       -1.18230941242276        0.08015608935100
C           31.49887946244509        0.02721862943586        0.00575195398586
C           30.72192416923610        1.25807276354005       -0.15968544587980
C           31.25884757498341        2.43637581716152       -0.57422451608077
C           30.23013767076669        3.42405524001199       -0.53154865832088
C           29.09708624402649        2.81421807343543       -0.09117016112039
C           27.83295304524427        3.52074817213325        0.15020694898334
C           27.84643047164494        5.00223480453252        0.30603792756023
C           27.18258452435118        5.82970705097950       -0.61318529943509
C           27.22178319520758        7.21586235750322       -0.46899749332897
C           27.92126045546939        7.78929164989790        0.59131407541713
C           28.58473588481753        6.97563349544411        1.50793684133972
C           28.55010508817834        5.58948324578363        1.36682838584187
C           26.65651269483132        2.85508152224376        0.23948586040419
C           25.35123055837506        3.43830874938672        0.51710116408099
C           24.47475401671014        2.43148185526256        0.46406603115348
C           25.22045198451587        1.21609679550175        0.16668601547052
N           26.50833876635298        1.45820862790715        0.04054024237529
N           29.33626074229465        1.43402258244239        0.13635222408680
C           28.09435627048925       -4.90972250770337       -0.24933028434928
C           27.98968847476546       -5.54204682362196       -1.49474882384161
C           28.02779756908473       -6.93272481927200       -1.57885761340335
C           28.16753999871628       -7.69939501804848       -0.42317767515189
C           28.26890888013537       -7.07541717007861        0.81909368880518
C           28.23182641271166       -5.68526624371762        0.90813597028419
H           23.51770059818471       -0.11642819746320        0.00130738595622
H           23.55128063342901       -2.72415711966204       -0.32896224865966
H           25.38004621909025       -4.52680527350957       -0.41992177520168
H           30.80631841091833       -4.45937120789135        0.24928358819871
H           32.62875187955107       -2.64150934016502        0.36007423674209
H           32.28628985948318        2.59019030295399       -0.86009794187487
H           30.32906088621589        4.46900159241443       -0.78262180022364
H           26.64361283032808        5.39524580342377       -1.44932550809582
H           26.70933776527352        7.85009466413010       -1.18544691580437
H           27.95126155200554        8.86809100481981        0.70180606087163
H           29.13228525626859        7.42255848465101        2.33152451364107
H           29.07063758357334        4.96547101265817        2.08626497665382
H           25.10687148185056        4.47056751141544        0.73012513005879
H           23.41216025060589        2.51773853779963        0.62406957755004
H           27.88192278319591       -4.95191397100617       -2.39960950909527
H           27.94925221504997       -7.41910069292832       -2.54576443011890
H           28.19725153405662       -8.78168639764096       -0.49047981938733
H           28.37781266498762       -7.67256579123078        1.71852661854659
H           28.31052304258554       -5.20632236950971        1.87912826643429
Fe          56.67586872026364       -0.02425233471102        0.01062874679902
C           60.02174012947128        0.10786524415105        0.00962684472670
C           59.35199672094764        1.27958175359432       -0.06937619569210
C           60.00805800402743        2.57483992630494       -0.16349230110462
C           59.05654922562453        3.50743899796482       -0.17058690770474
C           57.76150249311254        2.82841560099274       -0.08071426102487
N           57.95101658168237        1.42877919508384       -0.02235157200805
C           56.55684979868956        3.46156739052737       -0.00641910956948
C           55.28417796509765        2.75567269322042        0.11112275893746
C           53.99879378022392        3.41953442623720        0.32383355560834
C           53.05238543535798        2.47766186348737        0.34261821865374
N           55.12792807035003        1.44979164027508        0.00072136058888
C           53.72432044194179        1.20882124763515        0.13208163823946
C           53.11906546771440        0.00332367871488        0.00529733368331
C           53.90028447924656       -1.21899792440450       -0.21340069412624
C           53.36423044636014       -2.37846749402968       -0.67889711987934
C           54.39290934242327       -3.36670291443243       -0.67905235459686
C           55.52604302570867       -2.77638311375886       -0.21260003674709
C           56.79015733947492       -3.49286473249782       -0.00214211677627
C           56.77677081435264       -4.97978232968908        0.08920059474153
C           57.44063958249495       -5.76657816696421       -0.86506957222835
C           57.40144210772980       -7.15769217085156       -0.78120541602116
C           56.70196465711488       -7.77662268519614        0.25320433690476
C           56.03849242832189       -7.00353314364404        1.20429255607602
C           56.07311880142993       -5.61255854809862        1.12350318421483
C           57.96669712261848       -2.83172735457574        0.11597706829530
C           59.27197776294749       -3.42650968281109        0.36798297670587
C           60.14846591486177       -2.41833009070268        0.35871241671966
C           59.40276615826075       -1.19117567123764        0.11438344833632
N           58.11480801668580       -1.42757622400863       -0.02206047473067
N           55.28628147284228       -1.40739447634838        0.07458005632301
C           56.52882433089277        4.94688493979366       -0.03522274929672
C           56.63353630880178        5.63270828009980       -1.25201324250958
C           56.59543027227431        7.02573392056753       -1.27565938963173
C           56.45568563871203        7.74150206203153       -0.08778206291380
C           56.35431866800474        7.06417365485956        1.12622148643805
C           56.39140059875951        5.67146262270787        1.15481902002927
H           61.10551453295525        0.14725282954567        0.00704117892015
H           61.07195801659529        2.76687779286785       -0.20968914345955
H           59.24317243321917        4.57177062155806       -0.22228678786945
H           53.81691782527325        4.47533649697718        0.44334946303959
H           51.99436280397437        2.65438467119814        0.47510411159458
H           52.33680713575004       -2.51949859243642       -0.97109389342768
H           54.29414231094935       -4.39978204750713       -0.97525190552258
H           57.97961143348942       -5.29622794564396       -1.68155896272217
H           57.91388624088864       -7.76021760037045       -1.52452068586871
H           56.67196284295918       -8.85920208222679        0.31674800832954
H           55.49093979614711       -7.48579819262277        2.00769440180969
H           55.55258543241624       -5.02038151841878        1.86936034139609
H           59.51634561911242       -4.46705064552986        0.53598585610752
H           61.21106092026506       -2.51146408575064        0.51482687503415
H           56.74130022922634        5.08243284445057       -2.18165110147778
H           56.67397199650998        7.55363640614095       -2.22053668025903
H           56.42597325098905        8.82569426135210       -0.10802655387315
H           56.24541048291935        7.62170226616187        2.05073450006228
H           56.31270017679815        5.15081165987157        2.10409836637001
C           34.91701706615835        0.02811332015570        0.01230711618701
C           33.65196048873938        0.01175865520376        0.00749554319148
C           36.26152411495009        0.02615187292294        0.01343640696806
C           37.59560360198290        0.01624710829878        0.00944235082160
C           48.28578692197454        0.03041317067789        0.01197671999442
C           47.04929368009124        0.02109568315814        0.00778797399875
C           49.61957719760863        0.02550725346036        0.01413981537193
C           50.99477508405599        0.00819877762521        0.00752531688849
Fe          42.24965806840513        0.05661431800825        0.01976916715303
C           38.89506562016314       -0.01911106750870       -0.02092563614917
C           39.55439611606505       -1.22287077158665       -0.02562923210009
C           38.88244471018886       -2.51044490951908       -0.01340245161696
C           39.83231052927766       -3.44606954472142       -0.02163439858523
C           41.12367985066684       -2.76849740020257       -0.04272536675083
N           40.94047553973730       -1.36383280216446       -0.04055660213482
C           42.32323959229182       -3.41055487475063       -0.06206217086700
C           43.60969255273900       -2.73495843833227       -0.08708395703849
C           44.88843317919714       -3.43110422503644       -0.18477447968849
C           45.85344930125999       -2.50668138557482       -0.17891677697422
N           43.77768810761235       -1.42964847496201       -0.02549999906211
C           45.16252567674587       -1.23818611270051       -0.07734213968691
C           45.75709316049608       -0.02116525385553       -0.01812246151940
C           45.05787558606661        1.25463089140896        0.09181897434477
C           45.68903776270476        2.44629352984892        0.24939044218647
C           44.67639926238623        3.44509257377478        0.28808972658708
C           43.47697212981254        2.81880760165624        0.14510274230642
C           42.19684516317831        3.52981729598780        0.11225667028416
C           42.19962995804148        5.01923520978300        0.13562003855268
C           41.82666852714710        5.71327507559461        1.29559587223198
C           41.85119720352871        7.10693684375775        1.31892039353545
C           42.24653639245910        7.81766312104779        0.18685669035797
C           42.61563218716389        7.13471066525217       -0.97083341696940
C           42.59335815490496        5.74112973928909       -0.99878490100879
C           41.00424563788253        2.89152176259317        0.05974602318985
C           39.70306565933247        3.53602885490047       -0.00556570082600
C           38.80197168967523        2.55243338994962       -0.04743007185221
C           39.53904925054680        1.29648977582948       -0.01130964268699
N           40.83057707986545        1.48236052119072        0.04958646044081
N           43.66186445747871        1.42090338923501        0.02638222935349
C           42.33553935704482       -4.89450000782598       -0.06801732014201
C           42.19162322655883       -5.59724049641352       -1.27046571771558
C           42.22929897656951       -6.99017383709430       -1.27427590906992
C           42.40794590867398       -7.68798237293495       -0.08103905561812
C           42.54784943007569       -6.99269152818103        1.11898766751736
C           42.51330662225416       -5.59982215361767        1.12776040496101
H           37.82063490378327       -2.72342854370725        0.00293270487733
H           39.64218387248080       -4.50981293743098       -0.01108286078373
H           45.05376750703497       -4.49233005597910       -0.25524875999471
H           46.91534017673084       -2.71513732434221       -0.24147048481107
H           46.75320110207379        2.61408133236960        0.32614733710248
H           44.83057860106248        4.50475873269877        0.40251432161497
H           41.52632804985492        5.16862309612063        2.18487663528520
H           41.56499896644713        7.63978123947657        2.22066835321170
H           42.26728091023836        8.90195775710435        0.20833680992485
H           42.92594995457752        7.68837744446337       -1.85120082376712
H           42.88591320998550        5.21774461523327       -1.90351380669201
H           39.47450115740198        4.59314642586754       -0.02355876080118
H           37.73507212563388        2.70084742444687       -0.10201031084674
H           42.05634019260105       -5.06033776551498       -2.20400406166773
H           42.12187859503448       -7.53212084275952       -2.20818718509130
H           42.43885131957030       -8.77207385237740       -0.08601190325180
H           42.68701185422868       -7.53695125537040        2.04748350506337
H           42.62627612919427       -5.06440935161949        2.06508185344922
175
 energy: -296.793772289228 gnorm: 0.232418548012 xtb: 6.5.1 (b24c23e)
Fe          27.96646289301259        0.04203700854308        0.00951549554428
C           24.60460298798809       -0.05939553245932        0.00848513467852
C           25.27941794266452       -1.24267032472756       -0.12429184159458
C           24.62004246489204       -2.52443419307834       -0.27373994350927
C           25.58162222621327       -3.46245346979055       -0.32158957529671
C           26.86437186984666       -2.77965425165388       -0.20314130161018
N           26.65920616508299       -1.40320889770542       -0.08493771597263
C           28.08571393454394       -3.41663129475791       -0.15409773043344
C           29.33510398617674       -2.73384498798618       -0.00827343283922
C           30.61148486685771       -3.40389001196978        0.17186828719752
C           31.56771838400601       -2.45374082204999        0.23388188143323
N           29.51203551809723       -1.40273461232725       -0.05139151786342
C           30.91818554949478       -1.17531617876682        0.08123175669938
C           31.53985637684094        0.04376681287284       -0.00043025413428
C           30.73744866312477        1.24322834396756       -0.14914654930481
C           31.26269908798607        2.45867907851129       -0.57235332342884
C           30.25319770811381        3.42043928412553       -0.52855555987974
C           29.09368933357548        2.79618501148781       -0.08120402515149
C           27.85366527917693        3.50557138657146        0.14894641268527
C           27.85893365082058        4.99602120056215        0.29926388378140
C           27.18579969332141        5.82684477876399       -0.60862144100436
C           27.22345648017975        7.21008874839800       -0.46495880057333
C           27.92113022662454        7.78481918759605        0.59094234587444
C           28.58175580813419        6.97198169575727        1.50447067628796
C           28.55168448089574        5.58953023673722        1.36122026080220
C           26.65877906857795        2.84507406170764        0.24147834076765
C           25.36126659335850        3.43045802460699        0.51394492590051
C           24.46969356385280        2.41910782675971        0.45966535642411
C           25.20474059125581        1.20578038150517        0.16629594096354
N           26.51506982030522        1.45950055190744        0.05280954412139
N           29.34678050596360        1.42636581128025        0.11716765155522