656
 energy: -1161.300065148328 gnorm: 0.000375298032 xtb: 6.5.1 (b24c23e)
C          131.18242933378519       -0.08100621316526       -0.01899822665080
C          131.79280461678812       -1.29394925861472       -0.31046885470598
C          131.14224204795525       -2.51898532351381       -0.62936161232112
C          132.10522413085053       -3.46582207184828       -0.83621916041758
C          133.37541901754028       -2.85210476989320       -0.63843167934343
N          133.13624884569745       -1.54230719897386       -0.33512617958460
C          134.64004936592170       -3.44213830578176       -0.74747869137146
C          134.67463154171963       -4.88857804554581       -1.06618964821923
C          135.30521913029736       -5.34040367938650       -2.22979768353014
C          135.33260222896430       -6.68833393526289       -2.53055684465763
C          134.73511421904797       -7.61745487758324       -1.67224567950710
C          134.77997192785463       -9.05084575803877       -2.01400130527227
O          135.30405866797653       -9.48590549093251       -3.00728332607550
C          134.10763552143501       -7.16801328483837       -0.50790000411322
C          134.07528168178240       -5.81722438341467       -0.21042577838481
C          135.85529544103062       -2.77275875115625       -0.57895205343490
C          137.15264208653414       -3.42381412437540       -0.62505276356030
C          138.07186554275603       -2.45847641829689       -0.41890840157088
N          136.00756575950172       -1.44400931130782       -0.32803800301832
C          137.33503767165004       -1.22219147546511       -0.23957906279588
C          137.97030513021562        0.01724392080865       -0.02525341605491
C          137.33337427026655        1.25329011070349        0.19262216249681
C          137.97606267513049        2.50596579375404        0.37890284185852
C          137.00866418365337        3.45060468260419        0.58130519252399
C          135.74412157218111        2.80025275029379        0.53476334261625
N          135.99195711135687        1.47653125574751        0.28613262157776
C          134.48089756911443        3.38370779611503        0.68359074092730
C          134.44635140386166        4.83381518034095        0.98129990406348
C          135.06093312511916        5.33661393171359        2.13268012456009
C          135.02481717544117        6.68949373399118        2.40948900963591
C          134.37831674282381        7.57325803001570        1.53892109183570
C          134.35750353207337        9.01304935621435        1.85457958424645
O          134.87489608295127        9.49141164948150        2.83143442796427
C          133.76575130705123        7.07299100327593        0.38729333872810
C          133.79774486195046        5.71742710889403        0.11342917788525
C          133.26466922723242        2.69992766345903        0.57379348896034
C          131.96060518905762        3.30712155413131        0.79297190783120
C          131.04845964480145        2.33478677152586        0.59410562250625
C          131.79412310335300        1.13243538533823        0.26550404794606
N          133.12584310018508        1.38751533906961        0.27361752399204
H          130.09716952199838       -0.09227812058352       -0.01554498489853
H          130.07334396548890       -2.64433800521815       -0.69568693089302
H          131.95481417846040       -4.49725234901056       -1.11078385724000
H          133.86090835964509       -0.85471695981302       -0.15808459092865
H          135.75796863990391       -4.62166772465188       -2.90337810166895
H          135.81437856217983       -7.04590901505265       -3.43424122093946
H          134.28367679492547       -9.71210819115721       -1.27195936628572
H          133.64577188582737       -7.88226310644807        0.16602655532185
H          133.60018865734068       -5.47373809681465        0.70169150051927
H          137.31556473321803       -4.47820003334022       -0.77842835319198
H          139.14551646545598       -2.54895101220731       -0.38008593086081
H          139.04327323687056        2.65607713717950        0.35368351471242
H          137.15491832625756        4.50667405774227        0.73874923191920
H          135.27065361983142        0.77031427112418        0.18291856996276
H          135.54955653118077        4.65318379401259        2.81802045890546
H          135.49341069570767        7.08581718542693        3.30391877229009
H          133.81864976615199        9.63561327048324        1.10881353240459
H          133.26541257154420        7.75190016997902       -0.29560407099741
H          133.33397737004060        5.33440142793787       -0.78857286121877
H          131.79149159307849        4.33380037898552        1.07506710859909
H          129.97361954853719        2.39216032229058        0.66438733951984
C          282.25615208036925        0.04365111152227        0.01385149803263
C          281.64690991536474        1.22076177504975        0.42850838350204
C          282.29853483967355        2.42560354779608        0.81502031470371
C          281.33668055401711        3.33338249851495        1.15761516195104
C          280.06619165023562        2.70828467050940        1.00175033629960
N          280.30399617567178        1.44121374538406        0.55146809653654
C          278.80249346664300        3.26509009639640        1.23027800829813
C          278.77104153214697        4.65610136092977        1.73962092786617
C          278.14397803528135        5.66570220019713        1.00271349891073
C          278.11948557808444        6.96308182526449        1.47652022601989
C          278.71639881213451        7.28098456859473        2.70109583751606
C          278.67456224818795        8.67224926409730        3.18680694979366
O          278.15447879028955        9.57625144068142        2.58443137772340
C          279.34077445735835        6.27297605078734        3.43969529298609
C          279.37032139760686        4.97506711527729        2.96155638546740
C          277.58621707450908        2.61051050333915        1.01718017180477
C          276.28961368070088        3.18887876070920        1.32292082268931
C          275.36934150021125        2.26100300466363        0.98921561595638
N          277.43244183046602        1.35000648435279        0.52813880467777
C          276.10479023204374        1.11489442783366        0.49005021173382
C          275.46827584025061       -0.05748573411796        0.03646549830356
C          276.10297572783588       -1.22545663968633       -0.42552755053155
C          275.45739318577034       -2.39259781664651       -0.91357890712380
C          276.42349899311500       -3.29588323206440       -1.25947641335396
C          277.69044786466321       -2.71060018409926       -0.98264336847820
N          277.44478881259045       -1.45706865477765       -0.48884252532987
C          278.95335859063317       -3.27417162190824       -1.19592893125070
C          278.98699828912197       -4.65723845662774       -1.72407335054535
C          278.39928228766678       -5.70582778122846       -1.00922683661814
C          278.43438297590097       -6.99474923262514       -1.50502118886622
C          279.05274083228562       -7.26549522788461       -2.73026413589140
C          279.07303745956165       -8.64852660580090       -3.23992662542904
O          278.57978643708543       -9.58247488882027       -2.66092780268491
C          279.63859468333516       -6.21883638189310       -3.44654308083659
C          279.60789935747187       -4.92933076028797       -2.94684427589520
C          280.17074513200555       -2.62954004492215       -0.94846429589504
C          281.47547912425938       -3.25192973449232       -1.11465310060435
C          282.38880143261304       -2.32053452734835       -0.77504752576621
C          281.64343290204596       -1.13426862800511       -0.39183810908312
N          280.31081559913412       -1.36056981112518       -0.49923728367797
H          283.34141361119777        0.05489070410287        0.00966792506255
H          283.36729944421961        2.56840464706862        0.81916236091259
H          281.48784614355827        4.35046494500668        1.48098322583380
H          279.57872844605907        0.76545794305288        0.33557506989688
H          277.69162048386301        5.42502305919789        0.04736252510396
H          277.64029666033815        7.75284520914284        0.90795989217416
H          279.16946490100065        8.82694990966020        4.16936452597859
H          279.80240153571236        6.50976834924200        4.39284404694869
H          279.84322590773093        4.19264680823126        3.54452254155163
H          276.12771373749564        4.16567804497729        1.74886157933438
H          274.29582918172082        2.31826113619856        1.07105311929354
H          274.38910545079671       -2.51325444904459       -0.99296022658214
H          276.27464080386892       -4.27711283306218       -1.67956264766317
H          278.16774292102218       -0.79766632160298       -0.22012807299335
H          277.93254307966060       -5.50288656967091       -0.05190055457747
H          277.98656779182778       -7.81420069570582       -0.95310185241625
H          279.58722484965210       -8.76657351517364       -4.21760277816154
H          280.11705523489525       -6.41917661223368       -4.39972403235073
H          280.05089144792811       -4.11705021604475       -3.51197110032268
H          281.64437112053366       -4.26808172911163       -1.43273173460092
H          283.46443717806221       -2.40086314338304       -0.76597705778576
C          143.17373069159788        0.06806470867817       -0.03513792559661
C          141.94559782527864        0.06167964206024       -0.03332228766040
C          140.60064945206199        0.05094915865955       -0.03000582571001
C          139.37706608028239        0.03509677304078       -0.02757128629274
C          144.51856264884356        0.07065647214092       -0.03678637881385
C          145.74243660635162        0.06788527779745       -0.03470837012288
C          159.21216090050845        0.00309578653661       -0.01833181931896
C          157.98323577225068        0.00753450726734       -0.02116312361207
C          156.63973246829656        0.01275761374360       -0.02300169192046
C          155.41522548410828        0.02065466331782       -0.02619504811353
C          160.55564412338606       -0.00075035521019       -0.01814115709293
C          161.78020316079440       -0.00507035103757       -0.01426800444064
C          175.25130014664384       -0.01956382065020       -0.00881515047356
C          174.02224819639474       -0.01899359999527       -0.00969148198580
C          172.67876325423921       -0.01914208355772       -0.00966975450013
C          171.45416286613374       -0.01676132026530       -0.01155542130764
C          176.59478263658445       -0.01747662558768       -0.00921229779222
C          177.81939244290231       -0.01842772722337       -0.00699207148655
C          191.29209971646105       -0.01571689390819       -0.00835799583252
C          190.06306676350596       -0.01581170300507       -0.00890939699627
C          188.71955493402521       -0.01677619027599       -0.00839626753299
C          187.49491944393733       -0.01523410901678       -0.00947373592604
C          192.63559505141208       -0.01396017034493       -0.00886458850567
C          193.86022813616592       -0.01499851739450       -0.00643709180535
C          207.33386339031640       -0.01452980557176       -0.00622918040635
C          206.10481488376345       -0.01368070048092       -0.00657253221023
C          204.76128979793074       -0.01488287560990       -0.00667387579887
C          203.53663120937455       -0.01337537196458       -0.00804759853800
C          208.67738765730948       -0.01309734139094       -0.00676679405745
C          209.90202785765723       -0.01335840641909       -0.00404833629074
C          223.37567988586298       -0.01550682227477       -0.00551345099143
C          222.14664311440322       -0.01570523283623       -0.00635562413124
C          220.80312906907869       -0.01640453805476       -0.00570687381550
C          219.57849112250656       -0.01453886097281       -0.00667898304098
C          224.71919126909549       -0.01396398854216       -0.00575587455269
C          225.94383447069285       -0.01531995281522       -0.00432770244032
C          239.41659514204662       -0.01294094133695       -0.00674445287736
C          238.18754966107829       -0.01324835672751       -0.00700203460083
C          236.84405427309667       -0.01422897408051       -0.00629889721930
C          235.61943250584761       -0.01243460465583       -0.00687991177434
C          240.76007495088390       -0.01177677083973       -0.00620930059934
C          241.98469941445825       -0.01370134592770       -0.00463970788754
C          255.45571707119711       -0.03139191129528        0.00124759068075
C          254.22680600488840       -0.02673446378340       -0.00118331613530
C          252.88332949789850       -0.02393282864274       -0.00279716329346
C          251.65877136081639       -0.01926304947378       -0.00495600136891
C          256.79921731867125       -0.03676275975773        0.00380049968458
C          258.02374234503509       -0.04335327501931        0.00886980273768
C          271.49248857937096       -0.09608525434083        0.03650812680632
C          270.26448631395493       -0.10000704004926        0.03585762719313
C          268.91942123877749       -0.10140762148277        0.03361473245513
C          267.69566569817454       -0.09682690850916        0.03094862016457
C          272.83766546238132       -0.08802989774478        0.03782960559803
C          274.06115145022079       -0.07473544172128        0.03845935433087
C          147.14827620424157        0.06313103199440       -0.03413750308177
C          147.77863196999039        1.00368797406198       -0.87094459251844
C          147.13351223477881        1.92667582595506       -1.73410309314343
C          148.10113420442150        2.66078206851730       -2.36366205532511
C          149.36604617168106        2.21306579460709       -1.89390372124469
N          149.12054839094307        1.20480517944333       -1.00133489691607
C          150.62856031434904        2.68393774316168       -2.27636960661987
C          150.64768897631740        3.80640021956470       -3.24460484810545
C          151.25185638660759        3.64888572254208       -4.49578311614098
C          151.26603550079770        4.69302757695942       -5.40017108630047
C          150.68179187466902        5.92108537663471       -5.07264748103689
C          150.71269808143651        7.02104887528055       -6.05412323266236
O          151.21492931303547        6.93022680110686       -7.14489037784323
C          150.08071918967920        6.08079000487240       -3.82186406604843
C          150.06122914025676        5.03257999990441       -2.91896688908241
C          151.85263566072246        2.18694095227773       -1.82512160025689
C          153.13979853465713        2.74830227480205       -2.19577047617427
C          154.07508369857430        2.00764638427614       -1.56642629291306
N          152.02687238081165        1.14055131870090       -0.97178497080120
C          153.35789570825517        1.00217128518811       -0.80723381020892
C          154.01090105553581        0.02637229043589       -0.02715136179918
C          153.37960291445657       -0.95624540215600        0.76020861603897
C          154.02417455138084       -1.96387615212069        1.52331973401065
C          153.05653067645810       -2.70248397713133        2.14741503447281
C          151.79209428000709       -2.15927124657770        1.79040631294189
N          152.03816102507028       -1.11275522564244        0.94262336909696
C          150.53004962521712       -2.60880847730788        2.19796426880712
C          150.51108469130858       -3.74624655956962        3.14837768685171
C          149.89705066564696       -4.95081354313654        2.79384245141510
C          149.88063147997300       -6.01581116394177        3.67670511498351
C          150.47428877490225       -5.89561948002968        4.93548802011820
C          150.46915460005877       -7.01463893536647        5.89567807498568
O          150.97094933239708       -6.95975512094828        6.98907963796166
C          151.08607638899355       -4.68931450755408        5.29199525525920
C          151.10698167673195       -3.62799604338522        4.40778905904989
C          149.30572541324025       -2.07683157044949        1.78755937707517
C          148.01899754444068       -2.53011710964403        2.28576219325502
C          147.08366456166280       -1.78482108419217        1.66198474177206
C          147.80039534073637       -0.87260935259042        0.79274420094153
N          149.13184540749248       -1.06289947354394        0.89686580226531
H          146.06558572236870        2.00714795953955       -1.85695325461765
H          147.95323009841496        3.43692033793065       -3.09657916646345
H          149.83956055282084        0.67921595406492       -0.51547188815955
H          151.69491125181196        2.69450507100989       -4.75675312604371
H          151.72730113356178        4.57693551058331       -6.37503361252223
H          150.22813490651055        7.95761042235664       -5.70461613259015
H          149.62907716772744        7.03152174179854       -3.55780262704698
H          149.60579440774967        5.16437245673274       -1.94386627129196
H          153.28569763112907        3.60183435829830       -2.83758832663300
H          155.14763663287934        2.11471124724556       -1.59084524852487
H          155.09177738879356       -2.10276524397206        1.57741003753018
H          153.20395396447611       -3.55447052057276        2.79065567262097
H          151.31960013657718       -0.54219534963767        0.50972810686685
H          149.44661500770957       -5.05090410575967        1.81279934606349
H          149.40686082226858       -6.94922494395939        3.39066894839729
H          149.95885182525441       -7.92976008448719        5.52670528683912
H          151.54032998592098       -4.60333558144993        6.27326718010490
H          151.56966430515286       -2.68987623260493        4.69299102749792
H          147.87319723685221       -3.30218795409202        3.02361178995741
H          146.01142933446880       -1.82264563477389        1.76825696625554
C          163.18441417082479       -0.00653255076624       -0.01468476112037
C          163.81188261664147        0.91706216144986       -0.87362847909526
C          163.16369472094556        1.81874368047645       -1.75638984768022
C          164.12871225349812        2.54805000903577       -2.39581153844513
C          165.39469290650345        2.11840653425235       -1.91278200430944
N          165.15266630837695        1.12414817542121       -1.00340394514806
C          166.65512518726152        2.59434230053543       -2.29606457780438
C          166.66926339663186        3.70515697859197       -3.27766053540223
C          167.28286095893884        3.53923698364944       -4.52313875198668
C          167.29364396612050        4.57349097713749       -5.43888412420193
C          166.69614118516026        5.79968056358543       -5.12885665586240
C          166.72480264466427        6.88935750440775       -6.12199469260341
O          167.23870756769793        6.79199551105257       -7.20667878482766
C          166.08492018874730        5.96756128430934       -3.88411011262958
C          166.06917304375372        4.92932627194565       -2.96968552895466
C          167.88138390667152        2.11319480404461       -1.83369060850130
C          169.16550285139584        2.67998859060175       -2.20643369600993
C          170.10438740629394        1.95189473051198       -1.56777577053682
N          168.06074194893151        1.07711191386147       -0.96880948503898
C          169.39234477629790        0.94907137693992       -0.80046556058112
C          170.04995640190870       -0.01639582764620       -0.01132171381077
C          169.42246742250896       -0.99308015696603        0.78666965957202
C          170.07058856388963       -1.99174543895846        1.55819118367229
C          169.10565648744986       -2.72456589557519        2.19352014679097
C          167.83964764720659       -2.18614660020603        1.83541287289898
N          168.08174613354925       -1.14910519510917        0.97503170321734
C          166.57929009278732       -2.63017281953603        2.25527776796538
C          166.56577871121922       -3.75505020806266        3.22061839214883
C          165.94836340670872       -4.96347523249551        2.88558501634607
C          165.93847584347151       -6.01774957097208        3.78133968963218
C          166.54238968010384       -5.88277467153626        5.03369951663243
C          166.54597961059659       -6.99068309338576        6.00685287096211
O          167.05901741648302       -6.92350391877163        7.09427136058015
C          167.15698210502782       -4.67239301096382        5.37097736508098
C          167.17112086635788       -3.62171781388404        4.47400715324367
C          165.35296189866045       -2.10450906223271        1.84383259510825
C          164.06909269371351       -2.54876317822569        2.35700628787500
C          163.13011978923996       -1.81581622147656        1.72387652133632
C          163.84194455323149       -0.92059695725884        0.83336312806708
N          165.17353406416026       -1.10687693210637        0.93510463875374
H          162.09574631431121        1.88966515854024       -1.88466356893210
H          163.97818460409650        3.30938968187660       -3.14355079643161
H          165.87323800236746        0.61293574923090       -0.50469116986244
H          167.73617588121817        2.58609726356907       -4.77066360576709
H          167.76256415373973        4.45093227678354       -6.40929084151299
H          166.22730558588410        7.82449774449172       -5.78725952812819
H          165.62272819510741        6.91689027485975       -3.63362952912941
H          165.60613138886606        5.06771941729182       -1.99908714749440
H          169.30716940536922        3.52828238944142       -2.85608241483448
H          171.17622850334743        2.06613617010264       -1.59072672515002
H          171.13849516852795       -2.12910153072559        1.61012467040709
H          169.25625086695970       -3.56954507080742        2.84520160938482
H          167.36128347088851       -0.58399825440095        0.53817090535324
H          165.49033772009457       -5.07522718938105        1.90931883722465
H          165.46221950701946       -6.95435682687192        3.51025625887296
H          166.03113941120353       -7.90949152172587        5.65374042802251
H          167.61904892100299       -4.57484330175696        6.34750648938275
H          167.63614578415593       -2.68037202431860        4.74437276149958
H          163.92755627081240       -3.30661743663969        3.11027282604260
H          162.05842083113359       -1.85215188091257        1.83609172620252
C          179.22357867988907       -0.01686736699162       -0.00774947530740
C          179.84937044047663        0.90780162089392       -0.86677234709505
C          179.19970778515011        1.80875432610858       -1.74918152908267
C          180.16356398478024        2.53955258117051       -2.38865184902068
C          181.43029866240840        2.11156689092355       -1.90606129360481
N          181.18983568550931        1.11682798222417       -0.99675671997327
C          182.68988342588739        2.58932480986654       -2.28981255982026
C          182.70194752176536        3.70030481087623       -3.27130480683196
C          183.31471881554384        3.53518417793667       -4.51729231418332
C          183.32387112513885        4.56964264352215       -5.43282654738225
C          182.72552196794828        5.79522957612980       -5.12206773427813
C          182.75263158136227        6.88519905148397       -6.11495915460084
O          183.26597834561622        6.78852758192293       -7.19995797325600
C          182.11504093129290        5.96227553346553       -3.87685277959372
C          182.10091880299748        4.92382661673915       -2.96263159499398
C          183.91725046928130        2.11004802621982       -1.82832419956127
C          185.20017254807016        2.67890157238032       -2.20210459057403
C          186.14077592037114        1.95217009312499       -1.56441308134997
N          184.09900055336129        1.07417595192766       -0.96372189961669
C          185.43099408639929        0.94820845574509       -0.79655298128872
C          186.09068866929050       -0.01627599581823       -0.00795750984482
C          185.46488367723902       -0.99376310654637        0.79041849453284
C          186.11457592881334       -1.99164394890995        1.56158857024077
C          185.15082234570500       -2.72549750560119        2.19753798379471
C          183.88399852584263       -2.18857692296750        1.84008266657819
N          184.12442227734167       -1.15134958281121        0.97948956145713
C          182.62442996353622       -2.63418180956589        2.26077527665699
C          182.61321159643683       -3.75900370987417        3.22625545110828
C          181.99781149011028       -4.96853520574291        2.89153413298877
C          181.99015770114679       -6.02277179887151        3.78736019485899
C          182.59434756247612       -5.88664389295778        5.03945661099581
C          182.60044725190062       -6.99454022557573        6.01263389099871
O          183.11380248944764       -6.92634335013429        7.09982898445963
C          183.20689042909888       -4.67514348673939        5.37643192188600
C          183.21880470954321       -3.62449808456228        4.47939044923407
C          181.39703777816425       -2.11049925521796        1.85010856176069
C          180.11426423954401       -2.55689943494333        2.36419606160153
C          179.17358528984531       -1.82582294186004        1.73145009606946
C          179.88325108467137       -0.92953308672280        0.84027774352790
N          181.21521221469027       -1.11335556584259        0.94125283801329
H          178.13162337380706        1.87820957768116       -1.87715149553774
H          180.01180044271297        3.30086814456917       -3.13616774679969
H          181.91114331842178        0.60644625139849       -0.49825844181097
H          183.76875334504214        2.58252264922892       -4.76533729105681
H          183.79219856290089        4.44772721351865       -6.40360034444862
H          182.25449417049919        7.81980975739252       -5.77971081550718
H          181.65218311555500        6.91113282916439       -3.62581803988437
H          181.63847129593370        5.06158074740955       -1.99165922327319
H          185.33996291186077        3.52750358612241       -2.85175426279978
H          187.21242083351092        2.06805361977049       -1.58830226516524
H          187.18266578904075       -2.12778020568328        1.61294454795822
H          185.30275981108772       -3.57021977026404        2.84923848923704
H          183.40316152385967       -0.58705228831042        0.54290079364110
H          181.53958981535015       -5.08114971569777        1.91545872053535
H          181.51546332066775       -6.96024199719009        3.51652212299159
H          182.08684605685337       -7.91418905427786        5.65991287226823
H          183.66919602913552       -4.57672236821463        6.35276008168504
H          183.68230078454414       -2.68232120823009        4.74948502897107
H          179.97455213726153       -3.31481415079742        3.11774076231761
H          178.10202896223993       -1.86405774096253        1.84437266744521
C          195.26444542203998       -0.01354765016107       -0.00705828831226
C          195.89060660497844        0.91107103410324       -0.86588410071949
C          195.24139912328184        1.81236938258623       -1.74828012419710
C          196.20561174545446        2.54289959097173       -2.38751562392965
C          197.47214957707169        2.11432035179098       -1.90490353219346
N          197.23117911556960        1.11952084674416       -0.99577684915784
C          198.73190290391199        2.59169973043005       -2.28852660948930
C          198.74440590981297        3.70274096433354       -3.26997232360254
C          199.35697387118265        3.53735899786772       -4.51602459972196
C          199.36675058803016        4.57192291080328       -5.43143341683563
C          198.76925423004124        5.79787310304556       -5.12046940663531
C          198.79711061073729        6.88798089214781       -6.11319415116285
O          199.31031876366774        6.79109382570999       -7.19823693070762
C          198.15894118181947        5.96515994904195       -3.87520652965284
C          198.14418011214724        4.92660270010635       -2.96111372054443
C          199.95919919649091        2.11218933904370       -1.82704136254697
C          201.24218460488709        2.68091843695139       -2.20082233518865
C          202.18272099355954        1.95410465682123       -1.56312528045955
N          200.14083992404812        1.07629631017833       -0.96246901087577
C          201.47283989602383        0.95024248528263       -0.79525400598843
C          202.13239389976337       -0.01429685919604       -0.00663024679191
C          201.50624712357458       -0.99172267295243        0.79155813104569
C          202.15550406428767       -1.98981777357274        1.56279155929167
C          201.19140024744684       -2.72350983469763        2.19840695602733
C          199.92478842275068       -2.18628720461645        1.84063837949847
N          200.16568412055605       -1.14903867533009        0.98022802086766
C          198.66502800833283       -2.63172900223211        2.26099557419835