115
 energy: -210.372606714981 gnorm: 5.470548899310 xtb: 6.5.1 (b24c23e)
Cu          15.38527200000000        0.02991000000000        0.03061100000000
C           12.01161500000000       -0.07972200000000       -0.07944200000000
C           12.68452100000000       -0.89450500000000       -0.89789300000000
C           12.05582000000000       -1.82492900000000       -1.83242100000000
C           13.01664300000000       -2.46623400000000       -2.47660300000000
C           14.29976500000000       -1.97252500000000       -1.98074900000000
N           14.10557900000000       -0.97696400000000       -0.98077100000000
C           15.48800300000000       -2.40339700000000       -2.41350900000000
C           16.78768800000000       -1.91197900000000       -1.91986300000000
C           18.06737000000000       -2.41017200000000       -2.41998700000000
C           19.02312000000000       -1.76893300000000       -1.77587600000000
N           16.94130600000000       -1.00304100000000       -1.00704300000000
C           18.35259400000000       -0.85319300000000       -0.85635300000000
C           18.96132400000000       -0.00678100000000       -0.00625300000000
C           18.21351000000000        0.89915000000000        0.90348500000000
C           18.78491500000000        1.74613400000000        1.75408400000000
C           17.72282400000000        2.44349300000000        2.45448300000000
C           16.57646600000000        1.97737100000000        1.98639100000000
N           16.78894000000000        0.98075300000000        0.98546700000000
C           15.26117200000000        2.44777800000000        2.45897300000000
C           14.09429800000000        1.99035700000000        1.99964100000000
C           12.78648200000000        2.43966100000000        2.45112500000000
C           11.90545500000000        1.74502500000000        1.75351000000000
C           12.65236300000000        0.85623500000000        0.86064000000000
N           13.93371200000000        0.99301500000000        0.99785900000000
H           10.92850400000000       -0.10224600000000       -0.10199400000000
H           10.99440300000000       -1.97464100000000       -1.98274800000000
H           12.86297800000000       -3.22220700000000       -3.23590600000000
H           15.50770100000000       -3.16788200000000       -3.18135000000000
H           18.21825000000000       -3.16630300000000       -3.17928200000000
H           20.08479300000000       -1.91571800000000       -1.92307500000000
H           19.84454600000000        1.89838600000000        1.90697900000000
H           17.84263200000000        3.20260200000000        3.21689700000000
H           15.24454100000000        3.21266700000000        3.22726200000000
H           12.56274300000000        3.18674000000000        3.20159300000000
H           10.82979700000000        1.82798100000000        1.83700800000000
Cu          43.89438700000000       -0.05872800000000       -0.00366700000000
C           47.26804499999999        0.09642400000000       -0.01132400000000
C           46.59513900000000        1.24987500000000       -0.06863900000000
C           47.22383900000000        2.56697600000000       -0.13402500000000
C           46.26301700000000        3.47483600000000       -0.17912900000000
C           44.97989499999999        2.77596600000000       -0.14445800000000
N           45.17408000000000        1.36664000000000       -0.07447400000000
C           43.79165600000000        3.38589800000000       -0.17472800000000
C           42.49197199999999        2.69020900000000       -0.14014900000000
C           41.21229000000000        3.39526800000000       -0.17496200000000
C           40.25653999999999        2.48750600000000       -0.12986600000000
N           42.33835400000000        1.40360900000000       -0.07636600000000
C           40.92706600000000        1.19136400000000       -0.06570200000000
C           40.31833499999999       -0.00678100000000       -0.00625300000000
C           41.06615000000000       -1.28908300000000        0.05727300000000
C           40.49474499999999       -2.48798600000000        0.11670500000000
C           41.55683600000000       -3.47513800000000        0.16568600000000
C           42.70319300000000       -2.81535800000000        0.13299300000000
N           42.49072000000000       -1.40461300000000        0.06302100000000
C           44.01848800000000       -3.48132900000000        0.16612500000000
C           45.18536199999999       -2.83387900000000        0.13405800000000
C           46.49317800000000       -3.47004300000000        0.16578000000000
C           47.37420500000000       -2.48678000000000        0.11702700000000
C           46.62729600000000       -1.22850700000000        0.05444800000000
N           45.34594700000000       -1.42202100000000        0.06393900000000
H           48.35115600000000        0.12826100000000       -0.01285400000000
H           48.28525700000000        2.77887700000000       -0.14451300000000
H           46.41668199999999        4.54498300000000       -0.23225200000000
H           43.77195900000000        4.46808600000000       -0.22844100000000
H           41.06141000000000        4.46552700000000       -0.22797400000000
H           39.19486700000000        2.69513600000000       -0.14001000000000
H           39.43511300000000       -2.70349400000000        0.12738400000000
H           41.43702700000000       -4.54969800000000        0.21900100000000
H           44.03511799999999       -4.56411800000000        0.21989700000000
H           46.71691700000000       -4.52766600000000        0.21835100000000
H           48.44986300000000       -2.60432900000000        0.12298700000000
C           22.51157900000000        0.00704700000000       -0.00341800000000
C           21.25930899999999       -0.01213400000000       -0.00776700000000
C           23.82524700000000        0.00628100000000       -0.00148600000000
C           25.32838100000000       -0.01213400000000       -0.00776700000000
C           35.27498700000000        0.00704700000000       -0.00341800000000
C           34.02271600000000       -0.01213400000000       -0.00776700000000
C           36.58865500000000        0.00628100000000       -0.00148600000000
C           38.09178799999999       -0.01213400000000       -0.00776700000000
Cu          29.60189900000000       -0.03749900000000       -0.03357500000000
C           26.16844700000000        0.01672300000000        0.01463900000000
C           26.83498000000000        0.89015600000000        0.79186900000000
C           26.21066700000000        1.88214700000000        1.67455800000000
C           27.16903900000000        2.56071400000000        2.27843600000000
C           28.45024800000000        2.04048500000000        1.81556900000000
N           28.25815700000000        0.98490700000000        0.87625400000000
C           29.63263300000000        2.50553700000000        2.22944400000000
C           30.94230800000000        2.00235000000000        1.78171100000000
C           32.20895100000000        2.54727700000000        2.26672000000000
C           33.18113100000000        1.88184500000000        1.67455300000000
N           31.11828500000000        1.04290800000000        0.92785700000000
C           32.53350000000000        0.90418700000000        0.80445500000000
C           33.16254900000000        0.01672300000000        0.01463900000000
C           32.43262600000000       -0.94881300000000       -0.84466700000000
C           33.01936900000000       -1.83961200000000       -1.63754000000000
C           31.96929800000000       -2.58693700000000       -2.30254700000000
C           30.81511800000000       -2.10354600000000       -1.87221300000000
N           31.00942900000000       -1.04741600000000       -0.93228100000000
C           29.51004000000000       -2.61353100000000       -2.32588700000000
C           28.33085700000000       -2.14586000000000       -1.90963600000000
C           27.04374500000000       -2.64780700000000       -2.35616600000000
C           26.13717600000000       -1.93217200000000       -1.71937100000000
C           26.84486600000000       -0.96976500000000       -0.86311300000000
N           28.13237100000000       -1.09184800000000       -0.97181800000000
H           25.15329699999999        2.05287100000000        1.82642400000000
H           27.01377500000000        3.36104600000000        2.99060900000000
H           29.63904200000000        3.31520200000000        2.94993900000000
H           32.34009600000000        3.34969700000000        2.98084000000000
H           34.23893500000000        2.05123600000000        1.82534100000000
H           34.08167400000000       -1.99071300000000       -1.77211700000000
H           32.10188900000000       -3.38951700000000       -3.01682100000000
H           29.51156900000000       -3.42364600000000       -3.04674800000000
H           26.84924500000000       -3.44327600000000       -3.06393500000000
H           25.06781400000000       -2.05314600000000       -1.82694400000000
115
 energy: -211.932888717175 gnorm: 0.789854608014 xtb: 6.5.1 (b24c23e)
Cu          15.38703588614893        0.02932326074573        0.03002185601086
C           12.01199514057099       -0.07550424795906       -0.07520550254488
C           12.68791531868574       -0.89569043224978       -0.89908374073106
C           12.05488508669575       -1.82355434431915       -1.83104030636609
C           13.01865561899599       -2.46683810586666       -2.47720952503541
C           14.29794974007918       -1.97024843969297       -1.97846206795179
N           14.09995953726019       -0.98093775143438       -0.98476252711092
C           15.49388509337075       -2.40285879190359       -2.41296983939490
C           16.78441021228844       -1.91607447560877       -1.92397785599641
C           18.06406817817353       -2.41203346483881       -2.42185544902281
C           19.02411675510421       -1.76707864427097       -1.77401592050704
N           16.94448268568738       -1.00155677861886       -1.00554540510019
C           18.35469217159141       -0.85323944004072       -0.85639518099948
C           18.96415432142101       -0.00363884181608       -0.00314541892130
C           18.21232929472959        0.89384181388153        0.89815853868309
C           18.78518858074813        1.75188194164711        1.75985613958748
C           17.73143386207055        2.44407142694100        2.45506380949084
C           16.56958289242679        1.97434540329037        1.98335296863405
N           16.79166851655937        0.98290164263012        0.98762835965175
C           15.26617634586825        2.44626642956852        2.45745372382615
C           14.09300891720521        1.98969331916107        1.99897441974621
C           12.78871329174420        2.44020355745383        2.45166976333431
C           11.90293260226493        1.74267209013588        1.75114688939076
C           12.64604329690173        0.85363870433468        0.85803272878229
N           13.93492412420111        0.99588566560215        1.00074226473789
H           10.92857728052775       -0.10188848213720       -0.10163488279608
H           10.99439857264153       -1.97396765284611       -1.98207170303833
H           12.86393760475383       -3.22217785114088       -3.23587685631449
H           15.50824923147874       -3.16780374682813       -3.18127125741600
H           18.21743069662855       -3.16643999560881       -3.17941964313537
H           20.08477695571680       -1.91483270400021       -1.92218523492772
H           19.84452165882412        1.89852381205723        1.90711732022429
H           17.84316983066258        3.20249128485150        3.21678566006509
H           15.24533213443370        3.21241803644404        3.22701169993307
H           12.56369163373959        3.18664099300445        3.20149334834694
H           10.82961610713066        1.82739008381379        1.83641433540329
Cu          43.89266411311164       -0.05791091472594       -0.00370691214641
C           47.26765722711629        0.09046300948357       -0.01102790652677
C           46.59173781360630        1.25156166737208       -0.06872301659064
C           47.22477992381718        2.56504523632657       -0.13392926531859
C           46.26101884713165        3.47569835884662       -0.17917235903398
C           44.98174354342511        2.77270340486760       -0.14429483746759
N           45.17974176926899        1.37235133277472       -0.07475777176804
C           43.78573030298092        3.38512183068612       -0.17468670632514
C           42.49525315067864        2.69603546844357       -0.14044130435759
C           41.21557895439457        3.39791468759135       -0.17509582422751
C           40.25553111913844        2.48492588643048       -0.12973575187081
N           42.33503972975046        1.40145149958658       -0.07626971279543
C           40.92490219529044        1.19158063649220       -0.06570811191061
C           40.31503104502242       -0.01110640411554       -0.00598785898645
C           41.06718739235558       -1.28168756608508        0.05690182865580
C           40.49444635491649       -2.49616267539206        0.11711329255106
C           41.54821998829719       -3.47595961140510        0.16572621373601
C           42.71003179854001       -2.81105150798142        0.13278137348849
N           42.48789335691912       -1.40764170826586        0.06317017817603
C           44.01350091979868       -3.47917721779863        0.16601786385675
C           45.18665220203088       -2.83293367134563        0.13401073002783
C           46.49096969965360       -3.47081770711053        0.16581823423478
C           47.37673294236685       -2.48347382486461        0.11686297956538
C           46.63358762698906       -1.22485055023489        0.05426666159177
N           45.34480849994246       -1.42613503630623        0.06414378537294
H           48.35108277621209        0.12775523310506       -0.01282883884370
H           48.28526197323730        2.77792572113640       -0.14446563298962
H           46.41572362553553        4.54494276420865       -0.23225011667847
H           43.77140586008686        4.46797175928978       -0.22843504318084
H           41.06222284406265        4.46571689752692       -0.22798366897595
H           39.19487147253914        2.69387398997812       -0.13994198745358
H           39.43512435780228       -2.70368859372476        0.12738967054650
H           41.43648489991502       -4.54953808137525        0.21899276333722
H           44.03432415247835       -4.56376330348181        0.21987920529827
H           46.71597020822743       -4.52752681695622        0.21834394609114
H           48.45004495335164       -2.60349489651312        0.12294545768802
C           22.50780403558931        0.00712315726983       -0.00334526527329
C           21.25264102977771       -0.01215342554767       -0.00775500109239
C           23.82239626318092        0.00586571546683       -0.00174497436051
C           25.12182985816031       -0.02064322891455       -0.01481084425049
C           35.31422786678966        0.00622585616767       -0.00391090210120
C           34.18557944561501       -0.02032056476887       -0.01474524338710
C           36.61371624572472        0.00617723063003       -0.00152811488177
C           38.07809023468857       -0.01207532030911       -0.00775278247327
Cu          29.60329538891669       -0.03735302338941       -0.03344349730941
C           26.33377774575724        0.01842231342229        0.01558303728988
C           26.86073660850911        0.90164757778560        0.80205509537440
C           26.20930126969487        1.87822985567731        1.67107081605143
C           27.17283788944826        2.56178675484504        2.27939090818347
C           28.44740949997438        2.03909738919892        1.81433434025141
N           28.25385536387032        0.99050641479126        0.88123978867180
C           29.63942293961453        2.50510282996472        2.22905818383780
C           30.93869830717184        2.00884672384065        1.78749695191904
C           32.20400889837623        2.54963974716995        2.26882151671011
C           33.18209089423807        1.87795841200986        1.67109323734213
N           31.12102256110714        1.04242701968034        0.92743204623469
C           32.51024427098289        0.91460757326352        0.81368819885201
C           33.00105106175492        0.01789151815481        0.01532677522818
C           32.41336996972511       -0.94991008848872       -0.84563218556729
C           33.01971193932079       -1.84456200793028       -1.64195158235827
C           31.97739877974553       -2.58767137341915       -2.30320311004147
C           30.80799174113859       -2.10106986311122       -1.87000980135932
N           31.01101638924638       -1.05085048984101       -0.93533760132813
C           29.51541253815589       -2.61194620012940       -2.32447830473191
C           28.32922085747679       -2.14564783277716       -1.90944410963520
C           27.04671409176702       -2.64853302733151       -2.35681231759267
C           26.13423427603678       -1.92843173277780       -1.71604334806206
C           26.85448060966219       -0.97427740747971       -0.86716427148876
N           28.13541606132789       -1.09623592818143       -0.97571418030970
H           25.15311788029738        2.05168365827280        1.82536679574260
H           27.01471648102569        3.36097815283463        2.99054861430310
H           29.63952307967256        3.31514043372141        2.94988379530044
H           32.33929331389268        3.34983713416475        2.98096390369582
H           34.23889710916327        2.05012907037318        1.82435596886929
H           34.08164524031223       -1.99072157232530       -1.77212490504275
H           32.10246753451939       -3.38939714064705       -3.01671401901974
H           29.51228780802628       -3.42337968636322       -3.04651044068213
H           26.85014836461103       -3.44310834387411       -3.06378607653361
H           25.06746743861130       -2.05217785194430       -1.82608316028351
115
 energy: -212.172096087447 gnorm: 0.493791018534 xtb: 6.5.1 (b24c23e)
Cu          15.39422617206618        0.02405807474118        0.02476319054705
C           12.01304303460295       -0.06429942396949       -0.06395301055470
C           12.69175045390458       -0.89594731860619       -0.89934411715612
C           12.05423008178132       -1.81898407110942       -1.82645165842687
C           13.02543907393409       -2.46715707695150       -2.47753237237515
C           14.29746740644784       -1.96718742508484       -1.97538841512641
N           14.08071021647448       -0.99457403091717       -0.99845795784802
C           15.51085020846672       -2.39982777239894       -2.40992633522888
C           16.78077075168689       -1.92569663074446       -1.93364819412870
C           18.05511717353194       -2.41758852041359       -2.42743683957193
C           19.02455393580560       -1.76336229264029       -1.77027781406984
N           16.96395187701603       -1.00007348862954       -1.00407706480637
C           18.37183897693643       -0.84935064828586       -0.85246573360190
C           18.98439380829160        0.00827624501579        0.00886077383306
C           18.21860097284240        0.88525226199405        0.88954636592572
C           18.78948647618869        1.76682674050547        1.77486708325888
C           17.75502896538967        2.44430947544479        2.45529929581979
C           16.56429663620110        1.96510285704006        1.97407091895255
N           16.80573544706526        0.98606176059757        0.99080153163014
C           15.28405746535451        2.43707428788462        2.44821709245964
C           14.09271276462727        1.98768719088409        1.99695569092578
C           12.79308234709007        2.43751028139408        2.44896079281316
C           11.89314763617602        1.73512856371828        1.74356731501050
C           12.62677982140899        0.84861971522702        0.85298821059566
N           13.93076238323611        1.00373055670100        1.00860757419028
H           10.92958584223794       -0.09734692233580       -0.09707504959736
H           10.99403781992831       -1.96753083782046       -1.97560846228344
H           12.87323646496401       -3.22215446162254       -3.23585595129922
H           15.51562624143070       -3.16584592851742       -3.17930360461136
H           18.20986555216403       -3.16976258675814       -3.18275989080504
H           20.08489385604110       -1.90785299228935       -1.91517740501189
H           19.84770123837095        1.90338801818911        1.91200285498315
H           17.85123859489888        3.20243303861535        3.21672221331159
H           15.25712621301064        3.20627339352242        3.22083633092062
H           12.57256723773436        3.18482121940315        3.19966072113102
H           10.82392954969772        1.82206879019453        1.83106619973106
Cu          43.88563850324737       -0.05062404480807       -0.00406606053510
C           47.26656054835988        0.07465271762224       -0.01025334672515
C           46.58795720959738        1.25204791075503       -0.06875905357402
C           47.22552404060347        2.55870725738382       -0.13362545978895
C           46.25433054222884        3.47624588276353       -0.17921082252454
C           44.98232978183769        2.76832346390416       -0.14408594984138
N           45.19921409050198        1.39204108067730       -0.07573698827511
C           43.76856143289109        3.38063741014231       -0.17446989866459
C           42.49862828277606        2.70953903300754       -0.14113192781480
C           41.22433058760300        3.40591849608889       -0.17550166579489
C           40.25471997438820        2.48006284114059       -0.12949405083073
N           42.31453562532602        1.39919055409063       -0.07617435639595
C           40.90661925261644        1.18627322036308       -0.06543217952244
C           40.29298390539130       -0.02801181398156       -0.00507344881403
C           41.05976918447862       -1.26973415312376        0.05629039977462
C           40.48972269216243       -2.51769935346641        0.11817937088279
C           41.52444615735853       -3.47634572268313        0.16573857061927
C           42.71501546885706       -2.79776935043491        0.13211954076840
N           42.47300182662045       -1.41199169881426        0.06338773417277
C           43.99557638969318       -3.46601344231299        0.16535551387747
C           45.18704195430349       -2.83014316802528        0.13386085122757
C           46.48673179638108       -3.46711550618621        0.16562435063152
C           47.38662775774083       -2.47295357513141        0.11633067044735
C           46.65291659326036       -1.21789133436044        0.05390950653654
N           45.34930735263184       -1.43752606048955        0.06469322779590
H           48.35005030933915        0.12134149935475       -0.01252175322135
H           48.28568073019099        2.76887267168958       -0.14402823941955
H           46.40645275081096        4.54497535376912       -0.23226402748773
H           43.76392891963150        4.46508221636808       -0.22830055199328
H           41.06973376834080        4.47050622311057       -0.22823192972409
H           39.19447153856801        2.68409537109516       -0.13945946735673
H           39.43164188133610       -2.71074210148713        0.12772635655304
H           41.42839032376364       -4.54947683799479        0.21898021479642
H           44.02247268334359       -4.55497124637267        0.21943207528415
H           46.70714310283661       -4.52502025368571        0.21820808880836
H           48.45580310770281       -2.59601812770948        0.12256248940001
C           22.46628472776566        0.00667071815381       -0.00354921490032
C           21.21765775715805       -0.00919056542080       -0.00547209353335
C           23.82878620551415        0.00399020708569       -0.00245014251557
C           25.04114148536064       -0.02895229190997       -0.02244845981671
C           35.44472046191574        0.00234078470016       -0.00539237777995
C           34.19878906492305       -0.03381808637148       -0.02857105784153
C           36.77394558468662        0.00494423497047       -0.00208587461420
C           38.05864562271800       -0.01255357968669       -0.00715562683111
Cu          29.60433926652452       -0.03415686207475       -0.03057801993808
C           26.29336226033316        0.00198152550035        0.00069537893684
C           26.87022120941918        0.91477895055813        0.81372011099575
C           26.21021184165285        1.87625185710547        1.66933910727839
C           27.18057922185412        2.56440557309638        2.28172217528410
C           28.45015172549052        2.04212166011656        1.81702622800063
N           28.24488785235935        1.01303713447083        0.90120365145720
C           29.65393482638158        2.50986660308340        2.23331367814310
C           30.92453368666687        2.03153642350744        1.80769740764442
C           32.19077025574364        2.56003122213445        2.27804453242724
C           33.17233054972213        1.87596529603480        1.66922629678871
N           31.11125727846569        1.05644578730909        0.93992239542329
C           32.47832347982528        0.93014150817399        0.82768213264422
C           32.97218658266799        0.00115218078543        0.00093222742979
C           32.37685414826350       -0.95469227141106       -0.84969714338226
C           33.01441383051949       -1.86169218994786       -1.65728078506386
C           31.99753590799992       -2.59117267948148       -2.30632976021438
C           30.79509537390083       -2.09966416476236       -1.86875020663507
N           30.99991031919523       -1.06624397670718       -0.94899201458758
C           29.53195678545563       -2.60798205771173       -2.32094277151408
C           28.33286204178714       -2.14866314181662       -1.91211741063464
C           27.05190793866477       -2.64664328995879       -2.35512817681075
C           26.12626276227448       -1.92117884127908       -1.70958865483089
C           26.84454450542617       -0.97756692232985       -0.87015126112130
N           28.14466895819583       -1.11194276912358       -0.98973264260601
H           25.15287896430356        2.04319047198391        1.81780802600882
H           27.02346994830175        3.36209052649091        2.99153588777497
H           29.64522330329514        3.31775281382151        2.95221848264148
H           32.33269122625983        3.35564175978418        2.98612758749784
H           34.23375023638770        2.04028227105024        1.81558661235251
H           34.07971764971422       -1.99303079150504       -1.77419306543666
H           32.11139244394366       -3.39095815576616       -3.01810868072728
H           29.52293824776517       -3.42024500837427       -3.04371818175969
H           26.85822333300655       -3.44131581119876       -3.06218918806388
H           25.06237436446465       -2.04469850731587       -1.81943017037821
115
 energy: -212.298796384827 gnorm: 0.349984253140 xtb: 6.5.1 (b24c23e)
Cu          15.40837534854902        0.01682699564590        0.01751396192199
C           12.01545311298264       -0.05191003751753       -0.05151002261183
C           12.69573686432461       -0.89744648047088       -0.90085014306328
C           12.05454190950473       -1.81390666644553       -1.82135234768768
C           13.03392242644868       -2.46700174227756       -2.47737824235286
C           14.29630861956696       -1.96359943978443       -1.97178410255622
N           14.05824833958463       -1.01039533585984       -1.01434235115824
C           15.53218707348759       -2.39319903642756       -2.40326818812455
C           16.78037343619273       -1.93395171411051       -1.94194953753554
C           18.04755510876494       -2.42170336919588       -2.43157611145258
C           19.02515642046452       -1.75995929972140       -1.76684061704786
N           16.99298662270322       -0.99466091674997       -0.99866393443040
C           18.39528701507146       -0.84568951431167       -0.84874113674262
C           19.01957619223159        0.02275859523489        0.02357123964682
C           18.23622187906573        0.87595823633411        0.88025375396929
C           18.79750984174090        1.78588742160409        1.79402361057878
C           17.78619619225994        2.44279381101871        2.45377396500990
C           16.56487631337077        1.95229909652604        1.96121242088947
N           16.83218843841406        0.98871695645516        0.99346714647891
C           15.31051792801749        2.42153876299311        2.43260982482150
C           14.09253494916240        1.98189300422398        1.99113336459340
C           12.79884408591292        2.43190347356713        2.44332778175114
C           11.88395804553950        1.72709595480642        1.73549761865023
C           12.60483082625868        0.84317630867821        0.84751923238666
N           13.92761936302888        1.01231374653367        1.01722322512239
H           10.93163705980136       -0.09214277360592       -0.09184742183455
H           10.99406150887773       -1.95833446920278       -1.96637275209090
H           12.88715139666366       -3.22189951363813       -3.23560269980852
H           15.52641952588647       -3.16079904735920       -3.17423034212683
H           18.20025497951398       -3.17338788835478       -3.18640823073290
H           20.08580298154123       -1.89914207860818       -1.90642707165484
H           19.85608056405257        1.91098676543245        1.91963928108175
H           17.86176770018117        3.20185251482817        3.21613218877373
H           15.27782777115327        3.19348672488664        3.20799087970839
H           12.58594939540093        3.18062951394675        3.19544687441644