      -----------------------------------------------------------      
     |                   =====================                   |     
     |                           x T B                           |     
     |                   =====================                   |     
     |                         S. Grimme                         |     
     |          Mulliken Center for Theoretical Chemistry        |     
     |                    University of Bonn                     |     
      -----------------------------------------------------------      

   * xtb version 6.5.1 (b24c23e) compiled by 'conda@728c89f4b128' on 2022-07-12

   xtb is free software: you can redistribute it and/or modify it under
   the terms of the GNU Lesser General Public License as published by
   the Free Software Foundation, either version 3 of the License, or
   (at your option) any later version.
   
   xtb is distributed in the hope that it will be useful,
   but WITHOUT ANY WARRANTY; without even the implied warranty of
   MERCHANTABILITY or FITNESS FOR A PARTICULAR PURPOSE.  See the
   GNU Lesser General Public License for more details.
   
   Cite this work as:
   * C. Bannwarth, E. Caldeweyher, S. Ehlert, A. Hansen, P. Pracht,
     J. Seibert, S. Spicher, S. Grimme, WIREs Comput. Mol. Sci., 2020, 11,
     e01493. DOI: 10.1002/wcms.1493
   
   for GFN2-xTB:
   * C. Bannwarth, S. Ehlert and S. Grimme., J. Chem. Theory Comput., 2019,
     15, 1652-1671. DOI: 10.1021/acs.jctc.8b01176
   for GFN1-xTB:
   * S. Grimme, C. Bannwarth, P. Shushkov, J. Chem. Theory Comput., 2017,
     13, 1989-2009. DOI: 10.1021/acs.jctc.7b00118
   for GFN0-xTB:
   * P. Pracht, E. Caldeweyher, S. Ehlert, S. Grimme, ChemRxiv, 2019, preprint.
     DOI: 10.26434/chemrxiv.8326202.v1
   for GFN-FF:
   * S. Spicher and S. Grimme, Angew. Chem. Int. Ed., 2020, 59, 15665-15673.
     DOI: 10.1002/anie.202004239
   
   for ALPB and GBSA implicit solvation:
   * S. Ehlert, M. Stahn, S. Spicher, S. Grimme, J. Chem. Theory Comput.,
     2021, 17, 4250-4261. DOI: 10.1021/acs.jctc.1c00471
   
   for DFT-D4:
   * E. Caldeweyher, C. Bannwarth and S. Grimme, J. Chem. Phys., 2017,
     147, 034112. DOI: 10.1063/1.4993215
   * E. Caldeweyher, S. Ehlert, A. Hansen, H. Neugebauer, S. Spicher,
     C. Bannwarth and S. Grimme, J. Chem. Phys., 2019, 150, 154122.
     DOI: 10.1063/1.5090222
   * E. Caldeweyher, J.-M. Mewes, S. Ehlert and S. Grimme, Phys. Chem. Chem. Phys.
     2020, 22, 8499-8512. DOI: 10.1039/D0CP00502A
   
   for sTDA-xTB:
   * S. Grimme and C. Bannwarth, J. Chem. Phys., 2016, 145, 054103.
     DOI: 10.1063/1.4959605
   
   in the mass-spec context:
   * V. Asgeirsson, C. Bauer and S. Grimme, Chem. Sci., 2017, 8, 4879.
     DOI: 10.1039/c7sc00601b
   * J. Koopman and S. Grimme, ACS Omega 2019, 4, 12, 15120-15133.
     DOI: 10.1021/acsomega.9b02011
   
   for metadynamics refer to:
   * S. Grimme, J. Chem. Theory Comput., 2019, 155, 2847-2862
     DOI: 10.1021/acs.jctc.9b00143
   
   for SPH calculations refer to:
   * S. Spicher and S. Grimme, J. Chem. Theory Comput., 2021, 17, 1701-1714
     DOI: 10.1021/acs.jctc.0c01306
   
   with help from (in alphabetical order)
   P. Atkinson, C. Bannwarth, F. Bohle, G. Brandenburg, E. Caldeweyher
   M. Checinski, S. Dohm, S. Ehlert, S. Ehrlich, I. Gerasimov, C. Hölzer
   A. Katbashev, J. Koopman, C. Lavigne, S. Lehtola, F. März, M. Müller,
   F. Musil, H. Neugebauer, J. Pisarek, C. Plett, P. Pracht, F. Pultar,
   J. Seibert, P. Shushkov, S. Spicher, M. Stahn, M. Steiner, T. Strunk,
   J. Stückrath, T. Rose, and J. Unsleber
   
 * started run on 2022/07/27 at 04:48:26.784     

           -------------------------------------------------
          |                Calculation Setup                |
           -------------------------------------------------

          program call               : xtb Py_C2_10.xyz --gfn 1 --opt -T 48
          hostname                   : cx3-6-14.cx3.hpc.ic.ac.uk
          coordinate file            : Py_C2_10.xyz
          omp threads                :                     1

   ID    Z sym.   atoms
    1    6 C      1-5, 7-10, 12-16, 18-23, 25-28, 30-35, 56-60, 62-65, 67-71,
                  73-78, 80-83, 85-90, 111-133, 135-138, 140-144, 146-151,
                  153-156, 158-163, 183-187, 189-192, 194-198, 200-205,
                  207-210, 212-217, 237-241, 243-246, 248-252, 254-259,
                  261-264, 266-271, 291-295, 297-300, 302-306, 308-313,
                  315-318, 320-325, 345-349, 351-354, 356-360, 362-367,
                  369-372, 374-379, 399-403, 405-408, 410-414, 416-421,
                  423-426, 428-433, 453-457, 459-462, 464-468, 470-475,
                  477-480, 482-487, 507-511, 513-516, 518-522, 524-529,
                  531-534, 536-541
    2    7 N      6, 11, 17, 24, 29, 36, 61, 66, 72, 79, 84, 91, 134, 139,
                  145, 152, 157, 164, 188, 193, 199, 206, 211, 218, 242, 247,
                  253, 260, 265, 272, 296, 301, 307, 314, 319, 326, 350, 355,
                  361, 368, 373, 380, 404, 409, 415, 422, 427, 434, 458, 463,
                  469, 476, 481, 488, 512, 517, 523, 530, 535, 542
    3    1 H      37-55, 92-110, 165-182, 219-236, 273-290, 327-344, 381-398,
                  435-452, 489-506, 543-560

molecular fragmentation (1/2 indicates fragments):
111111111111111111111111111111111111111111111111111111122222222222222222
222222222222222222222222222222222222222222222222222222222222222222222222
222222222222222222222222222222222222222222222222222222222222222222222222
222222222222222222222222222222222222222222222222222222222222222222222222
222222222222222222222222222222222222222222222222222222222222222222222222
222222222222222222222222222222222222222222222222222222222222222222222222
222222222222222222222222222222222222222222222222222222222222222222222222
22222222222222222222222222222222222222222222222222222222
# atoms in fragment 1/2:    55   505
 fragment masses (1/2) :      463.51     4379.75
CMA distance (Bohr)    : 108.129
constraining FC (au)   :  0.0500
########################################################################
[WARNING] Please study the warnings concerning your input carefully
-1- prog_main_parseArguments: Unknown option '-T' provided
########################################################################

           -------------------------------------------------
          |                 G F N 1 - x T B                 |
           -------------------------------------------------

        Reference                      10.1021/acs.jctc.7b00118
      * Hamiltonian:
        H0-scaling (s, p, d)           1.850000    2.250000    2.000000
        zeta-weighting                 0.000000
      * Dispersion:
        s8                             2.400000
        a1                             0.630000
        a2                             5.000000
        s9                             0.000000
      * Repulsion:
        kExp                           1.500000
        rExp                           1.000000
      * Coulomb:
        alpha                          2.000000
        third order                    atomic
        anisotropic                    false
      * Halogen bond correction:
        rad-scale                      1.300000
        damping                        0.440000


          ...................................................
          :                      SETUP                      :
          :.................................................:
          :  # basis functions                1876          :
          :  # atomic orbitals                1876          :
          :  # shells                         1120          :
          :  # electrons                      1754          :
          :  # halogen bonds                     0          :
          :  max. iterations                   250          :
          :  Hamiltonian                  GFN1-xTB          :
          :  restarted?                      false          :
          :  GBSA solvation                  false          :
          :  PC potential                    false          :
          :  electronic temp.          300.0000000     K    :
          :  accuracy                    1.0000000          :
          :  -> integral cutoff          0.2500000E+02      :
          :  -> integral neglect         0.1000000E-07      :
          :  -> SCF convergence          0.1000000E-05 Eh   :
          :  -> wf. convergence          0.2000000E-04 e    :
          :  Broyden damping             0.4000000          :
          ...................................................

 iter      E             dE          RMSdq      gap      omega  full diag
   1   -973.2398990 -0.973240E+03  0.103E+01    0.08       0.0  T
   2   -974.0212745 -0.781376E+00  0.615E+00    0.11       1.0  T
   3   -967.2870434  0.673423E+01  0.212E+00    0.07       1.0  T
   4   -966.0636492  0.122339E+01  0.140E+00    0.12       1.0  T
   5   -944.4978383  0.215658E+02  0.236E+00    0.07       1.0  T
   6   -971.4313848 -0.269335E+02  0.819E-01    0.09       1.0  T
   7   -972.8874528 -0.145607E+01  0.633E-01    0.12       1.0  T
   8   -974.2019770 -0.131452E+01  0.252E-01    0.10       1.0  T
   9   -974.2368968 -0.349198E-01  0.199E-01    0.10       1.0  T
  10   -974.2594815 -0.225847E-01  0.149E-01    0.11       1.0  T
  11   -974.1725419  0.869396E-01  0.203E-01    0.02       1.0  T
  12   -974.1183668  0.541751E-01  0.244E-01    0.01       1.0  T
  13   -974.3185480 -0.200181E+00  0.424E-02    0.11       1.0  T
  14   -974.3192811 -0.733071E-03  0.346E-02    0.11       1.0  T
  15   -974.3188251  0.455943E-03  0.340E-02    0.11       1.0  T
  16   -974.3213810 -0.255586E-02  0.172E-02    0.11       1.0  T
  17   -974.3218156 -0.434559E-03  0.133E-02    0.11       1.0  T
  18   -974.3220087 -0.193162E-03  0.938E-03    0.11       1.0  T
  19   -974.3221037 -0.949705E-04  0.890E-03    0.11       1.0  T
  20   -974.3221459 -0.421942E-04  0.771E-03    0.11       1.0  T
  21   -974.3221832 -0.373163E-04  0.632E-03    0.11       1.0  T
  22   -974.3222540 -0.707511E-04  0.474E-03    0.11       1.0  T
  23   -974.3222424  0.115576E-04  0.448E-03    0.11       1.0  T
  24   -974.3222500 -0.763523E-05  0.435E-03    0.11       1.0  T
  25   -974.3222541 -0.408967E-05  0.375E-03    0.11       1.1  T
  26   -974.3222691 -0.149538E-04  0.310E-03    0.11       1.4  T
  27   -974.3222785 -0.938761E-05  0.252E-03    0.11       1.7  T
  28   -974.3222839 -0.547361E-05  0.219E-03    0.11       1.9  T
  29   -974.3222882 -0.425242E-05  0.190E-03    0.11       2.2  T
  30   -974.3222931 -0.493546E-05  0.141E-03    0.11       3.0  T
  31   -974.3222974 -0.424412E-05  0.739E-04    0.11       5.7  T
  32   -974.3222983 -0.925718E-06  0.325E-04    0.11      13.0  T
  33   -974.3222983  0.341789E-07  0.276E-04    0.11      15.3  T
  34   -974.3222985 -0.231863E-06  0.170E-04    0.11      24.8  T
  35   -974.3222986 -0.835072E-07  0.790E-05    0.11      53.5  T

   *** convergence criteria satisfied after 35 iterations ***

         #    Occupation            Energy/Eh            Energy/eV
      -------------------------------------------------------------
         1        2.0000           -0.8107237             -22.0609
       ...           ...                  ...                  ...
       871        2.0000           -0.3900409             -10.6136
       872        2.0000           -0.3898764             -10.6091
       873        2.0000           -0.3874292             -10.5425
       874        2.0000           -0.3842486             -10.4559
       875        1.9999           -0.3807632             -10.3611
       876        1.9936           -0.3771180             -10.2619
       877        1.7509           -0.3735201             -10.1640 (HOMO)
       878        0.2119           -0.3696410             -10.0584 (LUMO)
       879        0.0183           -0.3672182              -9.9925
       880        0.0177           -0.3671833              -9.9916
       881        0.0058           -0.3661237              -9.9627
       882        0.0009           -0.3643876              -9.9155
       ...           ...                  ...                  ...
      1876                          1.2515992              34.0577
      -------------------------------------------------------------
                  HL-Gap            0.0038792 Eh            0.1056 eV
             Fermi-level           -0.3716674 Eh          -10.1136 eV

 SCC (total)                   0 d,  0 h,  1 min, 16.850 sec
 SCC setup                      ...        0 min,  0.082 sec (  0.107%)
 Dispersion                     ...        0 min,  0.038 sec (  0.049%)
 classical contributions        ...        0 min,  0.009 sec (  0.011%)
 integral evaluation            ...        0 min,  0.965 sec (  1.256%)
 iterations                     ...        1 min, 13.628 sec ( 95.808%)
 molecular gradient             ...        0 min,  1.766 sec (  2.298%)
 printout                       ...        0 min,  0.362 sec (  0.471%)

         :::::::::::::::::::::::::::::::::::::::::::::::::::::
         ::                     SUMMARY                     ::
         :::::::::::::::::::::::::::::::::::::::::::::::::::::
         :: total energy            -959.441061963461 Eh    ::
         :: gradient norm              0.807443855066 Eh/a0 ::
         :: HOMO-LUMO gap              0.105557678556 eV    ::
         ::.................................................::
         :: SCC energy              -974.322298576663 Eh    ::
         :: -> electrostatic           0.886705023320 Eh    ::
         :: repulsion energy          15.375580218917 Eh    ::
         :: dispersion energy         -0.494343605715 Eh    ::
         :: halogen bond corr.         0.000000000000 Eh    ::
         :: add. restraining           0.000000000000 Eh    ::
         :: total charge              -0.000000001050 e     ::
         :::::::::::::::::::::::::::::::::::::::::::::::::::::

      ----------------------------------------------------------- 
     |                       L-ANC optimizer                     |
      ----------------------------------------------------------- 
          low memory version by Sebastian Ehlert

          ...................................................
          :                      SETUP                      :
          :.................................................:
          :   energy convergence        0.5000000E-05 Eh    :
          :   grad. convergence         0.1000000E-02 Eh/a0 :
          :   optimization log               true           :
          :   writing optlog all                1     steps :
          :   Hessian reset                    20     steps :
          :   maximium step len.        1.0000000     a0    :
          :   LBFGS images                     20           :
          ...................................................
 * calculating model hessian...
Using Lindh-Hessian (1995)
 Shifting diagonal of input Hessian by    1.0004135094513913E-002
 Lowest  eigenvalues of input Hessian
    0.010000    0.010003    0.010003    0.010004    0.010004    0.010004
    0.010004    0.010004    0.000000    0.000000    0.000000    0.000000
    0.000000    0.000000    0.010005    0.010005    0.010005    0.010006
 Highest eigenvalues
    2.486337    2.486337    2.486339    2.486340    2.486341    2.486343


........................................................................
.............................. CYCLE    1 ..............................
........................................................................
   1   -974.3086972 -0.974309E+03  0.672E-02    0.17       0.0  T
   2   -974.3096527 -0.955428E-03  0.592E-02    0.15       1.0  T
   3   -974.3089593  0.693388E-03  0.493E-02    0.15       1.0  T
   4   -974.3109043 -0.194498E-02  0.332E-02    0.15       1.0  T
   5   -974.3088460  0.205827E-02  0.410E-02    0.14       1.0  T
   6   -974.3124245 -0.357848E-02  0.133E-02    0.15       1.0  T
   7   -974.3127880 -0.363498E-03  0.523E-03    0.15       1.0  T
   8   -974.3128517 -0.637514E-04  0.233E-03    0.15       1.8  T
   9   -974.3128615 -0.975133E-05  0.146E-03    0.15       2.9  T
  10   -974.3128626 -0.111031E-05  0.115E-03    0.15       3.7  T
  11   -974.3128621  0.433656E-06  0.106E-03    0.15       4.0  T
  12   -974.3128641 -0.197435E-05  0.573E-04    0.15       7.4  T
  13   -974.3128648 -0.685630E-06  0.163E-04    0.15      26.0  T
  14   -974.3128648 -0.225043E-08  0.138E-04    0.15      30.6  T
     SCC iter.                  ...        0 min, 29.846 sec
     gradient                   ...        0 min,  1.770 sec
 * total energy  :  -959.7723238 Eh     change       -0.3312619E+00 Eh
   gradient norm :     0.5291169 Eh/a0  converged?    E=F G=F D=F
   step length   :     0.5633169 a0

........................................................................
.............................. CYCLE    2 ..............................
........................................................................
   1   -974.4679371 -0.974468E+03  0.395E-02    0.21       0.0  T
   2   -974.4687133 -0.776243E-03  0.314E-02    0.20       1.0  T
   3   -974.4691931 -0.479819E-03  0.167E-02    0.20       1.0  T
   4   -974.4688379  0.355235E-03  0.205E-02    0.20       1.0  T
   5   -974.4693877 -0.549769E-03  0.816E-03    0.20       1.0  T
   6   -974.4694491 -0.614035E-04  0.403E-03    0.20       1.0  T
   7   -974.4694762 -0.270805E-04  0.102E-03    0.20       4.1  T
   8   -974.4694773 -0.110093E-05  0.405E-04    0.20      10.4  T
   9   -974.4694774 -0.128604E-06  0.317E-04    0.20      13.3  T
  10   -974.4694776 -0.194408E-06  0.154E-04    0.20      27.5  T
  11   -974.4694776 -0.398434E-07  0.548E-05    0.20      77.2  T
     SCC iter.                  ...        0 min, 23.710 sec
     gradient                   ...        0 min,  1.786 sec
 * total energy  :  -959.9503080 Eh     change       -0.1779841E+00 Eh
   gradient norm :     0.4106558 Eh/a0  converged?    E=F G=F D=F
   step length   :     5.0070907 a0

........................................................................
.............................. CYCLE    3 ..............................
........................................................................
   1   -974.5940391 -0.974594E+03  0.262E-02    0.25       0.0  T
   2   -974.5943863 -0.347217E-03  0.220E-02    0.24       1.0  T
   3   -974.5946849 -0.298574E-03  0.970E-03    0.25       1.0  T
   4   -974.5945551  0.129845E-03  0.106E-02    0.25       1.0  T
   5   -974.5946948 -0.139703E-03  0.505E-03    0.25       1.0  T
   6   -974.5947243 -0.295453E-04  0.187E-03    0.25       2.3  T
   7   -974.5947288 -0.447234E-05  0.583E-04    0.25       7.3  T
   8   -974.5947292 -0.444643E-06  0.193E-04    0.25      21.9  T
   9   -974.5947293 -0.216277E-07  0.114E-04    0.25      37.0  T
     SCC iter.                  ...        0 min, 18.997 sec
     gradient                   ...        0 min,  1.772 sec
 * total energy  :  -960.0615990 Eh     change       -0.1112911E+00 Eh
   gradient norm :     0.3447599 Eh/a0  converged?    E=F G=F D=F
   step length   :    10.3843556 a0

........................................................................
.............................. CYCLE    4 ..............................
........................................................................
   1   -974.6932520 -0.974693E+03  0.233E-02    0.29       0.0  T
   2   -974.6935258 -0.273804E-03  0.216E-02    0.28       1.0  T
   3   -974.6937787 -0.252887E-03  0.876E-03    0.28       1.0  T
   4   -974.6936848  0.938694E-04  0.820E-03    0.28       1.0  T
   5   -974.6937721 -0.873548E-04  0.392E-03    0.28       1.1  T
   6   -974.6937891 -0.169704E-04  0.144E-03    0.28       2.9  T
   7   -974.6937922 -0.313217E-05  0.453E-04    0.28       9.3  T
   8   -974.6937925 -0.275574E-06  0.185E-04    0.28      22.9  T
   9   -974.6937926 -0.278254E-07  0.897E-05    0.28      47.1  T
     SCC iter.                  ...        0 min, 19.090 sec
     gradient                   ...        0 min,  1.818 sec
 * total energy  :  -960.1517952 Eh     change       -0.9019619E-01 Eh
   gradient norm :     0.2994106 Eh/a0  converged?    E=F G=F D=F
   step length   :    24.1418366 a0

........................................................................
.............................. CYCLE    5 ..............................
........................................................................
   1   -974.7826538 -0.974783E+03  0.231E-02    0.32       0.0  T
   2   -974.7829333 -0.279561E-03  0.212E-02    0.31       1.0  T
   3   -974.7831189 -0.185610E-03  0.917E-03    0.31       1.0  T
   4   -974.7830225  0.963887E-04  0.795E-03    0.31       1.0  T
   5   -974.7831170 -0.944784E-04  0.280E-03    0.31       1.5  T
   6   -974.7831238 -0.672545E-05  0.121E-03    0.31       3.5  T
   7   -974.7831265 -0.278094E-05  0.341E-04    0.31      12.4  T
   8   -974.7831267 -0.150798E-06  0.196E-04    0.31      21.5  T
   9   -974.7831267 -0.440273E-07  0.803E-05    0.31      52.6  T
     SCC iter.                  ...        0 min, 19.095 sec
     gradient                   ...        0 min,  1.763 sec
 * total energy  :  -960.2354004 Eh     change       -0.8360516E-01 Eh
   gradient norm :     0.2604517 Eh/a0  converged?    E=F G=F D=F
   step length   :    80.9219652 a0

........................................................................
.............................. CYCLE    6 ..............................
........................................................................
   1   -974.8642480 -0.974864E+03  0.225E-02    0.34       0.0  T
   2   -974.8644848 -0.236860E-03  0.209E-02    0.34       1.0  T
   3   -974.8646278 -0.142993E-03  0.971E-03    0.34       1.0  T
   4   -974.8645205  0.107381E-03  0.868E-03    0.34       1.0  T
   5   -974.8646290 -0.108554E-03  0.225E-03    0.34       1.9  T
   6   -974.8646314 -0.236868E-05  0.129E-03    0.34       3.3  T
   7   -974.8646347 -0.337105E-05  0.301E-04    0.34      14.0  T
   8   -974.8646349 -0.117699E-06  0.148E-04    0.34      28.6  T
   9   -974.8646349 -0.219062E-07  0.826E-05    0.34      51.2  T
     SCC iter.                  ...        0 min, 18.963 sec
     gradient                   ...        0 min,  1.771 sec
 * total energy  :  -960.3141285 Eh     change       -0.7872815E-01 Eh
   gradient norm :     0.2266040 Eh/a0  converged?    E=F G=F D=F
   step length   :    99.9276068 a0

........................................................................
.............................. CYCLE    7 ..............................
........................................................................
   1   -974.9429047 -0.974943E+03  0.229E-02    0.37       0.0  T
   2   -974.9430898 -0.185148E-03  0.218E-02    0.37       1.0  T
   3   -974.9432157 -0.125895E-03  0.109E-02    0.37       1.0  T
   4   -974.9431073  0.108361E-03  0.897E-03    0.37       1.0  T
   5   -974.9432151 -0.107800E-03  0.213E-03    0.37       2.0  T
   6   -974.9432189 -0.376202E-05  0.112E-03    0.37       3.8  T
   7   -974.9432216 -0.266899E-05  0.291E-04    0.37      14.5  T
   8   -974.9432217 -0.127129E-06  0.113E-04    0.37      37.3  T
   9   -974.9432217 -0.118389E-07  0.643E-05    0.37      65.7  T
     SCC iter.                  ...        0 min, 19.223 sec
     gradient                   ...        0 min,  1.776 sec
 * total energy  :  -960.3874800 Eh     change       -0.7335143E-01 Eh
   gradient norm :     0.1936320 Eh/a0  converged?    E=F G=F D=F
   step length   :    61.0740906 a0

........................................................................
.............................. CYCLE    8 ..............................
........................................................................
   1   -975.0245083 -0.975025E+03  0.209E-02    0.39       0.0  T
   2   -975.0246218 -0.113462E-03  0.202E-02    0.39       1.0  T
   3   -975.0247264 -0.104699E-03  0.102E-02    0.39       1.0  T
   4   -975.0246511  0.753226E-04  0.775E-03    0.39       1.0  T
   5   -975.0247271 -0.759318E-04  0.143E-03    0.39       3.0  T
   6   -975.0247293 -0.223921E-05  0.686E-04    0.39       6.2  T
   7   -975.0247303 -0.959522E-06  0.247E-04    0.39      17.1  T
   8   -975.0247304 -0.106906E-06  0.862E-05    0.39      49.0  T
   9   -975.0247304 -0.824764E-08  0.472E-05    0.39      89.5  T
     SCC iter.                  ...        0 min, 19.272 sec
     gradient                   ...        0 min,  1.780 sec
 * total energy  :  -960.4499447 Eh     change       -0.6246472E-01 Eh
   gradient norm :     0.1609368 Eh/a0  converged?    E=F G=F D=F
   step length   :    18.7732820 a0

........................................................................
.............................. CYCLE    9 ..............................
........................................................................
   1   -975.1109258 -0.975111E+03  0.166E-02    0.41       0.0  T
   2   -975.1109901 -0.642825E-04  0.154E-02    0.41       1.0  T
   3   -975.1110481 -0.579911E-04  0.762E-03    0.41       1.0  T
   4   -975.1109982  0.498673E-04  0.610E-03    0.41       1.0  T
   5   -975.1110489 -0.507172E-04  0.109E-03    0.41       3.9  T
   6   -975.1110507 -0.184313E-05  0.462E-04    0.41       9.1  T
   7   -975.1110511 -0.371172E-06  0.178E-04    0.41      23.7  T
   8   -975.1110512 -0.561979E-07  0.786E-05    0.41      53.7  T
     SCC iter.                  ...        0 min, 16.981 sec
     gradient                   ...        0 min,  1.772 sec
 * total energy  :  -960.5002463 Eh     change       -0.5030165E-01 Eh
   gradient norm :     0.1336035 Eh/a0  converged?    E=F G=F D=F
   step length   :    12.1162925 a0

........................................................................
.............................. CYCLE   10 ..............................
........................................................................
   1   -975.2011823 -0.975201E+03  0.134E-02    0.43       0.0  T
   2   -975.2012187 -0.363293E-04  0.117E-02    0.43       1.0  T
   3   -975.2012667 -0.480304E-04  0.525E-03    0.43       1.0  T
   4   -975.2012190  0.477009E-04  0.557E-03    0.43       1.0  T
   5   -975.2012698 -0.507874E-04  0.125E-03    0.43       3.4  T
   6   -975.2012724 -0.258734E-05  0.399E-04    0.43      10.6  T
   7   -975.2012727 -0.287512E-06  0.147E-04    0.43      28.8  T
   8   -975.2012727 -0.301159E-07  0.689E-05    0.43      61.3  T
     SCC iter.                  ...        0 min, 17.174 sec
     gradient                   ...        0 min,  1.811 sec
 * total energy  :  -960.5414355 Eh     change       -0.4118919E-01 Eh
   gradient norm :     0.1122333 Eh/a0  converged?    E=F G=F D=F
   step length   :    10.1772695 a0

........................................................................
.............................. CYCLE   11 ..............................
........................................................................
   1   -975.2942287 -0.975294E+03  0.106E-02    0.45       0.0  T
   2   -975.2942497 -0.209400E-04  0.777E-03    0.45       1.0  T
   3   -975.2942633 -0.135934E-04  0.393E-03    0.45       1.1  T
   4   -975.2942432  0.200620E-04  0.441E-03    0.45       1.0  T
   5   -975.2942788 -0.356009E-04  0.810E-04    0.45       5.2  T
   6   -975.2942795 -0.658099E-06  0.369E-04    0.45      11.5  T
   7   -975.2942797 -0.265008E-06  0.122E-04    0.45      34.6  T
   8   -975.2942798 -0.185717E-07  0.645E-05    0.45      65.5  T
     SCC iter.                  ...        0 min, 16.813 sec
     gradient                   ...        0 min,  1.777 sec
 * total energy  :  -960.5757640 Eh     change       -0.3432845E-01 Eh
   gradient norm :     0.0976991 Eh/a0  converged?    E=F G=F D=F
   step length   :    10.8974504 a0

........................................................................
.............................. CYCLE   12 ..............................
........................................................................
   1   -975.3851359 -0.975385E+03  0.947E-03    0.47       0.0  T
   2   -975.3851512 -0.152583E-04  0.667E-03    0.47       1.0  T
   3   -975.3851606 -0.938573E-05  0.375E-03    0.47       1.1  T
   4   -975.3851609 -0.338762E-06  0.358E-03    0.47       1.2  T
   5   -975.3851827 -0.217841E-04  0.710E-04    0.47       6.0  T
   6   -975.3851831 -0.360089E-06  0.395E-04    0.47      10.7  T
   7   -975.3851834 -0.323145E-06  0.113E-04    0.47      37.3  T
   8   -975.3851834 -0.132164E-07  0.620E-05    0.47      68.1  T
     SCC iter.                  ...        0 min, 16.980 sec
     gradient                   ...        0 min,  1.790 sec
 * total energy  :  -960.6064031 Eh     change       -0.3063909E-01 Eh
   gradient norm :     0.0858064 Eh/a0  converged?    E=F G=F D=F
   step length   :    11.6926859 a0

........................................................................
.............................. CYCLE   13 ..............................
........................................................................
   1   -975.4749339 -0.975475E+03  0.924E-03    0.49       0.0  T
   2   -975.4749550 -0.211219E-04  0.624E-03    0.49       1.0  T
   3   -975.4749601 -0.510604E-05  0.354E-03    0.49       1.2  T
   4   -975.4749598  0.309833E-06  0.344E-03    0.49       1.2  T
   5   -975.4749808 -0.209413E-04  0.646E-04    0.49       6.5  T
   6   -975.4749810 -0.232505E-06  0.335E-04    0.49      12.6  T
   7   -975.4749812 -0.224723E-06  0.118E-04    0.49      35.7  T
   8   -975.4749812 -0.193784E-07  0.584E-05    0.49      72.3  T
     SCC iter.                  ...        0 min, 16.737 sec
     gradient                   ...        0 min,  1.785 sec
 * total energy  :  -960.6328223 Eh     change       -0.2641926E-01 Eh
   gradient norm :     0.0727864 Eh/a0  converged?    E=F G=F D=F
   step length   :     8.4422455 a0

........................................................................
.............................. CYCLE   14 ..............................
........................................................................
   1   -975.5606060 -0.975561E+03  0.873E-03    0.50       0.0  T
   2   -975.5606235 -0.175567E-04  0.618E-03    0.50       1.0  T
   3   -975.5606352 -0.116818E-04  0.322E-03    0.50       1.3  T
   4   -975.5606288  0.645071E-05  0.331E-03    0.50       1.3  T
   5   -975.5606489 -0.201122E-04  0.683E-04    0.50       6.2  T
   6   -975.5606493 -0.369286E-06  0.304E-04    0.50      13.9  T
   7   -975.5606494 -0.181984E-06  0.109E-04    0.50      38.6  T
   8   -975.5606495 -0.170597E-07  0.536E-05    0.50      78.9  T
     SCC iter.                  ...        0 min, 17.036 sec
     gradient                   ...        0 min,  1.789 sec
 * total energy  :  -960.6552283 Eh     change       -0.2240595E-01 Eh
   gradient norm :     0.0618875 Eh/a0  converged?    E=F G=F D=F
   step length   :     7.8433693 a0

........................................................................
.............................. CYCLE   15 ..............................
........................................................................
   1   -975.6394297 -0.975639E+03  0.992E-03    0.52       0.0  T
   2   -975.6394577 -0.279481E-04  0.786E-03    0.52       1.0  T
   3   -975.6394852 -0.275429E-04  0.343E-03    0.52       1.2  T
   4   -975.6394656  0.196040E-04  0.368E-03    0.52       1.1  T
   5   -975.6394888 -0.232163E-04  0.928E-04    0.52       4.6  T
   6   -975.6394901 -0.126395E-05  0.314E-04    0.52      13.5  T
   7   -975.6394903 -0.212652E-06  0.116E-04    0.52      36.6  T
   8   -975.6394903 -0.191696E-07  0.495E-05    0.52      85.3  T
     SCC iter.                  ...        0 min, 16.879 sec
     gradient                   ...        0 min,  1.782 sec
 * total energy  :  -960.6739318 Eh     change       -0.1870355E-01 Eh
   gradient norm :     0.0543806 Eh/a0  converged?    E=F G=F D=F
   step length   :     8.2879704 a0

........................................................................
.............................. CYCLE   16 ..............................
........................................................................
   1   -975.7117967 -0.975712E+03  0.889E-03    0.53       0.0  T
   2   -975.7118187 -0.220735E-04  0.678E-03    0.53       1.0  T
   3   -975.7118388 -0.200099E-04  0.301E-03    0.53       1.4  T
   4   -975.7118246  0.141248E-04  0.327E-03    0.53       1.3  T
   5   -975.7118433 -0.186854E-04  0.806E-04    0.53       5.2  T
   6   -975.7118442 -0.911532E-06  0.279E-04    0.53      15.2  T
   7   -975.7118444 -0.158346E-06  0.105E-04    0.53      40.2  T
   8   -975.7118444 -0.154399E-07  0.481E-05    0.53      87.8  T
     SCC iter.                  ...        0 min, 15.175 sec
     gradient                   ...        0 min,  1.766 sec
 * total energy  :  -960.6901986 Eh     change       -0.1626675E-01 Eh
   gradient norm :     0.0408307 Eh/a0  converged?    E=F G=F D=F
   step length   :     9.2002580 a0

........................................................................
.............................. CYCLE   17 ..............................
........................................................................
   1   -975.7796988 -0.975780E+03  0.664E-03    0.54       0.0  T
   2   -975.7797117 -0.128656E-04  0.429E-03    0.54       1.0  T
   3   -975.7797156 -0.388815E-05  0.236E-03    0.54       1.8  T
   4   -975.7797134  0.211948E-05  0.222E-03    0.54       1.9  T
   5   -975.7797227 -0.928041E-05  0.470E-04    0.54       9.0  T
   6   -975.7797230 -0.232356E-06  0.210E-04    0.54      20.1  T
   7   -975.7797230 -0.833802E-07  0.812E-05    0.54      52.1  T
   8   -975.7797230 -0.905311E-08  0.399E-05    0.54     106.0  T
     SCC iter.                  ...        0 min, 15.085 sec
     gradient                   ...        0 min,  1.763 sec
 * total energy  :  -960.7034814 Eh     change       -0.1328282E-01 Eh
   gradient norm :     0.0341762 Eh/a0  converged?    E=F G=F D=F
   step length   :     6.1878050 a0

........................................................................
.............................. CYCLE   18 ..............................
........................................................................
   1   -975.8420090 -0.975842E+03  0.582E-03    0.55       0.0  T
   2   -975.8420198 -0.107550E-04  0.363E-03    0.55       1.2  T
   3   -975.8420220 -0.226053E-05  0.202E-03    0.55       2.1  T
   4   -975.8420203  0.169545E-05  0.184E-03    0.55       2.3  T
   5   -975.8420267 -0.634357E-05  0.413E-04    0.55      10.2  T
   6   -975.8420269 -0.242768E-06  0.170E-04    0.55      24.8  T
   7   -975.8420270 -0.501705E-07  0.674E-05    0.55      62.7  T
     SCC iter.                  ...        0 min, 13.278 sec
     gradient                   ...        0 min,  1.769 sec
 * total energy  :  -960.7144332 Eh     change       -0.1095182E-01 Eh
   gradient norm :     0.0306953 Eh/a0  converged?    E=F G=F D=F
   step length   :     5.4343651 a0

........................................................................
.............................. CYCLE   19 ..............................
........................................................................
   1   -975.8963590 -0.975896E+03  0.525E-03    0.56       0.0  T
   2   -975.8963681 -0.909780E-05  0.330E-03    0.56       1.3  T
   3   -975.8963703 -0.220603E-05  0.179E-03    0.56       2.4  T
   4   -975.8963687  0.162428E-05  0.162E-03    0.56       2.6  T
   5   -975.8963734 -0.472491E-05  0.393E-04    0.56      10.8  T
   6   -975.8963737 -0.258677E-06  0.153E-04    0.56      27.6  T
   7   -975.8963737 -0.414527E-07  0.585E-05    0.56      72.2  T
     SCC iter.                  ...        0 min, 13.253 sec
     gradient                   ...        0 min,  1.776 sec
 * total energy  :  -960.7234001 Eh     change       -0.8966861E-02 Eh
   gradient norm :     0.0313311 Eh/a0  converged?    E=F G=F D=F
   step length   :     5.8903385 a0

........................................................................
.............................. CYCLE   20 ..............................
........................................................................
   1   -975.9438943 -0.975944E+03  0.460E-03    0.56       0.0  T
   2   -975.9439019 -0.752134E-05  0.281E-03    0.56       1.5  T
   3   -975.9439040 -0.215586E-05  0.153E-03    0.56       2.8  T
   4   -975.9439031  0.936040E-06  0.130E-03    0.56       3.2  T
   5   -975.9439060 -0.288731E-05  0.346E-04    0.56      12.2  T
   6   -975.9439062 -0.197698E-06  0.143E-04    0.56      29.6  T
   7   -975.9439062 -0.398462E-07  0.506E-05    0.56      83.4  T
     SCC iter.                  ...        0 min, 13.313 sec
     gradient                   ...        0 min,  1.787 sec
 * total energy  :  -960.7311711 Eh     change       -0.7770995E-02 Eh
   gradient norm :     0.0325586 Eh/a0  converged?    E=F G=F D=F
   step length   :     7.2705984 a0
 * RMSD in coord.:     0.7494689 a0     energy gain  -0.1290109E+01 Eh
 * calculating model hessian...
Using Lindh-Hessian (1995)
 Shifting diagonal of input Hessian by    1.0001236948719452E-002
 Lowest  eigenvalues of input Hessian
    0.010000    0.010001    0.010001    0.010001    0.010001    0.010001
    0.010001    0.000000    0.000000    0.000000    0.000000    0.000000
    0.000000    0.010002    0.010003    0.010004    0.010006    0.010007
 Highest eigenvalues
    2.573433    2.582682    2.582731    2.590952    2.590963    2.592342


........................................................................
.............................. CYCLE   21 ..............................
........................................................................
   1   -975.9875222 -0.975988E+03  0.544E-03    0.55       0.0  T
   2   -975.9875277 -0.544387E-05  0.261E-03    0.55       1.6  T
   3   -975.9875259  0.172903E-05  0.189E-03    0.55       2.2  T
   4   -975.9875276 -0.165683E-05  0.101E-03    0.55       4.2  T
   5   -975.9875292 -0.156632E-05  0.384E-04    0.55      11.0  T
   6   -975.9875295 -0.342726E-06  0.148E-04    0.55      28.6  T
   7   -975.9875296 -0.475347E-07  0.445E-05    0.55      94.9  T
     SCC iter.                  ...        0 min, 13.262 sec
     gradient                   ...        0 min,  1.769 sec
 * total energy  :  -960.7360569 Eh     change       -0.4885811E-02 Eh
   gradient norm :     0.0165824 Eh/a0  converged?    E=F G=F D=F
   step length   :     0.4822738 a0

........................................................................
.............................. CYCLE   22 ..............................
........................................................................
   1   -976.0231648 -0.976023E+03  0.498E-03    0.55       0.0  T
   2   -976.0231720 -0.716131E-05  0.230E-03    0.55       1.8  T
   3   -976.0231716  0.389333E-06  0.165E-03    0.55       2.6  T
   4   -976.0231727 -0.112593E-05  0.101E-03    0.55       4.2  T
   5   -976.0231742 -0.147739E-05  0.391E-04    0.55      10.8  T
   6   -976.0231745 -0.307620E-06  0.160E-04    0.55      26.3  T
   7   -976.0231746 -0.546125E-07  0.457E-05    0.55      92.5  T
     SCC iter.                  ...        0 min, 13.355 sec
     gradient                   ...        0 min,  1.829 sec
 * total energy  :  -960.7435204 Eh     change       -0.7463471E-02 Eh
   gradient norm :     0.0106877 Eh/a0  converged?    E=F G=F D=F
   step length   :     2.7531228 a0

........................................................................
.............................. CYCLE   23 ..............................
........................................................................
   1   -976.0364319 -0.976036E+03  0.224E-03    0.54       0.0  T
   2   -976.0364339 -0.207126E-05  0.111E-03    0.54       3.8  T
   3   -976.0364342 -0.240976E-06  0.678E-04    0.54       6.2  T
   4   -976.0364342 -0.159189E-07  0.509E-04    0.54       8.3  T
   5   -976.0364346 -0.431060E-06  0.189E-04    0.54      22.4  T
   6   -976.0364347 -0.576173E-07  0.833E-05    0.54      50.7  T
     SCC iter.                  ...        0 min, 11.752 sec
     gradient                   ...        0 min,  1.785 sec
 * total energy  :  -960.7499372 Eh     change       -0.6416817E-02 Eh
   gradient norm :     0.0158880 Eh/a0  converged?    E=F G=F D=F
   step length   :     5.3787246 a0

........................................................................
.............................. CYCLE   24 ..............................
........................................................................
   1   -976.0405752 -0.976041E+03  0.144E-03    0.54       0.0  T
   2   -976.0405758 -0.621670E-06  0.802E-04    0.54       5.3  T
   3   -976.0405758  0.527621E-08  0.480E-04    0.54       8.8  T
   4   -976.0405757  0.161061E-06  0.406E-04    0.54      10.4  T
   5   -976.0405760 -0.345724E-06  0.118E-04    0.54      35.8  T
   6   -976.0405760 -0.248958E-07  0.467E-05    0.54      90.4  T
     SCC iter.                  ...        0 min, 12.009 sec
     gradient                   ...        0 min,  1.801 sec
 * total energy  :  -960.7557414 Eh     change       -0.5804181E-02 Eh
   gradient norm :     0.0182844 Eh/a0  converged?    E=F G=F D=F
   step length   :     8.0366300 a0

........................................................................
.............................. CYCLE   25 ..............................
........................................................................
   1   -976.0411112 -0.976041E+03  0.151E-03    0.54       0.0  T
   2   -976.0411116 -0.420925E-06  0.816E-04    0.54       5.2  T
   3   -976.0411115  0.108869E-06  0.505E-04    0.54       8.4  T
   4   -976.0411114  0.624929E-07  0.367E-04    0.54      11.5  T
   5   -976.0411117 -0.282009E-06  0.851E-05    0.54      49.6  T
   6   -976.0411117 -0.111014E-07  0.414E-05    0.54     102.0  T
     SCC iter.                  ...        0 min, 11.974 sec
     gradient                   ...        0 min,  1.788 sec
 * total energy  :  -960.7609720 Eh     change       -0.5230613E-02 Eh
   gradient norm :     0.0183799 Eh/a0  converged?    E=F G=F D=F
   step length   :     8.6751177 a0

........................................................................
.............................. CYCLE   26 ..............................
........................................................................
   1   -976.0407483 -0.976041E+03  0.165E-03    0.55       0.0  T
   2   -976.0407489 -0.557221E-06  0.862E-04    0.55       4.9  T
   3   -976.0407488  0.124525E-06  0.574E-04    0.55       7.4  T
   4   -976.0407488 -0.418183E-07  0.386E-04    0.55      11.0  T
   5   -976.0407491 -0.275307E-06  0.838E-05    0.55      50.4  T
   6   -976.0407491 -0.962575E-08  0.414E-05    0.55     102.2  T
     SCC iter.                  ...        0 min, 12.164 sec
     gradient                   ...        0 min,  1.879 sec
 * total energy  :  -960.7656420 Eh     change       -0.4670037E-02 Eh
   gradient norm :     0.0173768 Eh/a0  converged?    E=F G=F D=F
   step length   :     8.1520794 a0

........................................................................
.............................. CYCLE   27 ..............................
........................................................................
   1   -976.0407536 -0.976041E+03  0.169E-03    0.55       0.0  T
   2   -976.0407543 -0.708803E-06  0.887E-04    0.55       4.8  T
   3   -976.0407542  0.730067E-07  0.599E-04    0.55       7.1  T
   4   -976.0407543 -0.767301E-07  0.418E-04    0.55      10.1  T
   5   -976.0407546 -0.302288E-06  0.856E-05    0.55      49.3  T
   6   -976.0407546 -0.829414E-08  0.462E-05    0.55      91.5  T
     SCC iter.                  ...        0 min, 11.797 sec
     gradient                   ...        0 min,  1.845 sec
 * total energy  :  -960.7697868 Eh     change       -0.4144782E-02 Eh
   gradient norm :     0.0159888 Eh/a0  converged?    E=F G=F D=F
   step length   :     7.4107395 a0

........................................................................
.............................. CYCLE   28 ..............................
........................................................................
   1   -976.0418687 -0.976042E+03  0.166E-03    0.55       0.0  T
   2   -976.0418695 -0.801705E-06  0.892E-04    0.55       4.7  T
   3   -976.0418695 -0.208998E-07  0.584E-04    0.55       7.2  T
   4   -976.0418696 -0.681541E-07  0.434E-04    0.55       9.7  T
   5   -976.0418699 -0.315147E-06  0.874E-05    0.55      48.4  T
   6   -976.0418699 -0.627517E-08  0.530E-05    0.55      79.7  T
     SCC iter.                  ...        0 min, 17.447 sec
     gradient                   ...        0 min,  1.872 sec
 * total energy  :  -960.7734600 Eh     change       -0.3673244E-02 Eh
   gradient norm :     0.0145935 Eh/a0  converged?    E=F G=F D=F
   step length   :     6.7799395 a0

........................................................................
.............................. CYCLE   29 ..............................
........................................................................
   1   -976.0444133 -0.976044E+03  0.162E-03    0.55       0.0  T
   2   -976.0444141 -0.832515E-06  0.893E-04    0.55       4.7  T
   3   -976.0444142 -0.111626E-06  0.560E-04    0.55       7.5  T
   4   -976.0444143 -0.523033E-07  0.438E-04    0.55       9.6  T
   5   -976.0444146 -0.313408E-06  0.884E-05    0.55      47.8  T
   6   -976.0444146 -0.481259E-08  0.577E-05    0.55      73.2  T
     SCC iter.                  ...        0 min, 11.516 sec
     gradient                   ...        0 min,  1.908 sec
 * total energy  :  -960.7767196 Eh     change       -0.3259584E-02 Eh
   gradient norm :     0.0132925 Eh/a0  converged?    E=F G=F D=F
   step length   :     6.3007854 a0

........................................................................
.............................. CYCLE   30 ..............................
........................................................................
   1   -976.0484661 -0.976048E+03  0.157E-03    0.55       0.0  T
   2   -976.0484669 -0.816506E-06  0.895E-04    0.55       4.7  T
   3   -976.0484671 -0.177748E-06  0.544E-04    0.55       7.8  T
   4   -976.0484671 -0.454980E-07  0.438E-04    0.55       9.7  T
   5   -976.0484674 -0.306526E-06  0.893E-05    0.55      47.3  T
   6   -976.0484674 -0.460295E-08  0.599E-05    0.55      70.5  T
     SCC iter.                  ...        0 min, 11.531 sec
     gradient                   ...        0 min,  1.773 sec
 * total energy  :  -960.7796185 Eh     change       -0.2898834E-02 Eh
   gradient norm :     0.0120740 Eh/a0  converged?    E=F G=F D=F
   step length   :     5.9459304 a0

........................................................................
.............................. CYCLE   31 ..............................
........................................................................
   1   -976.0538729 -0.976054E+03  0.154E-03    0.55       0.0  T
   2   -976.0538737 -0.772092E-06  0.900E-04    0.55       4.7  T
   3   -976.0538739 -0.213762E-06  0.541E-04    0.55       7.8  T
   4   -976.0538740 -0.509876E-07  0.436E-04    0.55       9.7  T
   5   -976.0538743 -0.299468E-06  0.909E-05    0.55      46.5  T
   6   -976.0538743 -0.569833E-08  0.602E-05    0.55      70.2  T
     SCC iter.                  ...        0 min, 11.686 sec
     gradient                   ...        0 min,  1.782 sec
 * total energy  :  -960.7821997 Eh     change       -0.2581223E-02 Eh
   gradient norm :     0.0108966 Eh/a0  converged?    E=F G=F D=F
   step length   :     5.6678219 a0

........................................................................
.............................. CYCLE   32 ..............................
........................................................................
   1   -976.0603676 -0.976060E+03  0.152E-03    0.55       0.0  T
   2   -976.0603684 -0.712810E-06  0.902E-04    0.55       4.7  T
   3   -976.0603686 -0.226132E-06  0.544E-04    0.55       7.8  T
   4   -976.0603686 -0.671346E-07  0.431E-04    0.55       9.8  T
   5   -976.0603689 -0.289831E-06  0.931E-05    0.55      45.4  T
   6   -976.0603689 -0.766306E-08  0.592E-05    0.55      71.4  T
     SCC iter.                  ...        0 min, 11.492 sec
     gradient                   ...        0 min,  1.778 sec
 * total energy  :  -960.7844975 Eh     change       -0.2297867E-02 Eh
   gradient norm :     0.0097594 Eh/a0  converged?    E=F G=F D=F
   step length   :     5.4283131 a0

........................................................................
.............................. CYCLE   33 ..............................
........................................................................
   1   -976.0676282 -0.976068E+03  0.150E-03    0.55       0.0  T
   2   -976.0676289 -0.647166E-06  0.898E-04    0.56       4.7  T
   3   -976.0676291 -0.224677E-06  0.547E-04    0.56       7.7  T
   4   -976.0676292 -0.881977E-07  0.422E-04    0.56      10.0  T
   5   -976.0676295 -0.274232E-06  0.958E-05    0.56      44.1  T
   6   -976.0676295 -0.100351E-07  0.572E-05    0.56      73.8  T
     SCC iter.                  ...        0 min, 11.543 sec
     gradient                   ...        0 min,  1.891 sec
 * total energy  :  -960.7865403 Eh     change       -0.2042724E-02 Eh
   gradient norm :     0.0087036 Eh/a0  converged?    E=F G=F D=F
   step length   :     5.2036032 a0

........................................................................
.............................. CYCLE   34 ..............................
........................................................................
   1   -976.0753717 -0.976075E+03  0.146E-03    0.56       0.0  T
   2   -976.0753723 -0.579830E-06  0.886E-04    0.56       4.8  T
   3   -976.0753725 -0.218827E-06  0.544E-04    0.56       7.8  T
   4   -976.0753726 -0.106317E-06  0.408E-04    0.56      10.4  T
   5   -976.0753728 -0.252498E-06  0.985E-05    0.56      42.9  T
   6   -976.0753728 -0.124702E-07  0.548E-05    0.56      77.1  T
     SCC iter.                  ...        0 min, 11.773 sec
     gradient                   ...        0 min,  1.793 sec
 * total energy  :  -960.7883537 Eh     change       -0.1813454E-02 Eh
   gradient norm :     0.0078015 Eh/a0  converged?    E=F G=F D=F
   step length   :     4.9849792 a0

........................................................................
.............................. CYCLE   35 ..............................
........................................................................
   1   -976.0833742 -0.976083E+03  0.141E-03    0.56       0.0  T
   2   -976.0833747 -0.513868E-06  0.865E-04    0.56       4.9  T
   3   -976.0833749 -0.213809E-06  0.533E-04    0.56       7.9  T
   4   -976.0833750 -0.115135E-06  0.390E-04    0.56      10.8  T
   5   -976.0833752 -0.226539E-06  0.101E-04    0.56      41.9  T
   6   -976.0833753 -0.146673E-07  0.521E-05    0.56      81.1  T
     SCC iter.                  ...        0 min, 11.801 sec
     gradient                   ...        0 min,  1.791 sec
 * total energy  :  -960.7899638 Eh     change       -0.1610069E-02 Eh
   gradient norm :     0.0071284 Eh/a0  converged?    E=F G=F D=F
   step length   :     4.7753394 a0

........................................................................
.............................. CYCLE   36 ..............................
........................................................................
   1   -976.0914896 -0.976091E+03  0.135E-03    0.56       0.0  T
   2   -976.0914901 -0.452150E-06  0.836E-04    0.56       5.1  T
   3   -976.0914903 -0.210708E-06  0.514E-04    0.56       8.2  T
   4   -976.0914904 -0.112274E-06  0.369E-04    0.56      11.5  T
   5   -976.0914906 -0.199336E-06  0.103E-04    0.56      41.1  T
   6   -976.0914906 -0.164958E-07  0.492E-05    0.56      85.8  T
     SCC iter.                  ...        0 min, 11.544 sec
     gradient                   ...        0 min,  1.905 sec
 * total energy  :  -960.7913978 Eh     change       -0.1433984E-02 Eh
   gradient norm :     0.0067375 Eh/a0  converged?    E=F G=F D=F
   step length   :     4.5876864 a0

........................................................................
.............................. CYCLE   37 ..............................
........................................................................
   1   -976.0996181 -0.976100E+03  0.128E-03    0.56       0.0  T
   2   -976.0996185 -0.396897E-06  0.801E-04    0.56       5.3  T
   3   -976.0996187 -0.207534E-06  0.488E-04    0.56       8.7  T
   4   -976.0996188 -0.992444E-07  0.347E-04    0.56      12.2  T
   5   -976.0996189 -0.172916E-06  0.104E-04    0.56      40.7  T
   6   -976.0996190 -0.178846E-07  0.462E-05    0.56      91.5  T
     SCC iter.                  ...        0 min, 11.559 sec
     gradient                   ...        0 min,  1.807 sec
 * total energy  :  -960.7926845 Eh     change       -0.1286700E-02 Eh
   gradient norm :     0.0066306 Eh/a0  converged?    E=F G=F D=F
   step length   :     4.4425332 a0

........................................................................
.............................. CYCLE   38 ..............................
........................................................................
   1   -976.1076978 -0.976108E+03  0.120E-03    0.56       0.0  T
   2   -976.1076981 -0.349836E-06  0.762E-04    0.56       5.5  T
   3   -976.1076983 -0.200861E-06  0.459E-04    0.56       9.2  T
   4   -976.1076984 -0.801531E-07  0.326E-04    0.56      13.0  T
   5   -976.1076985 -0.148988E-06  0.104E-04    0.56      40.7  T
   6   -976.1076986 -0.186808E-07  0.431E-05    0.56      98.2  T
     SCC iter.                  ...        0 min, 11.620 sec
     gradient                   ...        0 min,  1.805 sec
 * total energy  :  -960.7938538 Eh     change       -0.1169364E-02 Eh
   gradient norm :     0.0067572 Eh/a0  converged?    E=F G=F D=F
   step length   :     4.3586239 a0

........................................................................
.............................. CYCLE   39 ..............................
........................................................................
   1   -976.1156723 -0.976116E+03  0.112E-03    0.56       0.0  T
   2   -976.1156726 -0.311821E-06  0.718E-04    0.56       5.9  T
   3   -976.1156728 -0.187694E-06  0.427E-04    0.56       9.9  T
   4   -976.1156728 -0.600103E-07  0.305E-04    0.56      13.8  T
   5   -976.1156730 -0.128165E-06  0.102E-04    0.56      41.3  T
   6   -976.1156730 -0.187546E-07  0.400E-05    0.56     105.8  T
     SCC iter.                  ...        0 min, 11.605 sec
     gradient                   ...        0 min,  1.799 sec
 * total energy  :  -960.7949354 Eh     change       -0.1081599E-02 Eh
   gradient norm :     0.0070368 Eh/a0  converged?    E=F G=F D=F
   step length   :     4.3627967 a0

........................................................................
.............................. CYCLE   40 ..............................
........................................................................
   1   -976.1234955 -0.976123E+03  0.105E-03    0.56       0.0  T
   2   -976.1234957 -0.282058E-06  0.672E-04    0.56       6.3  T
   3   -976.1234959 -0.167137E-06  0.396E-04    0.56      10.7  T
   4   -976.1234960 -0.422018E-07  0.286E-04    0.56      14.8  T
   5   -976.1234961 -0.111032E-06  0.994E-05    0.56      42.5  T
   6   -976.1234961 -0.179250E-07  0.371E-05    0.56     114.0  T
     SCC iter.                  ...        0 min, 16.976 sec
     gradient                   ...        0 min,  1.796 sec
 * total energy  :  -960.7959569 Eh     change       -0.1021419E-02 Eh
   gradient norm :     0.0073882 Eh/a0  converged?    E=F G=F D=F
   step length   :     4.4691074 a0

........................................................................
.............................. CYCLE   41 ..............................
........................................................................
   1   -976.1311171 -0.976131E+03  0.989E-04    0.56       0.0  T
   2   -976.1311174 -0.259193E-06  0.626E-04    0.56       6.7  T
   3   -976.1311175 -0.140738E-06  0.367E-04    0.56      11.5  T
   4   -976.1311176 -0.285460E-07  0.269E-04    0.56      15.7  T
   5   -976.1311177 -0.974418E-07  0.947E-05    0.56      44.6  T
   6   -976.1311177 -0.163307E-07  0.346E-05    0.56     122.3  T
     SCC iter.                  ...        0 min, 11.771 sec
     gradient                   ...        0 min,  1.958 sec
 * total energy  :  -960.7969418 Eh     change       -0.9849626E-03 Eh
   gradient norm :     0.0077492 Eh/a0  converged?    E=F G=F D=F
   step length   :     4.6888433 a0

........................................................................
.............................. CYCLE   42 ..............................
........................................................................
   1   -976.1732038 -0.976173E+03  0.339E-03    0.56       0.0  T
   2   -976.1732059 -0.207757E-05  0.177E-03    0.56       2.4  T
   3   -976.1732058  0.429213E-07  0.105E-03    0.56       4.0  T
   4   -976.1732051  0.772287E-06  0.731E-04    0.56       5.8  T
   5   -976.1732062 -0.118667E-05  0.169E-04    0.56      25.1  T
   6   -976.1732063 -0.665367E-07  0.589E-05    0.56      71.8  T
   7   -976.1732063 -0.754346E-08  0.215E-05    0.56     196.7  T
     SCC iter.                  ...        0 min, 13.912 sec
     gradient                   ...        0 min,  1.803 sec
 * total energy  :  -960.7986405 Eh     change       -0.1698671E-02 Eh
   gradient norm :     0.0127329 Eh/a0  converged?    E=F G=F D=F
   step length   :     5.5350713 a0
 * RMSD in coord.:     0.8488536 a0     energy gain  -0.6746941E-01 Eh
 * calculating model hessian...
Using Lindh-Hessian (1995)
 Shifting diagonal of input Hessian by    1.0011308961802570E-002
 Lowest  eigenvalues of input Hessian
    0.010000    0.010001    0.010004    0.010006    0.010007    0.010008
    0.010008    0.010008    0.010009    0.010010    0.010010    0.010010
    0.010011    0.010011    0.000000    0.000000    0.000000    0.000000
 Highest eigenvalues
    2.586162    2.586389    2.595898    2.596722    2.618354    2.618498


........................................................................
.............................. CYCLE   43 ..............................
........................................................................
   1   -976.1427103 -0.976143E+03  0.307E-03    0.56       0.0  T
   2   -976.1427113 -0.100118E-05  0.160E-03    0.56       2.6  T
   3   -976.1427110  0.291800E-06  0.828E-04    0.56       5.1  T
   4   -976.1427108  0.251715E-06  0.535E-04    0.56       7.9  T
   5   -976.1427114 -0.637952E-06  0.114E-04    0.56      37.0  T
   6   -976.1427114 -0.301942E-07  0.423E-05    0.56     100.0  T
     SCC iter.                  ...        0 min, 12.129 sec
     gradient                   ...        0 min,  1.815 sec
 * total energy  :  -960.7993866 Eh     change       -0.7461113E-03 Eh
   gradient norm :     0.0043884 Eh/a0  converged?    E=F G=F D=F
   step length   :     0.2023806 a0

........................................................................
.............................. CYCLE   44 ..............................
........................................................................
   1   -976.1034478 -0.976103E+03  0.440E-03    0.56       0.0  T
   2   -976.1034505 -0.271915E-05  0.221E-03    0.56       1.9  T
   3   -976.1034493  0.115855E-05  0.143E-03    0.56       3.0  T
   4   -976.1034499 -0.556169E-06  0.838E-04    0.56       5.0  T
   5   -976.1034511 -0.120207E-05  0.251E-04    0.56      16.8  T
   6   -976.1034512 -0.151588E-06  0.737E-05    0.56      57.3  T
   7   -976.1034512 -0.105966E-07  0.260E-05    0.56     162.6  T
     SCC iter.                  ...        0 min, 14.057 sec
     gradient                   ...        0 min,  1.949 sec
 * total energy  :  -960.8004816 Eh     change       -0.1094977E-02 Eh
   gradient norm :     0.0103309 Eh/a0  converged?    E=F G=F D=F
   step length   :     0.6178159 a0

........................................................................
.............................. CYCLE   45 ..............................
........................................................................
   1   -976.0847019 -0.976085E+03  0.288E-03    0.56       0.0  T
   2   -976.0847035 -0.165030E-05  0.148E-03    0.56       2.9  T
   3   -976.0847033  0.200071E-06  0.108E-03    0.56       3.9  T
   4   -976.0847044 -0.103385E-05  0.563E-04    0.56       7.5  T
   5   -976.0847047 -0.296770E-06  0.231E-04    0.56      18.3  T
   6   -976.0847048 -0.118092E-06  0.645E-05    0.56      65.5  T
   7   -976.0847048 -0.753391E-08  0.254E-05    0.56     166.4  T
     SCC iter.                  ...        0 min, 13.879 sec
     gradient                   ...        0 min,  1.795 sec
 * total energy  :  -960.8016494 Eh     change       -0.1167860E-02 Eh
   gradient norm :     0.0177660 Eh/a0  converged?    E=F G=F D=F
   step length   :     0.9265070 a0

........................................................................
.............................. CYCLE   46 ..............................
........................................................................
   1   -976.0849644 -0.976085E+03  0.150E-03    0.56       0.0  T
   2   -976.0849650 -0.537079E-06  0.976E-04    0.56       4.3  T
   3   -976.0849657 -0.731531E-06  0.522E-04    0.56       8.1  T
   4   -976.0849659 -0.174682E-06  0.337E-04    0.56      12.6  T
   5   -976.0849660 -0.119462E-06  0.134E-04    0.56      31.6  T
   6   -976.0849660 -0.290592E-07  0.429E-05    0.56      98.6  T
     SCC iter.                  ...        0 min, 12.002 sec
     gradient                   ...        0 min,  1.820 sec
 * total energy  :  -960.8028887 Eh     change       -0.1239265E-02 Eh
   gradient norm :     0.0198334 Eh/a0  converged?    E=F G=F D=F
   step length   :     1.7652756 a0

........................................................................
.............................. CYCLE   47 ..............................
........................................................................
   1   -976.0981855 -0.976098E+03  0.142E-03    0.56       0.0  T
   2   -976.0981857 -0.205472E-06  0.101E-03    0.56       4.2  T
   3   -976.0981861 -0.389027E-06  0.606E-04    0.56       7.0  T
   4   -976.0981862 -0.120496E-06  0.346E-04    0.56      12.2  T
   5   -976.0981864 -0.184855E-06  0.123E-04    0.56      34.3  T
   6   -976.0981864 -0.316489E-07  0.308E-05    0.56     137.2  T
     SCC iter.                  ...        0 min, 14.468 sec
     gradient                   ...        0 min,  1.957 sec
 * total energy  :  -960.8041591 Eh     change       -0.1270439E-02 Eh
   gradient norm :     0.0181810 Eh/a0  converged?    E=F G=F D=F
   step length   :     2.7127019 a0

........................................................................
.............................. CYCLE   48 ..............................
........................................................................
   1   -976.1179163 -0.976118E+03  0.182E-03    0.56       0.0  T
   2   -976.1179165 -0.230652E-06  0.113E-03    0.56       3.8  T
   3   -976.1179161  0.377699E-06  0.789E-04    0.56       5.4  T
   4   -976.1179167 -0.568438E-06  0.379E-04    0.56      11.2  T
   5   -976.1179169 -0.240021E-06  0.124E-04    0.56      34.1  T
   6   -976.1179170 -0.323070E-07  0.295E-05    0.56     143.0  T
     SCC iter.                  ...        0 min, 11.800 sec
     gradient                   ...        0 min,  1.979 sec
 * total energy  :  -960.8053694 Eh     change       -0.1210248E-02 Eh
   gradient norm :     0.0145698 Eh/a0  converged?    E=F G=F D=F
   step length   :     3.1898619 a0

........................................................................
.............................. CYCLE   49 ..............................
........................................................................
   1   -976.1390869 -0.976139E+03  0.194E-03    0.56       0.0  T
   2   -976.1390872 -0.299505E-06  0.112E-03    0.56       3.8  T
   3   -976.1390866  0.566316E-06  0.776E-04    0.56       5.4  T
   4   -976.1390871 -0.535429E-06  0.406E-04    0.56      10.4  T
   5   -976.1390874 -0.305299E-06  0.102E-04    0.56      41.6  T
   6   -976.1390874 -0.205606E-07  0.338E-05    0.56     125.0  T
     SCC iter.                  ...        0 min, 11.953 sec
     gradient                   ...        0 min,  1.797 sec
 * total energy  :  -960.8064256 Eh     change       -0.1056203E-02 Eh
   gradient norm :     0.0105129 Eh/a0  converged?    E=F G=F D=F
   step length   :     3.3911551 a0

........................................................................
.............................. CYCLE   50 ..............................
........................................................................
   1   -976.1584015 -0.976158E+03  0.179E-03    0.56       0.0  T
   2   -976.1584018 -0.291382E-06  0.100E-03    0.56       4.2  T
   3   -976.1584013  0.437737E-06  0.682E-04    0.56       6.2  T
   4   -976.1584017 -0.340897E-06  0.386E-04    0.56      10.9  T
   5   -976.1584020 -0.290187E-06  0.768E-05    0.56      55.0  T
   6   -976.1584020 -0.103661E-07  0.360E-05    0.56     117.3  T
     SCC iter.                  ...        0 min, 12.001 sec
     gradient                   ...        0 min,  1.800 sec
 * total energy  :  -960.8073137 Eh     change       -0.8881518E-03 Eh
   gradient norm :     0.0071359 Eh/a0  converged?    E=F G=F D=F
   step length   :     3.5311358 a0

........................................................................
.............................. CYCLE   51 ..............................
........................................................................
   1   -976.1747444 -0.976175E+03  0.153E-03    0.56       0.0  T
   2   -976.1747446 -0.242114E-06  0.854E-04    0.56       4.9  T
   3   -976.1747443  0.296721E-06  0.584E-04    0.56       7.2  T
   4   -976.1747445 -0.217472E-06  0.342E-04    0.56      12.3  T
   5   -976.1747448 -0.229484E-06  0.670E-05    0.56      63.1  T
   6   -976.1747448 -0.758632E-08  0.341E-05    0.56     123.8  T
     SCC iter.                  ...        0 min, 11.850 sec
     gradient                   ...        0 min,  1.793 sec
 * total energy  :  -960.8080711 Eh     change       -0.7573756E-03 Eh
   gradient norm :     0.0051672 Eh/a0  converged?    E=F G=F D=F
   step length   :     3.6599342 a0

........................................................................
.............................. CYCLE   52 ..............................
........................................................................
   1   -976.1884440 -0.976188E+03  0.129E-03    0.56       0.0  T
   2   -976.1884442 -0.196850E-06  0.724E-04    0.56       5.8  T
   3   -976.1884440  0.176859E-06  0.498E-04    0.56       8.5  T
   4   -976.1884441 -0.133563E-06  0.297E-04    0.56      14.2  T
   5   -976.1884443 -0.168106E-06  0.674E-05    0.56      62.7  T
   6   -976.1884443 -0.850548E-08  0.289E-05    0.56     146.1  T
     SCC iter.                  ...        0 min, 11.426 sec
     gradient                   ...        0 min,  1.784 sec
 * total energy  :  -960.8087467 Eh     change       -0.6755971E-03 Eh
   gradient norm :     0.0048328 Eh/a0  converged?    E=F G=F D=F
   step length   :     3.9494103 a0

........................................................................
.............................. CYCLE   53 ..............................
........................................................................
   1   -976.1999434 -0.976200E+03  0.111E-03    0.56       0.0  T
   2   -976.1999436 -0.165583E-06  0.625E-04    0.56       6.8  T
   3   -976.1999435  0.941038E-07  0.431E-04    0.56       9.8  T
   4   -976.1999436 -0.855509E-07  0.260E-04    0.56      16.3  T
   5   -976.1999437 -0.121543E-06  0.721E-05    0.56      58.6  T
   6   -976.1999437 -0.106849E-07  0.239E-05    0.56     176.7  T
     SCC iter.                  ...        0 min, 11.487 sec
     gradient                   ...        0 min,  1.795 sec
 * total energy  :  -960.8093763 Eh     change       -0.6295747E-03 Eh
   gradient norm :     0.0055128 Eh/a0  converged?    E=F G=F D=F
   step length   :     4.4780550 a0

........................................................................
.............................. CYCLE   54 ..............................
........................................................................
   1   -976.2097813 -0.976210E+03  0.965E-04    0.56       0.0  T
   2   -976.2097815 -0.148295E-06  0.553E-04    0.56       7.6  T
   3   -976.2097814  0.368000E-07  0.375E-04    0.56      11.3  T
   4   -976.2097815 -0.462167E-07  0.232E-04    0.56      18.2  T
   5   -976.2097816 -0.918252E-07  0.749E-05    0.56      56.4  T
   6   -976.2097816 -0.121078E-07  0.209E-05    0.56     202.0  T
     SCC iter.                  ...        0 min, 11.473 sec
     gradient                   ...        0 min,  1.790 sec
 * total energy  :  -960.8099820 Eh     change       -0.6057131E-03 Eh
   gradient norm :     0.0064582 Eh/a0  converged?    E=F G=F D=F
   step length   :     5.2136563 a0

........................................................................
.............................. CYCLE   55 ..............................
........................................................................
   1   -976.2183341 -0.976218E+03  0.861E-04    0.56       0.0  T
   2   -976.2183342 -0.139153E-06  0.500E-04    0.56       8.5  T
   3   -976.2183342  0.109719E-08  0.332E-04    0.56      12.7  T
   4   -976.2183342 -0.238042E-07  0.210E-04    0.56      20.1  T
   5   -976.2183343 -0.705738E-07  0.756E-05    0.56      55.9  T
   6   -976.2183343 -0.127307E-07  0.193E-05    0.56     219.3  T
     SCC iter.                  ...        0 min, 11.493 sec
     gradient                   ...        0 min,  1.793 sec
 * total energy  :  -960.8105769 Eh     change       -0.5949004E-03 Eh
   gradient norm :     0.0073584 Eh/a0  converged?    E=F G=F D=F
   step length   :     6.0959918 a0

........................................................................
.............................. CYCLE   56 ..............................
........................................................................
   1   -976.2258792 -0.976226E+03  0.778E-04    0.56       0.0  T
   2   -976.2258793 -0.132323E-06  0.457E-04    0.55       9.2  T
   3   -976.2258793 -0.185612E-07  0.296E-04    0.56      14.3  T
   4   -976.2258793 -0.848377E-08  0.193E-04    0.55      21.9  T
   5   -976.2258794 -0.569354E-07  0.743E-05    0.55      56.8  T
     SCC iter.                  ...        0 min,  9.568 sec
     gradient                   ...        0 min,  1.791 sec
 * total energy  :  -960.8111689 Eh     change       -0.5919779E-03 Eh
   gradient norm :     0.0081286 Eh/a0  converged?    E=F G=F D=F
   step length   :     7.0382878 a0

........................................................................
.............................. CYCLE   57 ..............................
........................................................................
   1   -976.2326604 -0.976233E+03  0.717E-04    0.56       0.0  T
   2   -976.2326605 -0.128684E-06  0.426E-04    0.55       9.9  T
   3   -976.2326606 -0.324276E-07  0.267E-04    0.56      15.8  T
   4   -976.2326606 -0.435557E-08  0.173E-04    0.55      24.4  T
   5   -976.2326606 -0.393135E-07  0.673E-05    0.55      62.7  T
     SCC iter.                  ...        0 min,  9.592 sec
     gradient                   ...        0 min,  1.794 sec
 * total energy  :  -960.8117634 Eh     change       -0.5944745E-03 Eh
   gradient norm :     0.0087553 Eh/a0  converged?    E=F G=F D=F
   step length   :     7.9464241 a0

........................................................................
.............................. CYCLE   58 ..............................
........................................................................
   1   -976.2388110 -0.976239E+03  0.665E-04    0.56       0.0  T
   2   -976.2388111 -0.125315E-06  0.395E-04    0.56      10.7  T
   3   -976.2388111 -0.342040E-07  0.242E-04    0.56      17.4  T
   4   -976.2388111  0.233331E-08  0.160E-04    0.56      26.3  T
   5   -976.2388112 -0.324369E-07  0.637E-05    0.56      66.3  T
     SCC iter.                  ...        0 min,  9.588 sec
     gradient                   ...        0 min,  1.826 sec
 * total energy  :  -960.8123636 Eh     change       -0.6002542E-03 Eh
   gradient norm :     0.0092499 Eh/a0  converged?    E=F G=F D=F
   step length   :     8.8132511 a0

........................................................................
.............................. CYCLE   59 ..............................
........................................................................
   1   -976.2444602 -0.976244E+03  0.623E-04    0.56       0.0  T
   2   -976.2444603 -0.122271E-06  0.369E-04    0.56      11.4  T
   3   -976.2444604 -0.326062E-07  0.223E-04    0.56      19.0  T
   4   -976.2444604  0.540149E-08  0.149E-04    0.56      28.4  T
   5   -976.2444604 -0.268640E-07  0.588E-05    0.56      71.9  T
     SCC iter.                  ...        0 min,  9.658 sec
     gradient                   ...        0 min,  1.809 sec
 * total energy  :  -960.8129714 Eh     change       -0.6078326E-03 Eh
   gradient norm :     0.0096240 Eh/a0  converged?    E=F G=F D=F
   step length   :     9.6703633 a0

........................................................................
.............................. CYCLE   60 ..............................
........................................................................
   1   -976.2496941 -0.976250E+03  0.591E-04    0.56       0.0  T
   2   -976.2496942 -0.118638E-06  0.347E-04    0.56      12.2  T
   3   -976.2496942 -0.292763E-07  0.208E-04    0.56      20.4  T
   4   -976.2496942  0.718524E-08  0.139E-04    0.56      30.4  T
   5   -976.2496942 -0.231779E-07  0.544E-05    0.56      77.6  T
     SCC iter.                  ...        0 min,  9.616 sec
     gradient                   ...        0 min,  1.802 sec
 * total energy  :  -960.8135875 Eh     change       -0.6160667E-03 Eh
   gradient norm :     0.0098961 Eh/a0  converged?    E=F G=F D=F
   step length   :    10.4913457 a0

........................................................................
.............................. CYCLE   61 ..............................
........................................................................
   1   -976.2545711 -0.976255E+03  0.564E-04    0.56       0.0  T
   2   -976.2545712 -0.115456E-06  0.327E-04    0.56      12.9  T
   3   -976.2545712 -0.253895E-07  0.194E-04    0.56      21.8  T
   4   -976.2545712  0.723867E-08  0.128E-04    0.56      33.1  T
     SCC iter.                  ...        0 min,  7.820 sec
     gradient                   ...        0 min,  1.804 sec
 * total energy  :  -960.8142115 Eh     change       -0.6240023E-03 Eh
   gradient norm :     0.0100810 Eh/a0  converged?    E=F G=F D=F
   step length   :    11.2608578 a0

........................................................................
.............................. CYCLE   62 ..............................
........................................................................
   1   -976.2590789 -0.976259E+03  0.552E-04    0.56       0.0  T
   2   -976.2590790 -0.937349E-07  0.328E-04    0.56      12.9  T
   3   -976.2590790 -0.178189E-07  0.211E-04    0.56      20.0  T
   4   -976.2590790  0.129432E-08  0.153E-04    0.56      27.6  T
   5   -976.2590791 -0.392010E-07  0.505E-05    0.56      83.7  T
     SCC iter.                  ...        0 min,  9.781 sec
     gradient                   ...        0 min,  1.813 sec
 * total energy  :  -960.8148352 Eh     change       -0.6237043E-03 Eh
   gradient norm :     0.0102029 Eh/a0  converged?    E=F G=F D=F
   step length   :    12.9417726 a0

........................................................................
.............................. CYCLE   63 ..............................
........................................................................
   1   -976.2632881 -0.976263E+03  0.534E-04    0.56       0.0  T
   2   -976.2632882 -0.107474E-06  0.301E-04    0.56      14.0  T
   3   -976.2632882 -0.196908E-07  0.179E-04    0.56      23.6  T
   4   -976.2632882  0.687498E-08  0.117E-04    0.56      36.2  T
     SCC iter.                  ...        0 min,  7.742 sec
     gradient                   ...        0 min,  1.804 sec
 * total energy  :  -960.8154623 Eh     change       -0.6271020E-03 Eh
   gradient norm :     0.0102301 Eh/a0  converged?    E=F G=F D=F
   step length   :    14.9939911 a0

........................................................................
.............................. CYCLE   64 ..............................
........................................................................
   1   -976.2788884 -0.976279E+03  0.190E-03    0.56       0.0  T
   2   -976.2788890 -0.589725E-06  0.104E-03    0.56       4.1  T
   3   -976.2788889  0.959762E-07  0.630E-04    0.56       6.7  T
   4   -976.2788888  0.592263E-07  0.369E-04    0.56      11.4  T
   5   -976.2788891 -0.261344E-06  0.110E-04    0.56      38.5  T
   6   -976.2788891 -0.273632E-07  0.284E-05    0.56     148.7  T
     SCC iter.                  ...        0 min, 11.644 sec
     gradient                   ...        0 min,  1.807 sec
 * total energy  :  -960.8167748 Eh     change       -0.1312436E-02 Eh
   gradient norm :     0.0110674 Eh/a0  converged?    E=F G=F D=F
   step length   :     9.3851179 a0

........................................................................
.............................. CYCLE   65 ..............................
........................................................................
   1   -976.2679239 -0.976268E+03  0.165E-03    0.56       0.0  T
   2   -976.2679244 -0.568693E-06  0.770E-04    0.56       5.5  T
   3   -976.2679244  0.164258E-07  0.503E-04    0.56       8.4  T
   4   -976.2679245 -0.658206E-07  0.226E-04    0.56      18.7  T
   5   -976.2679245 -0.325155E-07  0.106E-04    0.56      39.7  T
   6   -976.2679245 -0.268132E-07  0.333E-05    0.56     126.8  T
     SCC iter.                  ...        0 min, 11.537 sec
     gradient                   ...        0 min,  1.799 sec
 * total energy  :  -960.8177701 Eh     change       -0.9953127E-03 Eh
   gradient norm :     0.0069000 Eh/a0  converged?    E=F G=F D=F
   step length   :    14.1925845 a0

........................................................................
.............................. CYCLE   66 ..............................
........................................................................
   1   -976.2895640 -0.976290E+03  0.194E-03    0.56       0.0  T
   2   -976.2895646 -0.663006E-06  0.107E-03    0.56       4.0  T
   3   -976.2895645  0.162746E-06  0.700E-04    0.56       6.0  T
   4   -976.2895645 -0.248833E-07  0.436E-04    0.56       9.7  T
   5   -976.2895649 -0.355518E-06  0.124E-04    0.56      34.2  T
   6   -976.2895649 -0.332068E-07  0.312E-05    0.56     135.3  T
     SCC iter.                  ...        0 min, 11.500 sec
     gradient                   ...        0 min,  1.810 sec
 * total energy  :  -960.8187521 Eh     change       -0.9820755E-03 Eh
   gradient norm :     0.0118236 Eh/a0  converged?    E=F G=F D=F
   step length   :     4.4946243 a0

........................................................................
.............................. CYCLE   67 ..............................
[...]
   302   6 C      332   1 H                                       1.0860755
   303   6 C      333   1 H                                       1.0835773
   305   6 C      334   1 H                                       1.0778840
   306   6 C      335   1 H                                       1.0776309
   311   6 C      336   1 H                                       1.0772197
   312   6 C      337   1 H                                       1.0776651
   314   7 N      338   1 H                                       1.0143989
   317   6 C      339   1 H                                       1.0834659
   318   6 C      340   1 H                                       1.0860599
   320   6 C      341   1 H                                       1.0860828
   321   6 C      342   1 H                                       1.0835802
   323   6 C      343   1 H                                       1.0778644
   324   6 C      344   1 H                                       1.0776337
   345   6 C      346   6 C                                       1.4092529
   346   6 C      347   6 C                                       1.4178351
   347   6 C      348   6 C                                       1.3684936
   348   6 C      349   6 C                                       1.4208529
   346   6 C      350   7 N                                       1.3632533
   349   6 C      350   7 N                                       1.3690605
   349   6 C      351   6 C                                       1.4008221
   352   6 C      353   6 C                                       1.3948319
   353   6 C      354   6 C                                       1.3857777
   354   6 C      355   7 N                                       1.3292022
   355   7 N      356   6 C                                       1.3290892
   352   6 C      357   6 C                                       1.3948731
   356   6 C      357   6 C                                       1.3858889
   351   6 C      358   6 C                                       1.3958818
   358   6 C      359   6 C                                       1.4514369
   359   6 C      360   6 C                                       1.3493102
   358   6 C      361   7 N                                       1.3617816
   360   6 C      362   6 C                                       1.4485499
   361   7 N      362   6 C                                       1.3485598
   362   6 C      363   6 C                                       1.4104258
   363   6 C      364   6 C                                       1.4092824
   364   6 C      365   6 C                                       1.4178364
   365   6 C      366   6 C                                       1.3685076
   366   6 C      367   6 C                                       1.4208383
   364   6 C      368   7 N                                       1.3633019
   367   6 C      368   7 N                                       1.3690691
   367   6 C      369   6 C                                       1.4008310
   370   6 C      371   6 C                                       1.3948402
   371   6 C      372   6 C                                       1.3857795
   372   6 C      373   7 N                                       1.3291982
   373   7 N      374   6 C                                       1.3291016
   370   6 C      375   6 C                                       1.3948453
   374   6 C      375   6 C                                       1.3859132
   369   6 C      376   6 C                                       1.3958573
   376   6 C      377   6 C                                       1.4514911
   377   6 C      378   6 C                                       1.3493004
   345   6 C      379   6 C                                       1.4103491
   378   6 C      379   6 C                                       1.4485591
   376   6 C      380   7 N                                       1.3617412
   379   6 C      380   7 N                                       1.3485358
   347   6 C      381   1 H                                       1.0772168
   348   6 C      382   1 H                                       1.0776716
   350   7 N      383   1 H                                       1.0143968
   353   6 C      384   1 H                                       1.0834606
   354   6 C      385   1 H                                       1.0860534
   356   6 C      386   1 H                                       1.0860789
   357   6 C      387   1 H                                       1.0835755
   359   6 C      388   1 H                                       1.0778781
   360   6 C      389   1 H                                       1.0776089
   365   6 C      390   1 H                                       1.0772200
   366   6 C      391   1 H                                       1.0776736
   368   7 N      392   1 H                                       1.0143979
   371   6 C      393   1 H                                       1.0834591
   372   6 C      394   1 H                                       1.0860624
   374   6 C      395   1 H                                       1.0860797
   375   6 C      396   1 H                                       1.0835820
   377   6 C      397   1 H                                       1.0778703
   378   6 C      398   1 H                                       1.0776355
   399   6 C      400   6 C                                       1.4092480
   400   6 C      401   6 C                                       1.4178041
   401   6 C      402   6 C                                       1.3684521
   402   6 C      403   6 C                                       1.4209132
   400   6 C      404   7 N                                       1.3633081
   403   6 C      404   7 N                                       1.3690411
   403   6 C      405   6 C                                       1.4007835
   406   6 C      407   6 C                                       1.3947825
   407   6 C      408   6 C                                       1.3858083
   408   6 C      409   7 N                                       1.3292006
   409   7 N      410   6 C                                       1.3290957
   406   6 C      411   6 C                                       1.3948620
   410   6 C      411   6 C                                       1.3858998
   405   6 C      412   6 C                                       1.3958632
   412   6 C      413   6 C                                       1.4514455
   413   6 C      414   6 C                                       1.3493153
   412   6 C      415   7 N                                       1.3617810
   414   6 C      416   6 C                                       1.4485082
   415   7 N      416   6 C                                       1.3486368
   416   6 C      417   6 C                                       1.4104933
   417   6 C      418   6 C                                       1.4093881
   418   6 C      419   6 C                                       1.4177785
   419   6 C      420   6 C                                       1.3684904
   420   6 C      421   6 C                                       1.4208318
   418   6 C      422   7 N                                       1.3634577
   421   6 C      422   7 N                                       1.3690427
   421   6 C      423   6 C                                       1.4008754
   424   6 C      425   6 C                                       1.3947711
   425   6 C      426   6 C                                       1.3858046
   426   6 C      427   7 N                                       1.3291915
   427   7 N      428   6 C                                       1.3290937
   424   6 C      429   6 C                                       1.3947992
   428   6 C      429   6 C                                       1.3859189
   423   6 C      430   6 C                                       1.3957023
   430   6 C      431   6 C                                       1.4515544
   431   6 C      432   6 C                                       1.3492860
   399   6 C      433   6 C                                       1.4103703
   432   6 C      433   6 C                                       1.4485860
   430   6 C      434   7 N                                       1.3617787
   433   6 C      434   7 N                                       1.3484797
   401   6 C      435   1 H                                       1.0772028
   402   6 C      436   1 H                                       1.0776637
   404   7 N      437   1 H                                       1.0143928 (min)
   407   6 C      438   1 H                                       1.0834610
   408   6 C      439   1 H                                       1.0860575
   410   6 C      440   1 H                                       1.0860827
   411   6 C      441   1 H                                       1.0835797
   413   6 C      442   1 H                                       1.0778929
   414   6 C      443   1 H                                       1.0776003
   419   6 C      444   1 H                                       1.0771662
   420   6 C      445   1 H                                       1.0776753
   422   7 N      446   1 H                                       1.0144011
   425   6 C      447   1 H                                       1.0834587
   426   6 C      448   1 H                                       1.0860601
   428   6 C      449   1 H                                       1.0860754
   429   6 C      450   1 H                                       1.0835793
   431   6 C      451   1 H                                       1.0778869
   432   6 C      452   1 H                                       1.0776410
   453   6 C      454   6 C                                       1.4093107
   454   6 C      455   6 C                                       1.4178203
   455   6 C      456   6 C                                       1.3684040
   456   6 C      457   6 C                                       1.4209704
   454   6 C      458   7 N                                       1.3633855
   457   6 C      458   7 N                                       1.3691170
   457   6 C      459   6 C                                       1.4006516
   460   6 C      461   6 C                                       1.3947720
   461   6 C      462   6 C                                       1.3857989
   462   6 C      463   7 N                                       1.3292160
   463   7 N      464   6 C                                       1.3290788
   460   6 C      465   6 C                                       1.3947785
   464   6 C      465   6 C                                       1.3859478
   459   6 C      466   6 C                                       1.3959202
   466   6 C      467   6 C                                       1.4515556
   467   6 C      468   6 C                                       1.3492877
   466   6 C      469   7 N                                       1.3615926
   468   6 C      470   6 C                                       1.4485493
   469   7 N      470   6 C                                       1.3488119
   470   6 C      471   6 C                                       1.4102371
   471   6 C      472   6 C                                       1.4091427
   472   6 C      473   6 C                                       1.4178592
   473   6 C      474   6 C                                       1.3684294
   474   6 C      475   6 C                                       1.4209477
   472   6 C      476   7 N                                       1.3635442
   475   6 C      476   7 N                                       1.3689633
   475   6 C      477   6 C                                       1.4008052
   478   6 C      479   6 C                                       1.3947557
   479   6 C      480   6 C                                       1.3857837
   480   6 C      481   7 N                                       1.3291996
   481   7 N      482   6 C                                       1.3290662
   478   6 C      483   6 C                                       1.3947226
   482   6 C      483   6 C                                       1.3859465
   477   6 C      484   6 C                                       1.3957027
   484   6 C      485   6 C                                       1.4515897
   485   6 C      486   6 C                                       1.3492292
   453   6 C      487   6 C                                       1.4104498
   486   6 C      487   6 C                                       1.4485578
   484   6 C      488   7 N                                       1.3617858
   487   6 C      488   7 N                                       1.3485737
   455   6 C      489   1 H                                       1.0771841
   456   6 C      490   1 H                                       1.0776654
   458   7 N      491   1 H                                       1.0143992
   461   6 C      492   1 H                                       1.0834674
   462   6 C      493   1 H                                       1.0860644
   464   6 C      494   1 H                                       1.0860822
   465   6 C      495   1 H                                       1.0835793
   467   6 C      496   1 H                                       1.0778956
   468   6 C      497   1 H                                       1.0776521
   473   6 C      498   1 H                                       1.0772183
   474   6 C      499   1 H                                       1.0776733
   476   7 N      500   1 H                                       1.0144127
   479   6 C      501   1 H                                       1.0834618
   480   6 C      502   1 H                                       1.0860560
   482   6 C      503   1 H                                       1.0860672
   483   6 C      504   1 H                                       1.0835648
   485   6 C      505   1 H                                       1.0778892
   486   6 C      506   1 H                                       1.0775853
   507   6 C      508   6 C                                       1.4089245
   508   6 C      509   6 C                                       1.4181967
   509   6 C      510   6 C                                       1.3679725
   510   6 C      511   6 C                                       1.4212532
   508   6 C      512   7 N                                       1.3635106
   511   6 C      512   7 N                                       1.3692745
   511   6 C      513   6 C                                       1.4000998
   514   6 C      515   6 C                                       1.3943594
   515   6 C      516   6 C                                       1.3859614
   516   6 C      517   7 N                                       1.3291253
   517   7 N      518   6 C                                       1.3290235
   514   6 C      519   6 C                                       1.3945524
   518   6 C      519   6 C                                       1.3859742
   513   6 C      520   6 C                                       1.3957525
   520   6 C      521   6 C                                       1.4520478
   521   6 C      522   6 C                                       1.3486884
   520   6 C      523   7 N                                       1.3612077
   522   6 C      524   6 C                                       1.4491344
   523   7 N      524   6 C                                       1.3495962
   524   6 C      525   6 C                                       1.4084869
   525   6 C      526   6 C                                       1.4079061
   526   6 C      527   6 C                                       1.4184255
   527   6 C      528   6 C                                       1.3680245
   528   6 C      529   6 C                                       1.4212622
   526   6 C      530   7 N                                       1.3637568
   529   6 C      530   7 N                                       1.3690416
   529   6 C      531   6 C                                       1.4003788
   532   6 C      533   6 C                                       1.3945863
   533   6 C      534   6 C                                       1.3858000
   534   6 C      535   7 N                                       1.3291843
   535   7 N      536   6 C                                       1.3289884
   532   6 C      537   6 C                                       1.3943786
   536   6 C      537   6 C                                       1.3861051
   531   6 C      538   6 C                                       1.3954840
   538   6 C      539   6 C                                       1.4517504
   539   6 C      540   6 C                                       1.3489225
   507   6 C      541   6 C                                       1.4101286
   540   6 C      541   6 C                                       1.4487823
   538   6 C      542   7 N                                       1.3618064
   541   6 C      542   7 N                                       1.3486917
   509   6 C      543   1 H                                       1.0772074
   510   6 C      544   1 H                                       1.0776827
   512   7 N      545   1 H                                       1.0144544
   515   6 C      546   1 H                                       1.0834213
   516   6 C      547   1 H                                       1.0860495
   518   6 C      548   1 H                                       1.0860721
   519   6 C      549   1 H                                       1.0835680
   521   6 C      550   1 H                                       1.0777891
   522   6 C      551   1 H                                       1.0776204
   527   6 C      552   1 H                                       1.0775561
   528   6 C      553   1 H                                       1.0776311
   530   7 N      554   1 H                                       1.0145450
   533   6 C      555   1 H                                       1.0834679
   534   6 C      556   1 H                                       1.0860551
   536   6 C      557   1 H                                       1.0860735
   537   6 C      558   1 H                                       1.0835303
   539   6 C      559   1 H                                       1.0778390
   540   6 C      560   1 H                                       1.0775936

 * 4 distinct bonds (by element types)

   Z      Z             #   av. dist./Å        max./Å        min./Å
   1 H    6 C         162     1.0812934     1.0861161     1.0771662
   6 C    6 C         287     1.3960712     1.4524455     1.2172788
   1 H    7 N          20     1.0144542     1.0147162     1.0143928
   6 C    7 N         120     1.3501865     1.3698912     1.3289884


optimized geometry written to: xtbopt.xyz


           -------------------------------------------------
          | TOTAL ENERGY             -960.831670590271 Eh   |
          | GRADIENT NORM               0.000624458840 Eh/α |
          | HOMO-LUMO GAP               0.569917305869 eV   |
           -------------------------------------------------

------------------------------------------------------------------------
 * finished run on 2022/07/27 at 05:22:09.812     
------------------------------------------------------------------------
 total:
 * wall-time:     0 d,  0 h, 33 min, 43.028 sec
 *  cpu-time:     0 d,  0 h, 33 min, 31.792 sec
 * ratio c/w:     0.994 speedup
 SCF:
 * wall-time:     0 d,  0 h,  1 min, 16.853 sec
 *  cpu-time:     0 d,  0 h,  1 min, 16.369 sec
 * ratio c/w:     0.994 speedup
 ANC optimizer:
 * wall-time:     0 d,  0 h, 32 min, 25.448 sec
 *  cpu-time:     0 d,  0 h, 32 min, 14.712 sec
 * ratio c/w:     0.994 speedup

