560
 energy: -960.831670590271 gnorm: 0.000624458840 xtb: 6.5.1 (b24c23e)
C          127.31080136260807        0.04375881493037        0.05505617067056
C          127.91838330127564        1.27962649883734        0.23477696853438
C          127.26653573210126        2.53445428349558        0.39637600936454
C          128.22840552917887        3.48997984763420        0.56592761268814
C          129.49894421923085        2.84767466927046        0.52367645527621
N          129.26140397395878        1.51995731555718        0.30871989502699
C          130.76163681163388        3.43429585442591        0.66365926049246
C          130.79251601969497        4.89159771546323        0.93065953980435
C          131.42618843589170        5.77401260759499        0.05614005293895
C          131.42606761187841        7.12931789183117        0.34536873482848
N          130.84951988056494        7.63877866400301        1.42933022745135
C          130.24634365698859        6.80458072186996        2.26996369823539
C          130.18889399681331        5.43513208814722        2.06426339646713
C          131.97841902023825        2.75340029613602        0.57762829882938
C          133.27005513276765        3.37342249188878        0.81241165916957
C          134.19459070869382        2.40710418278030        0.63667313937767
N          132.13965845416823        1.43303346156299        0.28772884035018
C          133.46786259937267        1.19862238034316        0.29871965346766
C          134.10957317012134       -0.02531987621637        0.02257653490241
C          133.47480432034425       -1.25258179794599       -0.24612718244144
C          134.11532644979891       -2.47632717580046       -0.57487551908237
C          133.14846684033864       -3.42833126062516       -0.74443236241230
C          131.88544056987411       -2.81475108429851       -0.51843828695724
N          132.13382702513084       -1.49831031061538       -0.23306178628415
C          130.62420982981794       -3.41649713884040       -0.59134148606890
C          130.59590349690427       -4.87086662323190       -0.87009249188255
C          131.21629657973176       -5.78516001898493       -0.01874351438698
C          131.16137853891388       -7.13644578592077       -0.32149924531959
N          130.54504850231973       -7.61320331022336       -1.39826367922235
C          129.95273642449300       -6.74888422467319       -2.21616152305265
C          129.94899777230489       -5.38073505875649       -1.99565916036997
C          129.40617750350663       -2.74916595145366       -0.42482695768530
C          128.10551403138857       -3.40086286956626       -0.44608476115142
C          127.18849254378017       -2.42899559877143       -0.26785785210351
C          127.92788818616448       -1.18682974075501       -0.12673488751124
N          129.26063349881574       -1.41983759006549       -0.21306590607744
H          126.22552046294687        0.04972433004175        0.05987816374464
H          126.19757344738152        2.67490411596180        0.37807365950603
H          128.07730832331498        4.54866337963918        0.70086863863090
H          129.98619121721757        0.81596989918659        0.21782025401376
H          131.89880811363668        5.40500752097468       -0.84627785885526
H          131.90924114752960        7.83608444992694       -0.32291186836071
H          129.78822700791483        7.24991508239042        3.14828843168334
H          129.69795469381251        4.79238782027005        2.78537976233940
H          133.42555756572222        4.40283193956407        1.09156253205408
H          135.26543129450391        2.47801324673748        0.73670668625696
H          135.18064095063576       -2.60214056815172       -0.67951427535190
H          133.29406578846860       -4.46126078935382       -1.01531735401653
H          131.41349394630345       -0.80782193808755       -0.04882751260599
H          131.71872832781696       -5.44430496499885        0.87877822667803
H          131.63293795989986       -7.86700526519302        0.32930365599006
H          129.45958394547208       -7.16830490976271       -3.08821081243595
H          129.46484142804755       -4.71295312441098       -2.69817614898540
H          127.94218439545087       -4.45958928783693       -0.56717157369294
H          126.11403002806107       -2.51377354112737       -0.22326873433300
C          232.35643445277051       -0.00958925810537        0.02317280333278
C          231.76595460479200       -1.20602531278314       -0.36197231160016
C          232.43461475799171       -2.39679168299176       -0.76271944302225
C          231.48515636009188       -3.33497952735995       -1.05424077347307
C          230.20555946987901       -2.75035354121257       -0.83100657378076
N          230.42585758887236       -1.46556987751657       -0.42343830325290
C          228.95090999214091       -3.34193283722976       -1.01313045564078
C          228.94447224032552       -4.75774991104306       -1.45312582423994
C          228.37710712647814       -5.13588684317846       -2.66947530264374
C          228.40055021411905       -6.47109613307825       -3.04008590165441
N          228.93946730408507       -7.42318914602783       -2.28518853657537
C          229.47988533433394       -7.07181558396068       -1.12295890202931
C          229.50948079535129       -5.76265777821242       -0.66870189645680
C          227.72296345399513       -2.70652671659036       -0.81392292352486
C          226.43878015692971       -3.36585699444216       -0.96872689060675
C          225.49871261312830       -2.43932287680821       -0.69188369554014
N          227.54083395983963       -1.41221770754699       -0.43302559796660
C          226.20755868183582       -1.21977887563126       -0.35640457783724
C          225.54734591176370       -0.02041564905757       -0.02314381219256
C          226.16538472028338        1.19754539822923        0.31730934942069
C          225.50707698782148        2.41251389941770        0.64362260975590
C          226.46157195628351        3.35005460052025        0.92475941843800
C          227.73529452845241        2.73110912187642        0.79298838006070
N          227.50467259383294        1.43431537214579        0.41650323391074
C          228.98854095270465        3.32260332753357        0.98465922059754
C          228.99724085362098        4.74441456341750        1.40213340183170
C          228.41119984979969        5.15486577626711        2.59918243035226
C          228.44749665089310        6.49666629240607        2.94450178064157
N          229.01430796440951        7.42601817753319        2.18196497746176
C          229.57419140649762        7.04368350580185        1.03865747787526
C          229.59302422999966        5.72583992343353        0.61039332571465
C          230.21742505230247        2.67686547584199        0.81520437238212
C          231.50848786497329        3.29451033748045        1.07739431875247
C          232.44101439760632        2.35918571714204        0.80798277130535
C          231.72075741444118        1.16881986483425        0.39102567793805
N          230.38415475627539        1.39410219968325        0.41559384406241
H          233.44163068528934       -0.00377781039544        0.03450114976214
H          233.50571807633460       -2.50582194957146       -0.82258500880632
H          231.65008343182339       -4.34195482356863       -1.40159250904056
H          229.69230706084926       -0.80048962828684       -0.20278535401581
H          227.93763456542939       -4.39201814397076       -3.32322028458368
H          227.96879095184221       -6.78908573953302       -3.98456391665682
H          229.90893076658355       -7.87213217750930       -0.52710655908149
H          229.94992794496162       -5.52522017210649        0.29242064978818
H          226.29716537811936       -4.39909741361381       -1.24087399854154
H          224.42667779537561       -2.54796616182938       -0.70745812407135
H          224.43786664027621        2.54574684993629        0.66006783480931
H          226.30008775629929        4.38113081298496        1.19352001687130
H          228.23440300503336        0.75250574628726        0.23684271681096
H          227.94971494569594        4.43078532599850        3.26011660330066
H          228.00199507881695        6.83911068206174        3.87395703696403
H          230.02749192198846        7.82581662081453        0.43669055636829
H          230.05014620224568        5.46244466859646       -0.33594434711930
H          231.65522976094366        4.30191263762937        1.43213381954987
H          233.51455321677787        2.43415791292633        0.88232231071165
C          135.51870072851349       -0.03611669155208        0.01228097715138
C          136.73588229024583       -0.04380963344133       -0.00103318208307
C          146.43793107023754       -0.06362522808772       -0.01025510237404
C          147.65633186377249       -0.05795411021755       -0.01448317669293
C          157.36826793671841       -0.02608286450010       -0.01690721196771
C          158.58692024885400       -0.01980045194269       -0.01755404045369
C          168.29397196666625       -0.00220042470316       -0.01790850715017
C          169.51254819798083        0.00309508470247       -0.01838310547493
C          179.21326923231024        0.01894440575526       -0.03959319687452
C          180.43182617519489        0.02236616005162       -0.04024624133703
C          190.13152288359484        0.02898272301990       -0.05673862262022
C          191.35012594644422        0.03070018063405       -0.05972463227667
C          201.05592501259102        0.02333555979116       -0.07647057321018
C          202.27459956421805        0.02684681482763       -0.07438344272100
C          211.98597891125047        0.01862969447934       -0.06386574865319
C          213.20444568367486        0.02213591088082       -0.05690546263663
C          222.91952253259160       -0.02245509341252       -0.03052816384922
C          224.13684123940703       -0.02328584820907       -0.02903106748948
C          138.14409053245279       -0.04877841186717       -0.00775556504566
C          138.77035651082565       -1.28805006351731        0.22484041881532
C          138.12846351046994       -2.51820631246135        0.51885498012284
C          139.09455907934182       -3.47933404851008        0.64247844957077
C          140.35588485893015       -2.86304086500704        0.42073302674885
N          140.11051660371703       -1.53637166016598        0.18940078196817
C          141.61379344533111       -3.47903680921669        0.42927151270528
C          141.62553049790381       -4.94673979643259        0.63530426414947
C          142.29084999966867       -5.51727198186350        1.72029182211614
C          142.26773619067862       -6.89358721126075        1.88012756450529
N          141.64037947186034       -7.71004656279616        1.03946623748147
C          141.00797415229803       -7.17536539026866       -0.00002916939065
C          140.96968300631301       -5.81099695988762       -0.24102998234098
C          142.83918917282500       -2.83153981878157        0.26390196014901
C          144.11186892690347       -3.52472669146437        0.17854871087394
C          145.05729943267332       -2.57106560814238        0.04933193083720
N          143.03149303325262       -1.48734871684776        0.16036438766277
C          144.36288840503229       -1.29940604059541        0.05564568670034
C          145.03069508302926       -0.05909373899777       -0.00922385073874
C          144.40187490114712        1.20006819171513       -0.07524475409706
C          145.04017495706705        2.46651870928646       -0.08361100549715
C          144.07342545965190        3.42645101543225       -0.20900237999026
C          142.81424200560579        2.77185216425476       -0.28350836326945
N          143.06181358108637        1.42923299111847       -0.17852618848360
C          141.55805664068640        3.37127544183874       -0.43723862082354
C          141.55014463671773        4.84155100183503       -0.62567809706535
C          140.89046890824423        5.68415348561821        0.26845664609305
C          140.91228180374924        7.05241029914955        0.04913402215359
N          141.53303537113550        7.61065500709273       -0.98510830589848
C          142.16195109210574        6.81475477515250       -1.84379932567855
C          142.20159888446329        5.43627750852137       -1.70593010968070
C          140.33118967392386        2.70562499345094       -0.43119909443283
C          139.05678775175841        3.35700559224623       -0.67588489334521
C          138.11101729154271        2.40277077388747       -0.55470899693881
C          138.80828845329626        1.17113327714769       -0.24266984023023
N          140.14051871999342        1.37844297112853       -0.19651350890320
H          137.06397801762481       -2.64383669460029        0.63133118931105
H          138.94759289982571       -4.52072965321249        0.87763049725400
H          140.82715791858959       -0.83797846948279        0.02261577616971
H          142.80486547971731       -4.88933318852163        2.43819098007404
H          142.77384860367795       -7.35995892324945        2.72030366287250
H          140.50826045934755       -7.86799577681129       -0.67096627738237
H          140.45200188069722       -5.42193828949319       -1.10980881228727
H          144.24109729260908       -4.59469296622598        0.19551654733561
H          146.12274913354145       -2.69336353959650       -0.05714392275176
H          146.10266034601256        2.61938170276151        0.00723540859152
H          144.21767772704834        4.49413042807830       -0.23524000658555
H          142.34681459062980        0.70959658104478       -0.17690037499932
H          140.38098263393047        5.27433055970771        1.13231737522654
H          140.40961979550605        7.72888927827875        0.73410336342455
H          142.65663068109069        7.29973106185268       -2.68022367854731
H          142.71628309601036        4.82616378313455       -2.43871545948761
H          138.92630453074074        4.39797054803474       -0.92303974669052
H          137.04415440256196        2.49611595995443       -0.67647576974028
C          149.06325776152892       -0.05768810853249       -0.01689503516618
C          149.70074853151183       -1.25705041116880        0.35785445428422
C          149.07508277736116       -2.44995265706000        0.80059830843320
C          150.04983469996256       -3.38963875684448        0.99927097047488
C          151.30076190125868       -2.79689265650530        0.67811014561831
N          151.04154303938043       -1.50163917712362        0.31873008110959
C          152.55967861145643       -3.41078402241573        0.69937562919434
C          152.58054539456643       -4.85790932843052        1.01785870218728
C          153.28981812810602       -5.34614240871717        2.11507102955448
C          153.27667856651479       -6.70677776419202        2.37761832879048
N          152.61916732114727       -7.58341124568251        1.62531544607723
C          151.94395016463952       -7.12746111132689        0.57524953740850
C          151.89204319459319       -5.78481737532295        0.23550242416431
C          153.77879535506071       -2.77950669208420        0.44759519821763
C          155.04892393743961       -3.47831215366640        0.37232154564314
C          155.99105001251593       -2.53493935815834        0.16530243756729
N          153.96802065693822       -1.44468132316454        0.25555366196278
C          155.29705355400557       -1.26444343518552        0.11417018894657
C          155.96163269016827       -0.02748583766209       -0.01862816983020
C          155.32347469286125        1.22164457900437       -0.15430218070707
C          155.94824426196897        2.49240112496522       -0.22611301721545
C          154.97349746751254        3.43203391291051       -0.42483520212252
C          153.72322652173818        2.75934206823257       -0.48393390900757
N          153.98291181745728        1.42894696724082       -0.29143815420852
C          152.46488880221298        3.32976455016673       -0.71399882339496
C          152.44573354105933        4.78239559342913       -1.00692868106820
C          151.74018389411017        5.67384766785746       -0.19905569832817
C          151.75611530107764        7.02458656611060       -0.50855312473449
N          152.41267462170509        7.52099981296713       -1.55223307487932
C          153.08414394590417        6.67809104974344       -2.33010477898384
C          153.13329188955831        5.31252328257422       -2.09848966903726
C          151.24544697401163        2.65100501085303       -0.69121655825024
C          149.97525310677955        3.26120632579735       -1.03966927322023
C          149.03297717065055        2.31420170565538       -0.85044389040448
C          149.72723127419795        1.12955818651488       -0.38871422678067
N          151.05640498782145        1.35138268750981       -0.33172856347005
H          148.01553920847363       -2.56640270873504        0.95687758914177
H          149.91580187305175       -4.40035056373776        1.34837050809556
H          151.74849141740543       -0.82145132805828        0.06065066624365
H          153.83042549336366       -4.66672549231255        2.76317413103432
H          153.81704381098299       -7.10947720702396        3.22930614060616
H          151.42031365373393       -7.86806260366285       -0.02212918725234
H          151.33902641981149       -5.46111248127159       -0.63828258738305
H          155.17848557122440       -4.54570305209526        0.44813613195822
H          157.05339464832801       -2.66469420155315        0.03943972053727
H          157.00721769223063        2.66279184857569       -0.12636960941075
H          155.10713583090723        4.49787337206930       -0.51146003715308
H          153.27636820142615        0.70188936994718       -0.25657601465846
H          151.20048347428491        5.31547714758113        0.66938169408037
H          151.21895626834345        7.73836018806889        0.10911850041082
H          153.60707055373504        7.11296702573828       -3.17686479310149
H          153.68366944595101        4.66204931961011       -2.76789832872646
H          149.84574210715974        4.26963382013079       -1.39765271481849
H          147.97046827777703        2.38271709676335       -1.01715011164648
C          159.99353972764547       -0.02022743892713       -0.01679824269482
C          160.62975062670895       -1.21695453709899        0.36973485858430
C          160.00302994682596       -2.40429077366293        0.82534599674072
C          160.97568889838993       -3.34603391621729        1.02491429983906
C          162.22645723310296       -2.76004030343800        0.69169247811174
N          161.96954512376990       -1.46603619896632        0.32580081545070
C          163.48322575064336       -3.37877366948288        0.70625651180329
C          163.50138988230037       -4.82540235647027        1.02589004796555
C          164.22366665511018       -5.31656274035790        2.11333347170912
C          164.20799394232017       -6.67701017818189        2.37669132007256
N          163.53546920665841       -7.55091145283121        1.63456278062393
C          162.84736483991938       -7.09223593825118        0.59407003587212
C          162.79749804302995       -5.74963095364188        0.25397728956091
C          164.70242067265698       -2.75085484033980        0.44655554995522
C          165.97089447361819       -3.45169698527456        0.36348856229070
C          166.91379988250696       -2.50932715673552        0.15517052036349
N          164.89293560361929       -1.41599327071137        0.25627828450340
C          166.22161032772121       -1.23764097659863        0.11022160593844
C          166.88759087829922       -0.00111568986417       -0.01841045592617
C          166.25162335640641        1.24985992535259       -0.14709602180826
C          166.87837652150097        2.52020594183231       -0.20700641873901
C          165.90573096510286        3.46247353893677       -0.40391413540861
C          164.65503853344697        2.79171087978114       -0.47432886671385
N          164.91200049240081        1.45992644461890       -0.28839963744345
C          163.39848715171777        3.36353151846201       -0.71169365194231
C          163.38191211840470        4.81676600782653       -1.00006783157048
C          162.66142085232445        5.70429862684696       -0.20099028903145
C          162.68276188494798        7.05656172304501       -0.50337617965221
N          163.35880781178457        7.55839661053664       -1.53190287127545
C          164.04423040891626        6.71934692269909       -2.30177334599110
C          164.08869861267527        5.35257781718139       -2.07662130725715
C          162.17936031105893        2.68381646268783       -0.69818532168884
C          160.91135480160654        3.29153039193187       -1.05827338772090
C          159.96829968417478        2.34496685491541       -0.87030004201103
C          160.65982190069394        1.16318112655037       -0.39757788278935
N          161.98856542952032        1.38544768725874       -0.33457137004528
H          158.94432611374063       -2.51597773816003        0.98974296556559
H          160.84019078335083       -4.35361593816929        1.38240548485067
H          162.67752248194998       -0.79018914306583        0.05931606334357
H          164.77627393861133       -4.63948664124990        2.75370480370778
H          164.75890618055536       -7.08185491268615        3.22056397257143
H          162.31130649747271       -7.83053753023796        0.00491091757204
H          162.23414057024644       -5.42401344709379       -0.61247654794806
H          166.09908077067379       -4.51950623316039        0.43549195641153
H          167.97545647780444       -2.64039546899114        0.02473071389278
H          167.93703544748109        2.68860456443794       -0.10066788179991
H          166.04123426688017        4.52875526180467       -0.48164670932186
H          164.20415762630910        0.73383544046045       -0.26103167293622
H          162.10644517128125        5.34176354149351        0.65601512607176
H          162.13419615378947        7.76713792225509        0.10791333896089
H          164.58312505481004        7.15859773685612       -3.13617299569254
H          164.65075358016668        4.70562616751635       -2.73971558549002
H          160.78385444224841        4.29783748619296       -1.42288745289457
H          158.90686884145683        2.41219806472682       -1.04392867972538
C          170.91896121106186        0.00132092714461       -0.02248945724536
C          171.55495281142151       -1.19633738410163        0.36130832300600
C          170.92788050429627       -2.38323171288439        0.81766617626491
C          171.89981250813057       -3.32661133607453        1.01323947673362
C          173.15029814505584       -2.74201690106838        0.67664630958714
N          172.89416101104010       -1.44714563663083        0.31326691079821
C          174.40651764953012       -3.36197961216986        0.68471511951605
C          174.42545619938846       -4.80940116724911        0.99987246033394
C          175.15649141695405       -5.30496682414347        2.07948622234169
C          175.14163176364863       -6.66624114442823        2.33852949280105
N          174.46160015166211       -7.53700633689534        1.59955330141183
C          173.76486125310049       -7.07415090102028        0.56668677133184
C          173.71374977155020       -5.73043938791857        0.23123664045869
C          175.62454093577821       -2.73310507838257        0.42146238129107
C          176.89275499544698       -3.43309638007355        0.32932450394166
C          177.83443819865835       -2.48936717584025        0.12140253829238
N          175.81368778997540       -1.39731011299993        0.23608647620316
C          177.14167505488251       -1.21768730755186        0.08570094205339
C          177.80696027358044        0.01966267393269       -0.03903525931625
C          177.17154473508319        1.27134448015568       -0.16318032487637
C          177.79960798984001        2.54113292649728       -0.22171637465978
C          176.82780156996299        3.48486867413374       -0.41580443854508
C          175.57639410111616        2.81555002633667       -0.48582303246465
N          175.83204346288392        1.48315203636790       -0.30246356227569
C          174.31976018556909        3.38828622542345       -0.72054560376766
C          174.30161976220526        4.84148226391528       -1.00800073978639
C          173.57678821257704        5.72724314354639       -0.21076918024626
C          173.59393903589600        7.07931414521817       -0.51411375123143
N          174.27044157233286        7.58280080055972       -1.54155468449072
C          174.96083547349198        6.74564027989880       -2.30902938581274
C          175.00928800606033        5.37914195442114       -2.08307487980582
C          173.10112161491440        2.70771595541282       -0.70576565376402
C          171.83191576918097        3.31435151769206       -1.06333297655144
C          170.89017311608831        2.36675028183425       -0.87416760782804
C          171.58383217950475        1.18532679568618       -0.40362227894390
N          172.91237652126730        1.40883288694863       -0.34292191433918
H          169.86946395723498       -2.49355557626119        0.98496519643167
H          171.76395320933372       -4.33430648378342        1.37029228985740
H          173.60267445946121       -0.77237330312391        0.04550399212727
H          175.71526149137964       -4.63064531606692        2.71740885433581
H          175.69960191016227       -7.07442702036311        3.17613134499274
H          173.22267642327338       -7.80990310770478       -0.02005346166663
H          173.14344994682557       -5.40155782524518       -0.62942277338596
H          177.02150622859932       -4.50123100612159        0.39524269949349
H          178.89547231839060       -2.61952232654117       -0.01481214812202
H          178.85859273215866        2.70816440752628       -0.11657909041920
H          176.96441219989839        4.55112371643020       -0.49195873352178
H          175.12301881470262        0.75819885637399       -0.27541197206003
H          173.02134815545540        5.36345657104390        0.64541064913618
H          173.04114979308193        7.78830893295578        0.09521068841913
H          175.50018949341165        7.18618516456466       -3.14245184289735
H          175.57465611066894        4.73373465734960       -2.74485593781064
H          171.70262135461320        4.32060644523923       -1.42737341006815
H          169.82839790062897        2.43301965006491       -1.04602802961253
C          181.83813661411028        0.02046055958784       -0.04183852285194
C          182.47259868557958       -1.17907471928623        0.33838021671754
C          181.84364865199814       -2.36673935708813        0.79018842666962
C          182.81423110672472       -3.31199356451068        0.98316133853699
C          184.06567041138473       -2.72781773295784        0.64930377515882
N          183.81144972296963       -1.43133189875085        0.29038527026439
C          185.32108314598904       -3.34926870951234        0.65561052401118
C          185.33781863574211       -4.79766833912356        0.96618830932880
C          186.06773975263852       -5.29759462540250        2.04454105756528
C          186.04938625279138       -6.65940641464841        2.30049297805761
N          185.36698499341139       -7.52671899175117        1.55963156695457
C          184.67164592150922       -7.05975991851108        0.52767688098866
C          184.62399217782473       -5.71516966360775        0.19527091239456
C          186.53978370301880       -2.72057116517149        0.39485416969023
C          187.80718845505592       -3.42151083364624        0.29978811537860
C          188.74973520137289       -2.47796098023476        0.09495433529203
N          186.73023220758228       -1.38426878603818        0.21464840581180
C          188.05841955863548       -1.20538311613010        0.06454333099470
C          188.72515528785195        0.03178123843607       -0.05457135528765
C          188.09117764488218        1.28495870804017       -0.17159706269347
C          188.72068730098363        2.55436193990360       -0.22251512252338
C          187.75003022149525        3.50040520755813       -0.41130005384211
C          186.49792461532942        2.83297263230822       -0.48577398888485
N          186.75195205690719        1.49920523100375       -0.31003468131350
C          185.24203777647770        3.40820250069002       -0.71855259743560
C          185.22447014704574        4.86297554519684       -0.99795646300691
C          184.49817680166899        5.74409196335373       -0.19688809987737
C          184.51419558220601        7.09766004157601       -0.49350448188976
N          185.19088602384107        7.60687930996101       -1.51798162036652
C          185.88293360061144        6.77423074093907       -2.28887542388475
C          185.93267755301119        5.40667838004284       -2.06960124426739
C          184.02294722473749        2.72838504937693       -0.70939729491854
C          182.75475417306771        3.33748949013526       -1.06647462254209
C          181.81212438691071        2.38951325828909       -0.88371402505737
C          182.50422573112661        1.20556602763556       -0.41725105742778
N          183.83276123825723        1.42790153035512       -0.35315200813637
H          180.78500558078301       -2.47619875168643        0.95658957962332
H          182.67678756356329       -4.32070765470687        1.33668788691725
H          184.52105130301177       -0.75656673303694        0.02551107637293