714
 energy: -1137.234168947406 gnorm: 0.000844146767 xtb: 6.5.1 (b24c23e)
C          123.39006606949081        0.04199640266816        0.07958242123869
C          123.99856871881471       -0.10774517540772        1.31965057861020
C          123.34573063252617       -0.20933031695239        2.57934797452445
C          124.30623337573267       -0.35820518574274        3.54089946840061
C          125.57609344283786       -0.36453851963042        2.89787120367240
N          125.34025976570689       -0.19860687253695        1.56245040738285
C          126.83811997576335       -0.49651147888533        3.49225703272563
C          126.86790422012990       -0.70910767183366        4.95665027311539
C          127.55414796354984        0.16948180823230        5.79719145634889
C          127.57812854652533       -0.01928226639003        7.16682692107717
C          126.91658207608415       -1.10694704059470        7.75698238062881
N          126.98610767103759       -1.33633610971434        9.12744860380194
C          127.38161682376105       -0.21533535045728        9.98030284232729
C          125.96324875199852       -2.20154143633139        9.71660319644931
C          126.24045660511828       -1.99726907354879        6.90886848133957
C          126.21299055900406       -1.79481134068736        5.54116351388723
C          128.05164893966628       -0.44085691941884        2.80124545059094
C          129.34740213861755       -0.65328242888163        3.41997777811801
C          130.26697324947253       -0.50740850330096        2.44311736590717
N          128.20539467801652       -0.19900082130710        1.46939281481400
C          129.53124238904815       -0.22027499531796        1.22763689645682
C          130.16886280440036        0.00551778644730       -0.01030710044972
C          129.53413434173754        0.22467850722771       -1.24857271176108
C          130.18065906896453        0.48100706992865       -2.48604530107362
C          129.21557394356176        0.61986615542745       -3.44543763486838
C          127.94913043522287        0.44282133994038       -2.82356871967844
N          128.19388946632870        0.21652577221876       -1.49406208045381
C          126.68844178253667        0.50859212323642       -3.42847831738343
C          126.65852657858204        0.71958862925366       -4.89244761747138
C          125.99362258603148        1.81389743346677       -5.44911335937949
C          125.97264139732312        2.02119292539092       -6.81614794566876
C          126.61441505708868        1.13126596045601       -7.69088059601790
N          126.54900123166449        1.30111507377878       -9.07002076648478
C          127.55841542273559        0.61651932439896       -9.87917858649842
C          126.18162003080299        2.62561214199426       -9.57103150981911
C          127.26668259193791        0.02234039470909       -7.13040152776587
C          127.29288299333111       -0.17048894911635       -5.76146120660271
C          125.47228607722658        0.39060138482088       -2.74422356223791
C          124.16764980454785        0.39682989795620       -3.38662323986325
C          123.25506301259904        0.27278196652508       -2.40132136427639
C          124.00129898364031        0.17542812198090       -1.15997971598065
N          125.33349149329872        0.23944727880767       -1.40607202448065
H          122.30463718356995        0.05280600575462        0.09060701738526
H          122.27740042163340       -0.16492829947467        2.71992632994238
H          124.15292359831882       -0.44478928250313        4.60438598985786
H          126.06705695097061       -0.14390755331523        0.85669558975202
H          128.05857288630179        1.03036547031765        5.37191098218320
H          128.12214384041130        0.69486006620531        7.77136500352833
H          126.72712855109457        0.65145272704216        9.83563687280269
H          127.33242348324637       -0.53019689434564       11.02210751503417
H          128.41182902628890        0.06592922476217        9.75990197018385
H          124.95358826175952       -1.84929472802489        9.47812637634841
H          126.08854856333767       -3.22053328627494        9.34892583711895
H          126.09112881545560       -2.21414168841895       10.79837639387279
H          125.73345460193325       -2.86654972240402        7.30755666244920
H          125.69404265102210       -2.50890772949580        4.91063554023821
H          129.51049220761979       -0.89888704459152        4.45682328924224
H          131.33975160887783       -0.59319911218923        2.51074923084184
H          131.24844146132065        0.55499821810702       -2.61526969278662
H          129.36559769826297        0.83920200178207       -4.48995730320950
H          127.46999124439787        0.07701447428011       -0.79680961742631
H          125.50599058718129        2.53041608715579       -4.79699043008403
H          125.44752959365891        2.88928351757799       -7.19307554860381
H          127.44349816541944        0.91992205052089      -10.91900121550531
H          128.57284815217119        0.85884556752885       -9.54415483652317
H          127.40505552083167       -0.46161945832138       -9.82184473961714
H          125.15778752954209        2.85708246763880       -9.27601618410495
H          126.22587373763928        2.61557062837050      -10.65947547964908
H          126.85574791856368        3.40127788955784       -9.19105458141748
H          127.75622347552002       -0.70968627759044       -7.75973204606379
H          127.79429809441591       -1.04423811535684       -5.35914628962680
H          123.99687243720311        0.46954657276970       -4.44867551222951
H          122.17947549658375        0.23558982392382       -2.47759575330570
C          278.78646972377908        0.06824208476555       -0.08467055915310
C          278.17742612805779        0.21035530985186       -1.32537740492362
C          278.82949741904042        0.40792717576439       -2.57401885120999
C          277.86865692049423        0.48443553249636       -3.54368188612162
C          276.59939941832306        0.32361771535851       -2.91984153345750
N          276.83583794190008        0.17414008162015       -1.58258626906746
C          275.33730506005787        0.32874118453248       -3.52854734130758
C          275.30672028839558        0.46385536253999       -5.00206623740926
C          274.61526549445222        1.51121667703474       -5.61388986506457
C          274.59071008555878        1.64791746931807       -6.98968053366394
C          275.25698675184344        0.73181391564712       -7.81778756231687
N          275.18745897061007        0.82911258349233       -9.20392197376862
C          274.78488027074513        2.11632579947421       -9.77089560679208
C          276.21491563325486        0.13186951971293       -9.97862925894251
C          275.93815470547065       -0.32892817571431       -7.20137693722942
C          275.96609190727514       -0.45187552629910       -5.82425487814123
C          274.12428756418285        0.21670723717438       -2.84350341817691
C          272.82886535907221        0.14783643802188       -3.49470720487372
C          271.90959855462609        0.05944071517797       -2.51069306534017
N          273.97080260736919        0.14251879052870       -1.49187961179676
C          272.64526032059899        0.06050049125277       -1.26172831887602
C          272.00780013930370       -0.00664780413357       -0.00508335702902
C          272.64284756108964       -0.07714871592893        1.25029325701107
C          271.99668040519492       -0.11541416853430        2.51364303219275
C          272.96213474827755       -0.20104042483762        3.47888933814050
C          274.22847650534885       -0.22713488647484        2.83263383258720
N          273.98326993953856       -0.13944791250842        1.48694789167511
C          275.48939980704677       -0.30203690177204        3.43602000440173
C          275.51970277969832       -0.43805724042705        4.90883513015611
C          276.18357771990179        0.49693885749206        5.70542047347121
C          276.20487938543249        0.37948803818511        7.08308731411478
C          275.56451694780804       -0.69080820762925        7.72606788582623
N          275.63028189789634       -0.84740717299187        9.10676364661579
C          274.62234575092754       -1.70364153063172        9.73384868857159
C          275.99564858220731        0.32425517225749        9.90300838456778
C          274.91332930682086       -1.63912872118191        6.92235929704343
C          274.88675993294567       -1.50715380681120        5.54623460944945
C          276.70535933599461       -0.25563381245832        2.74287187324899
C          278.01037245507371       -0.39694266062162        3.36879642335529
C          278.92258671350174       -0.28607487499729        2.38158291819909
C          278.17577583031510       -0.09274701558255        1.15187573250271
N          276.84361555959839       -0.09054301564112        1.40631504286102
H          279.87185566890497        0.08423623896333       -0.09298133283268
H          279.89754631669376        0.48759526465374       -2.70042678607993
H          278.02135295439905        0.64916050550419       -4.59798267404219
H          276.10948287194458        0.06013645422182       -0.88349895960749
H          274.10715290932245        2.24625151868204       -4.99909289278330
H          274.04259191089989        2.48094283845301       -7.41045286700329
H          275.43485973210483        2.92883163829729       -9.42743139938309
H          274.83449739339801        2.05417382974658      -10.85744791685357
H          273.75343505666882        2.33250741377144       -9.49088698166694
H          277.22267114863627        0.42407111661731       -9.66332839627904
H          276.09558359720000       -0.94561093314067       -9.86018954676745
H          276.08660594462697        0.37251003304193      -11.03332349339139
H          276.44879932422606       -1.07839520860378       -7.79230800613299
H          276.48901979724081       -1.29115909764602       -5.37821069701724
H          272.66585927920141        0.14839188541816       -4.56025872588272
H          270.83712841661998       -0.01299781407560       -2.59644616970814
H          270.92885206743176       -0.07527997456534        2.65671149572399
H          272.81242865181554       -0.22993240515684        4.54584713903086
H          274.70694683609071       -0.11249934736664        0.77616427784056
H          276.67011392237123        1.34646960560861        5.23847687387694
H          276.72916327519175        1.13626667552036        7.65214486786251
H          274.73729899927326       -1.65118313187427       10.81574867242810
H          273.60737382735499       -1.39147972692578        9.46476357276931
H          274.77737967646118       -2.73834916558409        9.42638537707371
H          277.01906706499517        0.61979771610281        9.67034356836334
H          275.95159213194182        0.06051809982424       10.95908336196711
H          275.32020588264248        1.16608330421132        9.71431237072064
H          274.42493081019637       -2.49844196174620        7.36351726512729
H          274.38618890350250       -2.26349140289993        4.95117170031868
H          278.18167291902699       -0.57353458440453        4.41850035176419
H          279.99828614828192       -0.33797941647482        2.44690456961885
C          131.57326954411769        0.01550668058800       -0.02420670540243
C          132.79835315974523        0.03090400791820       -0.03667859304126
C          134.13993349534215        0.05169177130865       -0.04757959338946
C          135.37108349218329        0.06975348594932       -0.05667672636755
C          136.70794650864613        0.08986927718279       -0.06064849447898
C          137.93921789796383        0.10740034564839       -0.06449194689826
C          139.28060682733638        0.12750502859586       -0.06139953643562
C          140.50592123591829        0.14461754093328       -0.06036236044040
C          150.16086090878147        0.14639843035028       -0.00192830436489
C          151.38631723807740        0.13171101779657        0.00129128146799
C          152.72758731190822        0.12276937449463        0.00363366605513
C          153.95910380663588        0.11453974101797        0.00432668213611
C          155.29572584719520        0.10985349645644        0.00055704091343
C          156.52731925535696        0.10934781653486       -0.00200619163359
C          157.86860483250334        0.11114903226756       -0.00372641316843
C          159.09415218470147        0.11691733829103       -0.00688008289462
C          168.74735195120451        0.11165290775024        0.01035169901756
C          169.97285500043822        0.10322396643545        0.00658414604548
C          171.31404515065969        0.09668329104277        0.00473284780468
C          172.54558616232057        0.09325834332356       -0.00065458973608
C          173.88218769195200        0.09424986090171       -0.00505381970836
C          175.11374462245107        0.09865777489759       -0.00815194363984
C          176.45494558847633        0.10469334423179       -0.00806641740160
C          177.68044600249860        0.11409851774930       -0.01195892828100
C          187.33082263776794        0.11218189253875        0.00795707544523
C          188.55629739056144        0.10016248048099        0.00492511117001
C          189.89742234700518        0.09165394405956        0.00295744846521
C          191.12896722189771        0.08856395099968       -0.00040201636491
C          192.46550365051073        0.09119454777829       -0.00295730803561
C          193.69704826108145        0.09403562795329       -0.00808593549008
C          195.03817842212234        0.10157741092371       -0.00881660006144
C          196.26366591381586        0.11170310390666       -0.01238911110481
C          205.91275494044538        0.11065372198560        0.00802530981812
C          207.13822930632341        0.09989800258079        0.00433141144027
C          208.47935383022514        0.09189145275345        0.00289151012506
C          209.71089392220873        0.08779087640229       -0.00079603351976
C          211.04744582634481        0.08585710784052       -0.00421594394758
C          212.27896774799183        0.09404162988251       -0.00809903846180
C          213.62009692060133        0.10102111845185       -0.00869148346740
C          214.84558009432260        0.11285305246340       -0.01276634368012
C          224.49591395278631        0.11374700909282        0.00776222924605
C          225.72140361630989        0.10280946707864        0.00443585673897
C          227.06258788369442        0.09500039592513        0.00234928079514
C          228.29414072598530        0.09058699301362       -0.00222116823054
C          229.63071948973629        0.09083954081382       -0.00654246396529
C          230.86229830910457        0.09463114522774       -0.01071561712920
C          232.20348473750838        0.10146302215851       -0.01200098089217
C          233.42896917718724        0.11289808183030       -0.01483141889630
C          243.08212106428843        0.12038198317474        0.00284034882047
C          244.30764266441753        0.11348816580418        0.00227997306192
C          245.64892587249332        0.10967213645232        0.00221071226616
C          246.88050133365056        0.11015546808480        0.00237704524970
C          248.21711907653599        0.11561609939346        0.00013320714221
C          249.44869937145353        0.12188861519036       -0.00191620911647
C          250.78994791354822        0.13145863324933        0.00010720648177
C          252.01547329318728        0.14276403970403       -0.00093590886592
C          261.67061897708408        0.11622947925346        0.05820274630352
C          262.89593259465443        0.09674452999477        0.05789826024324
C          264.23732716469323        0.07609059830368        0.05677361617225
C          265.46858733397420        0.05659674779731        0.05528859102429
C          266.80543545690909        0.03624244692942        0.04789794598640
C          268.03666451040561        0.02072817713224        0.03921946441250
C          269.37826936542388        0.00657270572638        0.02578616774283
C          270.60338498821932       -0.00368286180900        0.01042456214181
C          141.90927432618992        0.16206407541663       -0.05158847150319
C          142.52705994006703        0.08733489025090        1.21289482264638
C          141.86845326836448       -0.03616079958005        2.46258810315990
C          142.82401838532388       -0.04209477594025        3.44277831653215
C          144.09367385546969        0.08710742887465        2.81861660181067
N          143.86404163712461        0.14807122508259        1.46977327389607
C          145.34653031154761        0.13198155072560        3.44612123639571
C          145.34492597846736        0.11959277803736        4.92628776730089
C          144.67456570024021        1.10613059992023        5.65234396637821
C          144.67191933084965        1.10168269686646        7.03498137917570
C          145.33047322619856        0.09289145804928        7.75481298409075
N          145.36786719779178        0.11327472608841        9.14489014788983
C          144.33465764018453        0.88723895453300        9.83431924935933
C          145.74291913849240       -1.12421215996759        9.82921555689237
C          146.00732628498025       -0.89484160914858        7.02295671310533
C          146.01490107850680       -0.87569400982190        5.64034055846607
C          146.57528572789661        0.18714753401915        2.78435026261478
C          147.85493112632741        0.30144585869576        3.45994280172275
C          148.79889611698695        0.30087593482206        2.49540757191775
N          146.76173493548467        0.14927622425257        1.43556687645045
C          148.09357847904545        0.20234196441033        1.23370177028733
C          148.75775794012105        0.16085740353457       -0.00961713528297
C          148.13997092502419        0.13840493642215       -1.27610339404805
C          148.79869953290662        0.06481668832064       -2.52973845985988
C          147.84321604781024        0.09755314121797       -3.50937722831166
C          146.57342634719640        0.20184027597399       -2.88065988369098
N          146.80313802232052        0.20921388911577       -1.53028503658356
C          145.32071501231016        0.27159013747801       -3.50557202978411
C          145.32185681353565        0.31404755024275       -4.98511672942498
C          145.99393681603675        1.32496427461552       -5.67516133388913
C          145.99782143045613        1.36941040503182       -7.05707220884171
C          145.33894180395072        0.38739786689113       -7.81275724540664
N          145.30440118558997        0.45683262469930       -9.20130794163469
C          144.92317623215160       -0.75329677876838       -9.92962366475388
C          146.34435526355225        1.24788813619436       -9.86074895330649
C          144.65947484427002       -0.62428088202476       -7.11697277921019
C          144.65066473135241       -0.65402680755395       -5.73457125117604
C          144.09188703638529        0.30219669174517       -2.84172140499915
C          142.81247118354440        0.44475674954780       -3.51221647071985
C          141.86840881938289        0.40632581660015       -2.54846307209105
C          142.57343605439490        0.25602021317434       -1.29182397370839
N          143.90556521458507        0.21067018719203       -1.49576607046965
H          140.80061559062986       -0.11556992527238        2.58764808117603
H          142.66394813898134       -0.14044922706060        4.50401761093577
H          144.59145504400539        0.21975286878313        0.76623515991197
H          144.16717429476850        1.90637883012018        5.12422688560047
H          144.15455860144419        1.90207988057129        7.54807463306384
H          144.43705447685164        0.73597641842075       10.90827009066533
H          144.47232133226262        1.94902990232925        9.62715524771870
H          143.32968391529974        0.58208028874517        9.52260934076948
H          146.77792028558321       -1.37340861039591        9.59323268388515
H          145.09165058267214       -1.95687628367288        9.54102600815847
H          145.66918748591581       -0.96875087869621       10.90499404607531
H          146.53867521735924       -1.69257302809779        7.52566272759152
H          146.53052068467662       -1.66357693196539        5.10202573808654
H          147.99191846986866        0.38783460521320        4.52561845579456
H          149.86968898840348        0.37201526854275        2.60095892809419
H          149.86654940249335       -0.00952358345165       -2.65776849930786
H          148.00343835712712        0.04126161331152       -4.57365516211670
H          146.07571962170772        0.25252071432466       -0.82444363722388
H          146.50173823259928        2.10542122104863       -5.11861414304524
H          146.51636917020525        2.18688171663743       -7.54122898651905
H          145.57134687290741       -1.59867891784096       -9.67317532739878
H          143.88749977455913       -1.00652744190454       -9.70113769816854
H          144.99587085354565       -0.55890280376284      -10.99912150503651
H          147.34633442616263        0.92862720305205       -9.55366985770329
H          146.24705417215759        1.13108970743213      -10.93942738023414
H          146.21012890850156        2.30318285564611       -9.62073744594709
H          144.12753045993952       -1.40303474815484       -7.64796565081899
H          144.13341789034126       -1.45968893731418       -5.22490741756999
H          142.67572857146365        0.57415131818989       -4.57356655473305
H          140.79768468469538        0.48261902520585       -2.65105926467696
C          160.49736779912243        0.12628772574912       -0.00437724663210
C          161.12020805340649        0.05600923014643        1.25796016689813
C          160.46622004135762       -0.06146514431092        2.51067327781154
C          161.42566520228158       -0.06706002972832        3.48706064404039
C          162.69313595084606        0.05682517524106        2.85743277129373
N          162.45826253473976        0.11398840545656        1.50924275217899
C          163.94866775463325        0.10065084921057        3.47947541803239
C          163.95390603495838        0.09173293829143        4.95956873498027
C          163.28779472928730        1.08048005862445        5.68657227539405
C          163.29187702627354        1.07924789401990        7.06918374072535
C          163.95321977722872        0.07165573840964        7.78817392221265
N          163.99745115539730        0.09548054812329        9.17788495506631
C          162.96712638862164        0.87040975493419        9.87056566264210
C          164.37778996962430       -1.13958201807239        9.86361415387040
C          164.62578830299407       -0.91831175972138        7.05534306108535
C          164.62659222767118       -0.90241761545358        5.67269366811325
C          165.17455172888631        0.15263500349830        2.81197899711387
C          166.45730418689217        0.26745202583099        3.48147150156055
C          167.39676825234858        0.26541981275038        2.51255133878212
N          165.35466583026147        0.11245985425292        1.46245527594625
C          166.68559584998846        0.16521072879843        1.25428698054049
C          167.34425803262701        0.12322761967584        0.00810276530883
C          166.72158531258208        0.09849702229320       -1.25593570133922
C          167.37563543723334        0.02554268927092       -2.51203177401349
C          166.41625346532362        0.05522058733350       -3.48800212033360
C          165.14875717792830        0.15682559420059       -2.85436478106878
N          165.38362241034150        0.16599495497835       -1.50495584021602
C          163.89328551486676        0.22234726472807       -3.47431737155393
C          163.88806249764184        0.26371465155552       -4.95391056884818
C          164.55257724996679        1.27738657481300       -5.64720619779488
C          164.54872707742365        1.32236438826122       -7.02909448547095
C          163.88946224172034        0.33811303635170       -7.78154402449542
N          163.84577313172912        0.40834559051490       -9.16967649712298
C          163.46696846171437       -0.80328715645747       -9.89671961149889
C          164.87540999559769        1.20732629677900       -9.83555538153552
C          163.21858880960838       -0.67702942984359       -7.08241375599924
C          163.21727221897601       -0.70719977884815       -5.70001275173926
C          162.66736486611927        0.25148819871053       -2.80534692260793
C          161.38477793416769        0.38977242268815       -3.47064264149994
C          160.44520009061839        0.35527550672134       -2.50242495298674
C          161.15610982145097        0.21129626766935       -1.24828573551226
N          162.48713518800676        0.16505070041429       -1.45806396151815
H          159.39868588854495       -0.13771560796626        2.64019872303846
H          161.26954830386438       -0.16179494733002        4.54921677854919
H          163.18314676988996        0.18178389093971        0.80270077870550
H          162.77870371502664        1.88005962377283        5.15908814014273
H          162.77777236769037        1.88128623538077        7.58298381396838
H          163.07403364942181        0.72072941613427       10.94428253014805
H          163.10378170300973        1.93190960497315        9.66123529417857
H          161.96091059271541        0.56467851153270        9.56349600971826
H          165.41172877232046       -1.38824449643787        9.62243266829984
H          163.72586424394001       -1.97382689647664        9.58154043386484
H          164.31002054853974       -0.98109738859340       10.93933726964612
H          165.15897818347099       -1.71528388200889        7.55729038998478
H          165.13896386107803       -1.69195718707715        5.13370488412087
H          166.59928410483570        0.35541875792156        4.54635436418960
H          168.46804534399291        0.33650525691910        2.61305173502944
H          168.44316239708269       -0.04629545921596       -2.64414725133984
H          166.57237878987837       -0.00131545967944       -4.55287826570319
H          164.65875112065208        0.20872043203494       -0.79644659430597
H          165.06029165238778        2.05966288826787       -5.09314296262227
H          165.06140448357880        2.14206286649014       -7.51571710661867
H          164.12102216105154       -1.64535903804854       -9.64435965248943
H          162.43392724565049       -1.06222118907189       -9.66274475669955
H          163.53278815457782       -0.60785924943044      -10.96645646109462
H          165.88184107668519        0.89384480198127       -9.53715472487750
H          164.77025732886003        1.09217763134991      -10.91367371887002
H          164.73634085840050        2.26123050369372       -9.59222161452514
H          162.68724438661724       -1.45793875538418       -7.61082656330402
H          162.70617644497588       -1.51515572088708       -5.18779210254679
H          161.24308250007854        0.51398213561204       -4.53195524431689
H          159.37397612430919        0.43034178811779       -2.60055277571021
C          179.08355952341591        0.12678160793436       -0.00900355503457
C          179.70577468812138        0.05835284066609        1.25370967360718
C          179.05095432228188       -0.05821099670119        2.50611353261968
C          180.00968498551774       -0.06225550756655        3.48319007436376
C          181.27750480901750        0.06161295447164        2.85429481900362
N          181.04355222563291        0.11764822041348        1.50588057806484
C          182.53273981878689        0.10547877346838        3.47683066152657
C          182.53750201322316        0.09648567515826        4.95689428247473
C          181.87123322789705        1.08514467556858        5.68387017215986
C          181.87426293054261        1.08322172810319        7.06648146897785
C          182.53460617299370        0.07497996580753        7.78549785332496
N          182.57720482371130        0.09775007645875        9.17525635559041
C          181.54634297659845        0.87252551043683        9.86730571455497
C          182.95623367568362       -1.13797973512136        9.86050655943270
C          183.20762353430052       -0.91470012014157        7.05269411539310
C          183.20954167331763       -0.89808250511448        5.67006129016527
C          183.75861782392425        0.15662159021670        2.80926592359470
C          185.04155719042947        0.27052234692069        3.47846926647171
C          185.98079225989335        0.26754489064485        2.50932749441488
N          183.93833991817999        0.11607856795835        1.45970006526450
C          185.26924631629922        0.16767529583834        1.25122719599074
C          185.92776867596237        0.12497146283306        0.00502889464573
C          185.30571150223608        0.10127303466114       -1.25934503649485
C          185.96056268441890        0.02859892220122       -2.51505842684132
C          185.00186718415642        0.05918368877877       -3.49169124658713
C          183.73403782998017        0.16110361294169       -2.85885177598445
N          183.96797732382112        0.16968100678421       -1.50928719149736
C          182.47880195638311        0.22687876362134       -3.47934012393023
C          182.47379858302591        0.26846989429960       -4.95886587763708