120
 energy: -209.934312725107 gnorm: 0.547466944848 xtb: 6.5.1 (b24c23e)
Zn          16.72044600000000       -0.03046100000000       -0.00246500000000
C           13.38244900000000        0.09269400000000        0.06961300000000
C           14.04442400000000        1.24213800000000        0.23053500000000
C           13.39355300000000        2.53944500000000        0.36771000000000
C           14.33352200000000        3.45010300000000        0.54039700000000
C           15.63859900000000        2.77468700000000        0.53440100000000
N           15.46181400000000        1.37266900000000        0.32731600000000
C           16.83053300000000        3.38054100000000        0.71605400000000
C           16.87974400000000        4.83900600000000        0.96832500000000
C           16.39706500000000        5.36814900000000        2.17603200000000
C           16.46001800000000        6.74399600000000        2.41651700000000
C           17.01085400000000        7.60054000000000        1.45485600000000
C           17.07686600000000        9.01676200000000        1.70356900000000
N           17.12992500000000       10.15533800000000        1.90361600000000
C           17.49996200000000        7.07553700000000        0.25192200000000
C           17.43664500000000        5.69988100000000        0.01012900000000
C           18.12196700000000        2.64481700000000        0.68453800000000
C           19.40530800000000        3.22989700000000        1.09183200000000
C           20.34011000000000        2.32000200000000        0.90702200000000
N           18.26499500000000        1.42297100000000        0.27094700000000
C           19.66032600000000        1.14226800000000        0.38183800000000
C           20.25488600000000        0.00023400000000        0.00006600000000
C           19.49167300000000       -1.15985800000000       -0.51136100000000
C           20.02259100000000       -2.15237700000000       -1.21421800000000
C           18.97997400000000       -3.13817400000000       -1.42371200000000
C           17.88206700000000       -2.68428100000000       -0.83019700000000
N           18.11546200000000       -1.41095600000000       -0.22629200000000
C           16.60357300000000       -3.43561800000000       -0.74407600000000
C           16.62683200000000       -4.90115700000000       -0.97161800000000
C           15.94266100000000       -5.46519900000000       -2.06106300000000
C           15.98454300000000       -6.84519600000000       -2.28142700000000
C           16.71619700000000       -7.67207200000000       -1.41982100000000
C           16.76021300000000       -9.09263500000000       -1.64785700000000
N           16.79563700000000      -10.23471800000000       -1.83111300000000
C           17.40792900000000       -7.11312300000000       -0.33790400000000
C           17.36601200000000       -5.73329500000000       -0.11618600000000
C           15.44125200000000       -2.81648400000000       -0.46139200000000
C           14.13396300000000       -3.45425000000000       -0.31441400000000
C           13.27198300000000       -2.47929800000000       -0.09901800000000
C           14.02019200000000       -1.22332000000000       -0.09410800000000
N           15.28521800000000       -1.40764000000000       -0.30436100000000
H           12.29908900000000        0.12052000000000        0.06025600000000
H           12.33020300000000        2.73858600000000        0.33050300000000
H           14.14548700000000        4.50885900000000        0.66165700000000
H           15.97475900000000        4.71437000000000        2.92930400000000
H           16.08193500000000        7.13905100000000        3.35181800000000
H           17.93079100000000        7.72868200000000       -0.49741900000000
H           17.81969100000000        5.30465100000000       -0.92275100000000
H           19.57597500000000        4.22599900000000        1.47861500000000
H           21.39388800000000        2.45199900000000        1.11324500000000
H           21.04836000000000       -2.23277600000000       -1.54825100000000
H           19.08908800000000       -4.08063200000000       -1.94458300000000
H           15.38130700000000       -4.83514900000000       -2.74009500000000
H           15.44981800000000       -7.26643000000000       -3.12428400000000
H           17.97985000000000       -7.74311800000000        0.33276900000000
H           17.90638100000000       -5.31272800000000        0.72312800000000
H           13.89236700000000       -4.50771800000000       -0.36554400000000
H           12.20736400000000       -2.60217500000000        0.05083200000000
Zn          30.50425700000000        0.03074600000000       -0.00412300000000
C           33.84225400000000       -0.08832600000000        0.07451700000000
C           33.18028000000000       -1.22737300000000        0.29742900000000
C           33.83115000000000       -2.51535200000000        0.50463400000000
C           32.89118100000000       -3.41532500000000        0.72636800000000
C           31.58610400000000       -2.74122400000000        0.68381600000000
N           31.76289000000000       -1.35247300000000        0.40113500000000
C           30.39417000000000       -3.33635600000000        0.89800200000000
C           30.34496000000000       -4.77902500000000        1.22885800000000
C           30.82763800000000       -5.24201100000000        2.46344100000000
C           30.76468500000000       -6.60282100000000        2.77805600000000
C           30.21384900000000       -7.51017000000000        1.86417600000000
C           30.14783700000000       -8.91085100000000        2.18919400000000
N           30.09477800000000      -10.03692700000000        2.45058500000000
C           29.72474100000000       -7.05105900000000        0.63458400000000
C           29.78805800000000       -5.69051000000000        0.31867300000000
C           29.10273700000000       -2.60341700000000        0.82670300000000
C           27.81939500000000       -3.16558900000000        1.26507300000000
C           26.88459300000000       -2.26703400000000        1.03127600000000
N           28.95970800000000       -1.40575300000000        0.34757200000000
C           27.56437700000000       -1.11945800000000        0.44310300000000
C           26.96981700000000        0.00023400000000        0.00006600000000
C           27.73303000000000        1.13093700000000       -0.57341500000000
C           27.20211200000000        2.08395100000000       -1.32897200000000
C           28.24472900000000        3.05696100000000       -1.59152700000000
C           29.34263600000000        2.63586400000000       -0.97431000000000
N           29.10924100000000        1.39710000000000       -0.30235700000000
C           30.62113000000000        3.39076100000000       -0.92898900000000
C           30.59787200000000        4.84183300000000       -1.23553700000000
C           31.28204200000000        5.34607000000000       -2.35391900000000
C           31.24016000000000        6.71211300000000       -2.64866800000000
C           30.50850600000000        7.58442000000000       -1.83309000000000
C           30.46449000000000        8.99055600000000       -2.13769600000000
N           30.42906600000000       10.12104200000000       -2.38251100000000
C           29.81677400000000        7.08486200000000       -0.72250000000000
C           29.85869100000000        5.71906100000000       -0.42640800000000
C           31.78345100000000        2.78783900000000       -0.61320200000000
C           33.09074000000000        3.43262700000000       -0.50096600000000
C           33.95272100000000        2.47076500000000       -0.23310500000000
C           33.20451100000000        1.21689500000000       -0.16020900000000
N           31.93948500000000        1.38956300000000       -0.38013200000000
H           34.92561400000000       -0.11661800000000        0.06668000000000
H           34.89450000000000       -2.71621500000000        0.47826300000000
H           33.07921600000000       -4.46596400000000        0.90476800000000
H           31.24994400000000       -4.54841200000000        3.18021400000000
H           31.14276800000000       -6.94666300000000        3.73337300000000
H           29.29391200000000       -7.74381400000000       -0.07829900000000
H           29.40501200000000       -5.34636300000000       -0.63423600000000
H           27.64872800000000       -4.13929100000000        1.70521400000000
H           25.83081500000000       -2.38767300000000        1.24434200000000
H           26.17634300000000        2.14614900000000       -1.66686700000000
H           28.13561500000000        3.96983800000000       -2.16265500000000
H           31.84339599999999        4.68018300000000       -2.99784700000000
H           31.77488500000000        7.08710000000000       -3.51309400000000
H           29.24485400000000        7.75024100000000       -0.08691600000000
H           29.31832199999999        5.34454900000000        0.43444300000000
H           33.33233600000000        4.48178200000000       -0.60905200000000
H           35.01733900000000        2.60157500000000       -0.09012700000000
C           22.87686000000000        0.01240500000000        0.00243300000000
C           21.62459000000000       -0.00677600000000       -0.00191600000000
C           24.19052800000000        0.01163900000000        0.00436500000000
C           25.69366200000000       -0.00677600000000       -0.00191600000000
120
 energy: -210.075247737928 gnorm: 0.304566323829 xtb: 6.5.1 (b24c23e)
Zn          16.72376569109903       -0.02527699132360       -0.00107894745737
C           13.38128837351066        0.07276932709473        0.06759931453237
C           14.04785774520235        1.24283737109340        0.23038429257488
C           13.39357596446041        2.53218627477673        0.36661669838586
C           14.34548570449314        3.45270572212961        0.54201278835429
C           15.63755107236173        2.77098972805377        0.53416851389720
N           15.43644462599392        1.39851246028197        0.32598553567865
C           16.84829328098820        3.37860524890168        0.71824206111521
C           16.88868828143420        4.84092880634773        0.97198750771717
C           16.39803582793058        5.37330526392217        2.17094308611915
C           16.46026700265482        6.74138298671229        2.41275239224478
C           17.01088543507710        7.60096409899128        1.45491119622850
C           17.07670877051140        9.01181792449852        1.70275080177503
N           17.12932246769893       10.14422286187426        1.90168961102856
C           17.49844958107612        7.07236887376952        0.25394725002131
C           17.43806204691529        5.70366215998083        0.01679920821578
C           18.11561635041192        2.66951021319012        0.68838161248889
C           19.38874868740932        3.24952922874069        1.09344901061003
C           20.33414892017734        2.31734094765152        0.90461426313199
N           18.28012388501199        1.42462231282564        0.28435356337697
C           19.65688789917748        1.15076509316170        0.38446161796039
C           20.26194164028380       -0.01302077263632       -0.01197631705160
C           19.48582877800240       -1.16118533520772       -0.49824335803253
C           20.02772578716781       -2.18130218092249       -1.22350186520549
C           19.00704413836671       -3.14459528969657       -1.42660858950966
C           17.87707114812977       -2.67713033575361       -0.81573430500932
N           18.12531849696273       -1.41421010858534       -0.23874958865787
C           16.62114496191656       -3.42478309510332       -0.74106806102113
C           16.63969249046665       -4.89578614251622       -0.97716589090831
C           15.94602234807455       -5.46685941395640       -2.05490304885474
C           15.98590614218271       -6.84033550160618       -2.27696588160306
C           16.71622020960231       -7.67151630648245       -1.41968326255471
C           16.76018217583831       -9.08710400195153       -1.64713417486412
N           16.79510496687620      -10.22304792387876       -1.82925108902548
C           17.40534960837114       -7.10829932123286       -0.33935805808317
C           17.36692891374681       -5.73462093295918       -0.12292482773161
C           15.43970565516433       -2.81595751608851       -0.46023869168565
C           14.14062175347505       -3.45154087935199       -0.31648472625468
C           13.25716054091465       -2.46708670185082       -0.09748290822461
C           13.99467044869095       -1.21635111227452       -0.09409395048081
N           15.27845378116618       -1.42307455477571       -0.29804061561941
H           12.29848088047638        0.10949938617486        0.06070589952298
H           12.33048447836672        2.72507258952373        0.32877925252760
H           14.16331703669827        4.51078011713170        0.66340213691241
H           15.97704227268098        4.71606856204247        2.92500171116191
H           16.08323424763632        7.13853428511789        3.34899929289791
H           17.92911398657871        7.72774313964076       -0.49515285320143
H           17.81816072614164        5.30538076428894       -0.91832650267834
H           19.56170465484155        4.23890744876482        1.48020994290554
H           21.38950511063022        2.43776790301467        1.10797706421624
H           21.05048119091828       -2.24403267526307       -1.55652163879759
H           19.10036412213907       -4.08206858514664       -1.94994135888453
H           15.38456060342817       -4.83562960665693       -2.73594558211098
H           15.45184784220036       -7.26442893559380       -3.12099437583917
H           17.97744055139468       -7.74120516356146        0.33068004813283
H           17.90467981567641       -5.31298299093622        0.71953772526573
H           13.90836939542448       -4.50603116049074       -0.36761008251843
H           12.19796717207825       -2.59104185406555        0.05291122501524
Zn          30.50008974531688        0.02550430155538       -0.00236567627246
C           33.84342634792014       -0.06850234472391        0.07141522527263
C           33.17681559487768       -1.22815277442567        0.29731219785798
C           33.83110500663609       -2.50810957078714        0.50312677298426
C           32.87906726476176       -3.41782971683558        0.72807520023079
C           31.58717912125327       -2.73753913498142        0.68334209057679
N           31.78826043712118       -1.37823355223025        0.40122158943757
C           30.37606254472174       -3.33404001780213        0.90009857959842
C           30.33598268996832       -4.78059555566833        1.23260614367751
C           30.82666650512698       -5.24736889891711        2.45861569531111
C           30.76442202671701       -6.60037356182464        2.77413814151793
C           30.21381977241159       -7.51056429163723        1.86424885550386
C           30.14798849187843       -8.90594633585954        2.18810867406124
N           30.09538873347366      -10.02591938684025        2.44805533818967
C           29.72628643402956       -7.04773946834618        0.63642884549972
C           29.78665616917710       -5.69385305347607        0.32553378029265
C           29.10842308738263       -2.62827862917900        0.83199094083430
C           27.83713569637690       -3.18616616424106        1.26787594978266
C           26.89070694793448       -2.26509265030089        1.02951979675453
N           28.94093342917419       -1.40573918657621        0.36018524408252
C           27.56461377330176       -1.13066707056634        0.44807670028028
C           26.94295877069016        0.01436690633923       -0.01170125935330
C           27.73649966955636        1.13473267017202       -0.56103320199552
C           27.19688524022315        2.11240496309146       -1.34074631220990
C           28.21822755704722        3.06348876784272       -1.59481483017333
C           29.34731483040987        2.62944372966191       -0.95935813528597
N           29.09736462188159        1.39930830738336       -0.31421858889211
C           30.60359879155357        3.37999324366784       -0.92535444989602
C           30.58501289320494        4.83609832357145       -1.24075920083939
C           31.27868243632675        5.34803078490986       -2.34784239450729
C           31.23879041717102        6.70748067804075       -2.64394161936002
C           30.50848316908765        7.58386155142974       -1.83292046817939
C           30.46451917017098        8.98506814234020       -2.13667542866684
N           30.42959989977406       10.10948361701158       -2.38001785234610
C           29.81936059041783        7.07994770684890       -0.72368728802562
C           29.85776601893120        5.71999284282731       -0.43320749635499
C           31.78497630401027        2.78734791911201       -0.61203820146522
C           33.08405367407347        3.42980204316642       -0.50286745779269
C           33.96749696282873        2.45865110613598       -0.23089473728317
C           33.22993232166402        1.20994266030835       -0.15980190118606
N           31.94612577824254        1.40516091649547       -0.37467562522770
H           34.92622593062163       -0.10556667585382        0.06652332752548
H           34.89419658989797       -2.70278284084735        0.47581361413385
H           33.06130980291312       -4.46776739785447        0.90661176550593
H           31.24765596063542       -4.55032025122762        3.17602183272836
H           31.14146396433797       -6.94627242361648        3.73051249578760
H           29.29559520294169       -7.74271674154670       -0.07607971797773
H           29.40652652837491       -5.34682310933483       -0.62977613576256
H           27.66363987546479       -4.15270709653227        1.70769740647714
H           25.83513607389693       -2.37378746081803        1.23838635962874
H           26.17394849117605        2.15714743462272       -1.67593781166514
H           28.12467537819927        3.97116167266419       -2.16806926582495
H           31.84014204078955        4.68087739253761       -2.99373117011129
H           31.77285084497632        7.08526524746517       -3.50969221746154
H           29.24726837733248        7.74820478310166       -0.08889828634112
H           29.32001655381473        5.34460303972856        0.43085046006614
H           33.31632442838679        4.47997508894527       -0.61102038113168
H           35.02670402870629        2.59055630268907       -0.08744970294108
C           22.91937937223268        0.00378464000010        0.00196983327422
C           21.66045303968743       -0.02446158155390       -0.00583432848517
C           24.25690908379763        0.01666074091848        0.00325980822305
C           25.58026480868339        0.01488970999015       -0.01065859423112
120
 energy: -210.114708953171 gnorm: 0.294197382987 xtb: 6.5.1 (b24c23e)
Zn          16.73496490727379       -0.02102265332120        0.00361304047263
C           13.38509410370033        0.05240073719844        0.06538738465178
C           14.05327684048737        1.24868959129911        0.22856912035170
C           13.39471008334515        2.52616425112671        0.36569342988727
C           14.35742066209854        3.45453389753962        0.54378456737512
C           15.63246061567744        2.76564940572518        0.53151546839510
N           15.40743937426846        1.42796609810060        0.32635803960847
C           16.86939567960968        3.37004344107146        0.71993750557699
C           16.89650031530640        4.83821999473567        0.97543967197363
C           16.39968389504882        5.37540817184696        2.16691485376440
C           16.46011117867094        6.73754843155872        2.40925738583810
C           17.01077822648476        7.60003685734839        1.45476776636373
C           17.07641355129312        9.00443818720921        1.70157544400535
N           17.12892620776966       10.13760543348811        1.90058138821311
C           17.49752161781961        7.06823306833459        0.25558293628192
C           17.44046453751495        5.70461119437980        0.02317658877085
C           18.11053482221452        2.69226640636787        0.69208282468992
C           19.37496316673196        3.26428488870959        1.08904379163097
C           20.32610927208759        2.31468445123979        0.89959199300247
N           18.30276881078411        1.41759507841915        0.29750912893690
C           19.65510355766682        1.15406238413960        0.38995649216804
C           20.27258234957045       -0.03070793911784       -0.02289995524810
C           19.48778205197522       -1.15945223727426       -0.48492814753785
C           20.03401804966476       -2.21755044660109       -1.22784249810935
C           19.04290726808122       -3.14969231971585       -1.42214207469807
C           17.87654093268919       -2.66873457389110       -0.80015748651715
N           18.14881237535434       -1.42103210656126       -0.25723644632506
C           16.64793801700689       -3.40589564464918       -0.73840544533135
C           16.65651525579996       -4.88343560398385       -0.98444478883559
C           15.95198350052162       -5.46330653093878       -2.04965558327097
C           15.98697682107370       -6.83186850706178       -2.27160322624616
C           16.71632760616693       -7.66826577549220       -1.41906692604544
C           16.75969707421071       -9.07787606416009       -1.64577175732987
N           16.79472731163691      -10.21464625914411       -1.82806856082864
C           17.40392926726414       -7.10110568374007       -0.34059612471089
C           17.37099510465492       -5.73182774843385       -0.13058717175097
C           15.43660296765341       -2.80902048285685       -0.45516677207800
C           14.14846935932054       -3.44390232354940       -0.31900539697757
C           13.24616103023306       -2.45613394236405       -0.10040136089279
C           13.96768433117701       -1.20858811914996       -0.09308459956502
N           15.27613571029448       -1.44163398152695       -0.28838832863670
H           12.30115063275204        0.10088491117243        0.06538841799890
H           12.33149178134794        2.70989241053028        0.32707268671252
H           14.18466199095046        4.51252887363883        0.66586899923161
H           15.97889803593691        4.71618243178526        2.92044038291445
H           16.08402112931632        7.13827197272934        3.34513696071139
H           17.92649781171429        7.72700369822960       -0.49247981152802
H           17.81787833784142        5.30426111548772       -0.91317575389182
H           19.54751838163912        4.25052729979610        1.47953874935829
H           21.38237420791748        2.42261656408998        1.10190534562407
H           21.05524166891719       -2.25624896971428       -1.56389721485075
H           19.11131253292483       -4.08366849533550       -1.95348381646987
H           15.38820640491314       -4.83320288350981       -2.73115784737207
H           15.45345311521897       -7.26020257854256       -3.11529433553757
H           17.97341983109609       -7.73835742312090        0.32892422211016
H           17.90523507755054       -5.31095133293530        0.71542649930959
H           13.92789188042710       -4.50064264054913       -0.36977688712592
H           12.18927691255509       -2.58123105826183        0.05291724939412
Zn          30.48802534850822        0.02163000784529        0.00261250741403
C           33.83950217128122       -0.04826896235473        0.06809234943823
C           33.17116885070205       -1.23401918642796        0.29580647412932
C           33.82965288644888       -2.50212305252062        0.50188218370561
C           32.86667717977056       -3.41942138027440        0.72999723684208
C           31.59168916486161       -2.73200194213371        0.68026055148256
N           31.81700451981880       -1.40745853351738        0.40302593236514
C           30.35367668051856       -3.32405732652938        0.90081887066045
C           30.32747768744986       -4.77692837655503        1.23583911437764
C           30.82480951711364       -5.24933304424746        2.45449293038708
C           30.76459016712008       -6.59648768075549        2.77026555996071
C           30.21392946747944       -7.50951349835161        1.86400448829096
C           30.14830621705438       -8.89853792271834        2.18650150308396
N           30.09578781700875      -10.01928280952449        2.44656245998013
C           29.72725153762886       -7.04333427814328        0.63780228998265
C           29.78413649333179       -5.69419336018392        0.33193689783725
C           29.11175508612413       -2.64811533426191        0.83605270342266
C           27.84967801291735       -3.19953964197221        1.26405326196947
C           26.89648358002723       -2.26218796412874        1.02405772014667
N           28.91453100476430       -1.39508927502925        0.37224643121649
C           27.56078097664625       -1.13050900780809        0.45040471261884
C           26.92124953937350        0.02775117626969       -0.02406790798257
C           27.72830116938001        1.13003119047891       -0.54516398007867
C           27.18804559105241        2.14753131892486       -1.34603558246679
C           28.18112734999433        3.06735784523316       -1.59046966963237
C           29.34594140602981        2.61982515724707       -0.94228854952727
N           29.06935256729925        1.40227377308045       -0.33176816504334
C           30.57550876996412        3.36021536611481       -0.92130797901752
C           30.56758937690747        4.82273228741849       -1.24740104912704
C           31.27250270419000        5.34445966867603       -2.34227744367608
C           31.23768645066981        6.69910493457746       -2.63801509145380
C           30.50836698843657        7.58054382234350       -1.83210951495401
C           30.46501864718670        8.97584581966069       -2.13480362366853
N           30.42997782505540       10.10109140717413       -2.37838017049260
C           29.82080358834835        7.07256139119539       -0.72451850457064
C           29.85360256990382        5.71659491269447       -0.44070606143850
C           31.78754184749603        2.78040602165828       -0.60650690367298
C           33.07582206252547        3.42194116657437       -0.50506854933994
C           33.97828371298675        2.44754727654165       -0.23328269659361
C           33.25679308464908        1.20219835295207       -0.15841152153378
N           31.94829392279284        1.42410111458520       -0.36601494737562
H           34.92346349927980       -0.09673318491199        0.07072839007510
H           34.89291888885776       -2.68776757792180        0.47328842446340
H           33.03971079693087       -4.46926523754436        0.90914759398053
H           31.24574074720320       -4.55054203283215        3.17138298444523
H           31.14068077745152       -6.94602987405028        3.72649668751603
H           29.29826673512315       -7.74171407270177       -0.07346460677781
H           29.40673430649401       -5.34538499933464       -0.62477970928264
H           27.67751296639322       -4.16340786216440        1.70743973070297
H           25.84075188777302       -2.36014448443222        1.23223887312004
H           26.16771042074270        2.16962338600290       -1.68470808181185
H           28.11352652908545        3.97160847926243       -2.17158446922805
H           31.83642038343933        4.67858981463797       -2.98875627967525
H           31.77122206324381        7.08119307017021       -3.50367680688309
H           29.25132653133584        7.74518798567281       -0.09050053254311
H           29.31937826707217        5.34232570212524        0.42690854314855
H           33.29653476672915        4.47439723740520       -0.61293688780475
H           35.03521402557824        2.58079438654170       -0.08695295181180
C           22.94595942144143       -0.00482195124283       -0.00070676665249
C           21.70661322088033       -0.04289173919773       -0.01812331004746
C           24.33688878547743        0.02429563789986       -0.00604276243657
C           25.48316489542735        0.03653496101263       -0.01712934777501
120
 energy: -210.137272024767 gnorm: 0.067430309493 xtb: 6.5.1 (b24c23e)
Zn          16.74064008964280       -0.01857470271738        0.00790181168249
C           13.38274791025896        0.04770243764345        0.06602257217668
C           14.05036878077025        1.25180088510711        0.22686903255640
C           13.39503073426884        2.52645489660962        0.36509778513469
C           14.36215032576644        3.45693736713425        0.54471953293688
C           15.63063788488683        2.76775412931601        0.53068352449261
N           15.39836273900522        1.43761489715388        0.32319364969401
C           16.87419647606880        3.36972682458029        0.72225276670303
C           16.90317039602353        4.83700132814785        0.97890874816380
C           16.40113401235282        5.37482578857885        2.16597195883756
C           16.45931077714159        6.73558683573246        2.40759253998247
C           17.01052369740411        7.59723324177700        1.45429039835090
C           17.07571302175555        8.99867727535361        1.70056914248033
N           17.12855723087320       10.13077960558781        1.89943459518093
C           17.49813673827901        7.06608797945460        0.25648894453343
C           17.44579641103232        5.70323300962512        0.02737299140682
C           18.10838979011833        2.70141913313634        0.69633351555503
C           19.36999602587615        3.27419591411755        1.08432185611446
C           20.31795976735594        2.31559131671623        0.89588801984120
N           18.30259650563208        1.41624727171338        0.31146741445112