274
 energy: -407.945734876560 gnorm: 50.841278988304 xtb: 6.5.1 (b24c23e)
Zn          52.62617500000000        1.98031700000000        1.61562500000000
C           48.87508400000000        0.08683400000000       -0.04401500000000
C           49.52471700000000        0.94003500000000        0.75309300000000
C           48.86001000000000        1.85867400000000        1.66943400000000
C           49.79021600000000        2.57183300000000        2.27669800000000
C           51.10244700000000        2.15084300000000        1.76658300000000
N           50.94064800000000        1.10666700000000        0.80569200000000
C           52.28785899999999        2.68113200000000        2.13316300000000
C           52.32172199999999        3.79461500000000        3.10905400000000
C           51.83392100000000        5.06172100000000        2.75838400000000
C           51.88211900000000        6.11357400000000        3.67709300000000
C           52.42317600000000        5.91912300000000        4.95787400000000
N           52.45963100000000        7.02244500000000        5.88186800000000
C           53.00104399999999        6.92490000000000        7.23339000000000
C           52.91859700000000        4.64684400000000        5.30336200000000
C           52.86899600000000        3.59507600000000        4.38397800000000
C           53.58699800000000        2.20261300000000        1.59155000000000
C           54.86380100000000        2.89669500000000        1.79936700000000
C           55.80825400000000        2.18696000000000        1.21609600000000
N           53.74315700000000        1.11297400000000        0.90404300000000
C           55.14126399999999        1.03244100000000        0.62684800000000
C           55.74804600000000        0.02106800000000       -0.01537900000000
C           54.99742600000000       -1.11240800000000       -0.59987200000000
C           55.53915900000000       -2.27983300000000       -0.92326100000000
C           54.50709299999999       -3.07112700000000       -1.56468000000000
C           53.40413300000000       -2.33205200000000       -1.59497500000000
N           53.62380000000000       -1.05904800000000       -0.98529400000000
C           52.13357899999999       -2.74772900000000       -2.24259600000000
C           52.17213199999999       -3.84875600000000       -3.23580800000000
C           52.91784800000000       -3.70537900000000       -4.41447100000000
C           52.97488000000000       -4.74618000000000       -5.34582000000000
C           52.28899199999999       -5.95294200000000       -5.10860000000000
N           52.32773300000000       -7.04329100000000       -6.04778400000000
C           53.06445799999999       -6.99764400000000       -7.30650200000000
C           51.55142200000000       -6.09404700000000       -3.92262900000000
C           51.49571800000000       -5.05332100000000       -2.99178300000000
C           50.96481499999999       -2.14545800000000       -1.95021800000000
C           49.66443900000000       -2.44222900000000       -2.54876900000000
C           48.79214100000000       -1.66597300000000       -1.93520400000000
C           49.52689400000000       -0.86527000000000       -0.95728800000000
N           50.79377499999999       -1.13628800000000       -0.95718000000000
H           47.79148499999999        0.08981200000000       -0.02554500000000
H           47.79457000000000        1.94811900000000        1.83851700000000
H           49.59085099999999        3.33083800000000        3.02178100000000
H           51.41819200000000        5.23376900000000        1.77306700000000
H           51.49833700000000        7.08413500000000        3.38880400000000
H           52.08005199999999        7.94818800000000        5.57865400000000
H           54.07335799999999        6.64009900000000        7.19161400000000
H           52.43104200000000        6.17073000000000        7.81564900000000
H           52.91507200000000        7.90653500000000        7.74546100000000
H           53.34510899999999        4.45894800000000        6.27912100000000
H           53.25609400000000        2.62330100000000        4.66548400000000
H           55.02365700000000        3.82559800000000        2.33086600000000
H           56.86042800000000        2.43790900000000        1.19679000000000
H           56.56588700000000       -2.58259000000000       -0.76702600000000
H           54.62641199999999       -4.06869200000000       -1.96719000000000
H           53.45291000000000       -2.78465200000000       -4.61307000000000
H           53.55623299999999       -4.60115800000000       -6.24600100000000
H           51.80271599999999       -7.91981500000000       -5.82628700000000
H           52.67608700000000       -6.17454000000000       -7.94240800000000
H           52.93792300000000       -7.95655100000000       -7.85213100000000
H           54.14572600000000       -6.84414700000000       -7.10649900000000
H           51.02016200000000       -7.01489900000000       -3.71720000000000
H           50.92864000000000       -5.18674000000000       -2.07859900000000
H           49.43412400000000       -3.14785600000000       -3.33604500000000
H           47.72891300000000       -1.63424000000000       -2.13389300000000
Zn          95.88350900000000       -1.99814300000000       -1.57153400000000
C           99.63459999999999        0.03466400000000       -0.08580800000000
C           98.98496799999999       -0.92940500000000       -0.74452200000000
C           99.64967499999999       -2.02411200000000       -1.44108100000000
C           98.71946900000000       -2.77235500000000       -2.00455100000000
C           97.40723799999999       -2.18267200000000       -1.70501200000000
N           97.56903600000000       -1.01709500000000       -0.89566200000000
C           96.22182499999998       -2.65612700000000       -2.14253600000000
C           96.18796300000000       -3.85146500000000       -3.01625000000000
C           96.67576400000000       -3.78572600000000       -4.32934000000000
C           96.62756500000000       -4.91181200000000       -5.15538600000000
C           96.08650899999999       -6.11930200000000       -4.68615500000000
N           96.05005299999999       -7.26177600000000       -5.56127600000000
C           95.50864100000000       -8.55944700000000       -5.17118000000000
C           95.59108800000000       -6.17885500000000       -3.36914700000000
C           95.64068899999998       -5.05212900000000       -2.54333100000000
C           94.92268699999998       -2.02315200000000       -1.79372600000000
C           93.64588400000000       -2.37741000000000       -2.42573900000000
C           92.70143099999999       -1.65333000000000       -1.86037400000000
N           94.76652799999998       -1.11445300000000       -0.88035700000000
C           93.36842100000000       -0.82636400000000       -0.86224800000000
C           92.76163899999999        0.02106800000000       -0.01537900000000
C           93.51225899999999        0.83880100000000        0.96324900000000
C           92.97052600000001        1.40912900000000        2.03198100000000
C           94.00259200000001        2.20775200000000        2.66425000000000
C           95.10555200000000        2.07605200000000        1.93637500000000
N           94.88588500000000        1.20329300000000        0.82707600000000
C           96.37610599999999        2.79876800000000        2.20072500000000
C           96.33755300000000        4.00829100000000        3.05850300000000
C           95.59183700000000        5.12726900000000        2.66139800000000
C           95.53480499999999        6.26327800000000        3.47390000000000
C           96.22069300000000        6.29509000000000        4.70334500000000
N           96.18195199999998        7.44955700000000        5.56249100000000
C           95.44522700000000        8.66798500000000        5.24329300000000
C           96.95826200000000        5.16848400000000        5.09982800000000
C           97.01396699999999        4.03298200000000        4.28728900000000
C           97.54487000000000        2.38202100000000        1.67676300000000
C           98.84524600000000        3.03090400000000        1.83577900000000
C           99.71754399999999        2.26274500000000        1.21210700000000
C           98.98279099999999        1.13368000000000        0.64407800000000
N           97.71590999999999        1.19271000000000        0.90858900000000
H          100.71819900000000        0.01599000000000       -0.08468400000000
H          100.71511500000000       -2.20863800000000       -1.49147700000000
H           98.91883400000000       -3.66509900000000       -2.58269100000000
H           97.09149299999999       -2.86169200000000       -4.71223700000000
H           97.01134800000000       -4.84224500000000       -6.16546500000000
H           96.42963300000000       -7.16786500000000       -6.53087300000000
H           94.43632700000001       -8.45653600000000       -4.90235700000000
H           96.07864199999999       -8.96311800000000       -4.30813400000000
H           95.59461300000000       -9.27337300000000       -6.01742900000000
H           95.16457600000000       -7.09010400000000       -2.97286900000000
H           95.25359100000000       -5.11481200000000       -1.53354800000000
H           93.48602800000000       -3.09878800000000       -3.21628600000000
H           91.64925599999999       -1.68924600000000       -2.10948900000000
H           91.94379799999999        1.32272000000000        2.36153300000000
H           93.88327300000000        2.81823300000000        3.54995100000000
H           95.05677500000000        5.12018100000000        1.71952200000000
H           94.95345099999999        7.11012500000000        3.13595300000000
H           96.70696800000000        7.42465300000000        6.46622600000000
H           95.83359799999999        9.10896700000000        4.30126800000000
H           95.57176200000001        9.40970000000000        6.06003900000000
H           94.36395899999999        8.43930800000000        5.13713500000000
H           97.48952300000001        5.16893500000000        6.04331600000000
H           97.58104500000000        3.17091400000000        4.61674900000000
H           99.07556099999999        3.95317800000000        2.35262000000000
H          100.78077200000000        2.44972200000000        1.13778500000000
C           59.53387899999999        0.03350500000000       -0.01293700000000
C           58.28160799999999        0.01432400000000       -0.01728600000000
C           60.84754699999999        0.03273900000000       -0.01100500000000
C           62.35068099999999        0.01432400000000       -0.01728600000000
C           73.51758000000000        0.03350500000000       -0.01293700000000
C           72.26530900000000        0.01432400000000       -0.01728600000000
C           74.83124800000000        0.03273900000000       -0.01100500000000
C           76.33438200000001        0.01432400000000       -0.01728600000000
C           87.50128100000001        0.03350500000000       -0.01293700000000
C           86.24901000000000        0.01432400000000       -0.01728600000000
C           88.81494900000000        0.03273900000000       -0.01100500000000
C           90.31808199999999        0.01432400000000       -0.01728600000000
Zn          67.59018399999999       -2.02661100000000       -1.59050600000000
C           63.82653200000000       -0.02271500000000        0.01721100000000
C           64.48349500000000       -0.98129400000000       -0.66119900000000
C           63.84180700000000       -2.08721500000000       -1.37585400000000
C           64.78077700000000       -2.79766600000000       -1.96828000000000
C           66.07997400000001       -2.19031200000000       -1.66493200000000
N           65.90163099999999       -1.04182400000000       -0.83294700000000
C           67.26365300000001       -2.63234900000000       -2.13649000000000
C           67.29006000000000       -3.80442200000000       -3.03616700000000
C           67.37455799999999       -5.09790500000000       -2.50515800000000
C           67.40446300000001       -6.20570600000000       -3.35661900000000
C           67.35301900000000       -6.03760000000000       -4.74997200000000
N           67.38486399999999       -7.19841300000000       -5.60102300000000
C           67.33504700000000       -7.13099600000000       -7.05776800000000
C           67.27146399999999       -4.73370500000000       -5.27783100000000
C           67.24012399999999       -3.62654700000000       -4.42502100000000
C           68.56407799999999       -2.00180400000000       -1.79990400000000
C           69.83850700000001       -2.37447400000000       -2.42658900000000
C           70.79157200000000       -1.66872000000000       -1.85291600000000
N           68.73018500000001       -1.10598600000000       -0.87733500000000
C           70.13258900000000       -0.84076200000000       -0.85085500000000
C           70.74771900000000       -0.02271500000000        0.01721100000000
C           69.99897799999998        0.77964900000000        1.00809900000000
C           70.53619799999998        1.32148400000000        2.09381700000000
C           69.50316900000000        2.11022400000000        2.73620400000000
C           68.40523700000000        1.99896900000000        1.99727200000000
N           68.62785900000000        1.15203900000000        0.87062900000000
C           67.14577300000001        2.73868900000000        2.25170100000000
C           67.20396500000000        3.96498300000000        3.08375800000000
C           66.54416999999999        4.01884500000000        4.32033300000000
C           66.61447500000000        5.17123100000000        5.10864600000000
C           67.35243699999999        6.28870800000000        4.67279600000000
N           67.44211500000000        7.49128700000000        5.45933600000000
C           66.79778700000000        7.65518700000000        6.75827800000000
C           68.01836199999998        6.22438700000000        3.43886300000000
C           67.94889900000000        5.07132000000000        2.65247600000000
C           65.97114999999999        2.33226900000000        1.73273600000000
C           64.69114300000000        3.01946400000000        1.86912800000000
C           63.80240200000000        2.26290000000000        1.25900600000000
C           64.50318100000000        1.09047800000000        0.72358300000000
N           65.77140700000000        1.12658600000000        0.99435700000000
H           62.78411600000000       -2.30753300000000       -1.43316700000000
H           64.59604600000000       -3.67541400000000       -2.57413600000000
H           67.41625700000000       -5.24731300000000       -1.43290100000000
H           67.46789699999999       -7.19846300000000       -2.92851800000000
H           67.44702500000000       -8.14509800000000       -5.16271400000000
H           66.39192000000000       -6.64277000000000       -7.38220100000000
H           68.20766700000000       -6.56042800000000       -7.43999600000000
H           67.36814300000000       -8.15630700000000       -7.48359400000000
H           67.23197900000000       -4.56341500000000       -6.34508100000000
H           67.17880100000001       -2.63015900000000       -4.84606800000000
H           69.99201399999998       -3.10054700000000       -3.21384100000000
H           71.84499099999999       -1.72424300000000       -2.09256600000000
H           71.55995199999998        1.22206400000000        2.42869900000000
H           69.61998400000000        2.70712900000000        3.63134300000000
H           65.97809500000000        3.16592400000000        4.67461000000000
H           66.09297100000001        5.18073000000000        6.05576600000000
H           67.99465499999999        8.29716600000000        5.08813400000000
H           67.18662900000000        6.89827700000000        7.47134900000000
H           67.01410400000000        8.66697200000000        7.16193100000000
H           65.69840200000000        7.54509800000000        6.65129700000000
H           68.59451100000000        7.07021600000000        3.08482600000000
H           68.47148500000000        5.04230600000000        1.70404400000000
H           64.48509000000000        3.96264600000000        2.35767800000000
H           62.74931000000000        2.49375600000000        1.17361300000000
Zn          81.57388500000000       -2.02661100000000       -1.59050600000000
C           77.81023300000000       -0.02271500000000        0.01721100000000
C           78.46719599999999       -0.98129400000000       -0.66119900000000
C           77.82550799999999       -2.08721500000000       -1.37585400000000
C           78.76447800000000       -2.79766600000000       -1.96828000000000
C           80.06367499999999       -2.19031200000000       -1.66493200000000
N           79.88533200000001       -1.04182400000000       -0.83294700000000
C           81.24735400000000       -2.63234900000000       -2.13649000000000
C           81.27376099999998       -3.80442200000000       -3.03616700000000
C           81.35825900000000       -5.09790500000000       -2.50515800000000
C           81.38816400000000       -6.20570600000000       -3.35661900000000
C           81.33672000000000       -6.03760000000000       -4.74997200000000
N           81.36856500000000       -7.19841300000000       -5.60102300000000
C           81.31874800000000       -7.13099600000000       -7.05776800000000
C           81.25516499999999       -4.73370500000000       -5.27783100000000
C           81.22382500000001       -3.62654700000000       -4.42502100000000
C           82.54777899999999       -2.00180400000000       -1.79990400000000
C           83.82220700000001       -2.37447400000000       -2.42658900000000
C           84.77527299999998       -1.66872000000000       -1.85291600000000
N           82.71388599999999       -1.10598600000000       -0.87733500000000
C           84.11629000000001       -0.84076200000000       -0.85085500000000
C           84.73141999999999       -0.02271500000000        0.01721100000000
C           83.98267900000000        0.77964900000000        1.00809900000000
C           84.51989900000000        1.32148400000000        2.09381700000000
C           83.48687000000000        2.11022400000000        2.73620400000000
C           82.38893800000000        1.99896900000000        1.99727200000000
N           82.61155999999998        1.15203900000000        0.87062900000000
C           81.12947400000000        2.73868900000000        2.25170100000000
C           81.18766599999999        3.96498300000000        3.08375800000000
C           80.52787100000000        4.01884500000000        4.32033300000000
C           80.59817600000000        5.17123100000000        5.10864600000000
C           81.33613800000001        6.28870800000000        4.67279600000000
N           81.42581600000000        7.49128700000000        5.45933600000000
C           80.78148800000000        7.65518700000000        6.75827800000000
C           82.00206300000001        6.22438700000000        3.43886300000000
C           81.93259999999998        5.07132000000000        2.65247600000000
C           79.95485100000001        2.33226900000000        1.73273600000000
C           78.67484399999999        3.01946400000000        1.86912800000000
C           77.78610300000000        2.26290000000000        1.25900600000000
C           78.48688199999999        1.09047800000000        0.72358300000000
N           79.75510800000001        1.12658600000000        0.99435700000000
H           76.76781699999999       -2.30753300000000       -1.43316700000000
H           78.57974700000000       -3.67541400000000       -2.57413600000000
H           81.39995800000000       -5.24731300000000       -1.43290100000000
H           81.45159800000000       -7.19846300000000       -2.92851800000000
H           81.43072599999999       -8.14509800000000       -5.16271400000000
H           80.37562100000000       -6.64277000000000       -7.38220100000000
H           82.19136800000000       -6.56042800000000       -7.43999600000000
H           81.35184400000000       -8.15630700000000       -7.48359400000000
H           81.21568000000001       -4.56341500000000       -6.34508100000000
H           81.16250200000000       -2.63015900000000       -4.84606800000000
H           83.97571499999999       -3.10054700000000       -3.21384100000000
H           85.82869199999999       -1.72424300000000       -2.09256600000000
H           85.54365300000001        1.22206400000000        2.42869900000000
H           83.60368500000000        2.70712900000000        3.63134300000000
H           79.96179600000001        3.16592400000000        4.67461000000000
H           80.07667200000000        5.18073000000000        6.05576600000000
H           81.97835599999999        8.29716600000000        5.08813400000000
H           81.17033000000001        6.89827700000000        7.47134900000000
H           80.99780499999999        8.66697200000000        7.16193100000000
H           79.68210300000000        7.54509800000000        6.65129700000000
H           82.57821199999998        7.07021600000000        3.08482600000000
H           82.45518600000000        5.04230600000000        1.70404400000000
H           78.46879100000000        3.96264600000000        2.35767800000000
H           76.73301099999999        2.49375600000000        1.17361300000000
274
 energy: -433.859644775643 gnorm: 13.531904889906 xtb: 6.5.1 (b24c23e)
Zn          52.57884659924649        1.85686213296236        1.54377822876373
C           48.87512990029813        0.08643406465101       -0.04440168372207
C           49.52506580567835        0.94021986039846        0.75324869549763
C           48.85985709165256        1.85846516427843        1.66924955743422
C           49.79035343306318        2.57196899826716        2.27684095236463
C           51.09667393193498        2.15078301029927        1.76672196495713
N           50.94022341105165        1.10702982251609        0.80603362983500
C           52.23970628089420        2.78229424305043        2.20791412119103
C           52.32141241990315        3.79525166932941        3.10950371632034
C           51.83394759699181        5.06183375876704        2.75857337919739
C           51.88212780434691        6.11349092135169        3.67705924171033
C           52.42319858158627        5.91940523947295        4.95814833090536
N           52.45953413788447        7.02235763637368        5.88154819482000
C           53.00104886242633        6.92488975097898        7.23339342544086
C           52.91857581187197        4.64682802623505        5.30328135131051
C           52.86897089494711        3.59527741210779        4.38403144204451
C           53.68604819380909        2.22612100424875        1.58953468438333
C           54.86412463856816        2.89692296409479        1.79947319847508
C           55.80849033005510        2.18663100127637        1.21584111378189
N           53.74524118902228        1.11111475771553        0.90251842234460
C           55.14151690706997        1.03257459823447        0.62690026857175
C           55.74786870963477        0.02045480809747       -0.01567067642433
C           54.99729160598314       -1.11133531132435       -0.59959552598641
C           55.53919632544543       -2.28087067372432       -0.92369377543048
C           54.50814341992294       -3.07134318546308       -1.56448886614898
C           53.40338444902672       -2.33125972861767       -1.59492579755064
N           53.62395885429785       -1.05943080308367       -0.98544380968941
C           52.13400547178994       -2.74764792014050       -2.24245060462330
C           52.17218526796834       -3.84876052748709       -3.23577131780588
C           52.91781142380776       -3.70553511435772       -4.41448882447494
C           52.97483154954492       -4.74616972855035       -5.34573819260363
C           52.28902083628021       -5.95317607545551       -5.10883853253435
N           52.32760281701822       -7.04323284155858       -6.04750857165305
C           53.06445768043696       -6.99763571619297       -7.30649378032535
C           51.55144434203776       -6.09396448359172       -3.92260448809252
C           51.49575907456294       -5.05334969937437       -2.99192969564410
C           50.96461419419263       -2.14526338110404       -1.95006375496902
C           49.66466845793402       -2.44237876065167       -2.54887076863800
C           48.79184657545676       -1.66576774736158       -1.93505411354056
C           49.52650953961232       -0.86504450610906       -0.95708385023870
N           50.79393513431200       -1.13655087292414       -0.95743196699874
H           47.79147909054655        0.08980130362253       -0.02556274154311
H           47.79457978854259        1.94807888963854        1.83847783558110
H           49.59092715840998        3.33085295765942        3.02178584658491
H           51.41818762314529        5.23375941775787        1.77305917434641
H           51.49833822323870        7.08414647418902        3.38881102158394
H           52.08016403040966        7.94788774035102        5.57872274937407
H           54.07325467434880        6.64011617255754        7.19163841919585
H           52.43111426512929        6.17079726277723        7.81560673220942
H           52.91506996032827        7.90642080552928        7.74536969923451
H           53.34510911870240        4.45896007199984        6.27913219232743
H           53.25609435066285        2.62327817274760        4.66548276475892
H           55.02356701785256        3.82562426582774        2.33089917348765
H           56.86041983102953        2.43784084943198        1.19675045841507
H           56.56587603509182       -2.58259798975348       -0.76702463528337
H           54.62642984416066       -4.06868880024661       -1.96716727421415
H           53.45290587333282       -2.78465184535729       -4.61306310548608
H           53.55623383408285       -4.60116988229887       -6.24601590398086
H           51.80287224013678       -7.91952889216632       -5.82633264142656
H           52.67614482732392       -6.17461388337814       -7.94236036604760
H           52.93792224190766       -7.95644036183731       -7.85204111753684
H           54.14562876980836       -6.84415053577945       -7.10653969970425
H           51.02016195138089       -7.01491452765792       -3.71720730402149
H           50.92864403775491       -5.18673283799264       -2.07859703032600
H           49.43419224434348       -3.14785762085751       -3.33603458574566
H           47.72890663544360       -1.63420172639941       -2.13385717845808
Zn          95.93083996272414       -1.90108750219584       -1.46672883938335
C           99.63455341193165        0.03513093967906       -0.08550055300489
C           98.98462055293517       -0.92959942862680       -0.74466958502911
C           99.64982850709666       -2.02388397896949       -1.44091572464807
C           98.71932888464103       -2.77252471800995       -2.00465306997602
C           97.41301627876979       -2.18279376671065       -1.70492238663210
N           97.56945949415113       -1.01750840640898       -0.89594232155033
C           96.26997355323749       -2.75115245476398       -2.22495199344273
C           96.18827237794709       -3.85204180065413       -3.01677238248734
C           96.67573727196147       -3.78593538859614       -4.32940823039088
C           96.62755585786189       -4.91176185017209       -5.15531238581255
C           96.08648685153625       -6.11962811460515       -4.68636770075161
N           96.05014879797265       -7.26144734506553       -5.56126303829618
C           95.50863741780732       -8.55944741277226       -5.17116946759332
C           95.59110924967509       -6.17877327363736       -3.36915043286760
C           95.64071426053914       -5.05222407611190       -2.54351582168944
C           94.82363537267142       -2.02631856785667       -1.81711143276046
C           93.64556511884597       -2.37756492911134       -2.42593875747850
C           92.70119404384057       -1.65300657595733       -1.86010545076520
N           94.76443677436258       -1.11255430541045       -0.87887179759154
C           93.36817012199668       -0.82645301472373       -0.86237519323732
C           92.76179696441814        0.02149501529862       -0.01483746023923
C           93.51238929534910        0.83829673017784        0.96226366255239
C           92.97048802304040        1.40978216462715        2.03290380980111
C           94.00153676872478        2.20761055674685        2.66450314298007
C           95.10630187877211        2.07582996607141        1.93560999266266
N           94.88572803440164        1.20352015912382        0.82741371114462
C           96.37567696602623        2.79861066859922        2.20067911208933
C           96.33749976732909        4.00825518829322        3.05851487235034
C           95.59187208677932        5.12732211299677        2.66154672101062
C           95.53485302565106        6.26319503285865        3.47390583626379
C           96.22066377686357        6.29537875215119        4.70352536699621
N           96.18208299400305        7.44927162850561        5.56249077056336
C           95.44522576294339        8.66797621683062        5.24328648966479
C           96.95824038376351        5.16844034166431        5.09975248315588
C           97.01392716108403        4.03313197542294        4.28728605025196
C           97.54507277746964        2.38182563650344        1.67660503492777
C           98.84501663341976        3.03103564329466        1.83590288503251
C           99.71783858360931        2.26255411174812        1.21193954884773
C           98.98317830175313        1.13343114182050        0.64390172629357
N           97.71574756852505        1.19301384035676        0.90879161291448
H          100.71820482098539        0.01600960037951       -0.08467754356137