156
 energy: -242.902200896864 gnorm: 1.627840441772 xtb: 6.5.1 (b24c23e)
Co          13.46912500000000       -0.00695100000000       -0.00474700000000
C           10.09525700000000        0.12556700000000        0.03453600000000
C           10.76397300000000        1.17820700000000        0.51314800000000
C           10.12065600000000        2.35973600000000        1.07593300000000
C           11.06767000000000        3.21219900000000        1.42105700000000
C           12.36811400000000        2.61490400000000        1.09067200000000
N           12.18354700000000        1.32071100000000        0.51824600000000
C           13.56187300000000        3.21243700000000        1.27298900000000
C           13.60742800000000        4.58033100000000        1.85254900000000
C           13.52369400000000        5.71356900000000        1.00935000000000
C           13.38589900000000        5.56311900000000       -0.48368300000000
C           13.56663500000000        6.99884500000000        1.57088900000000
C           13.68623200000000        7.17150400000000        2.95475700000000
C           13.77213000000000        8.55144500000000        3.53823100000000
C           13.79498600000000        6.04989400000000        3.78490300000000
C           13.74817700000000        4.75379000000000        3.24940100000000
C           13.85954100000000        3.56757300000000        4.17189700000000
C           14.85495600000000        2.57298900000000        0.91966000000000
C           16.14709300000000        3.26368800000000        0.99185100000000
C           17.08229100000000        2.40470200000000        0.64382700000000
N           14.99234700000000        1.33769400000000        0.54425800000000
C           16.39454300000000        1.15293000000000        0.34795600000000
C           16.98954200000000       -0.00080100000000       -0.00056000000000
C           16.23229500000000       -1.24276300000000       -0.28819200000000
C           16.78858200000000       -2.44162700000000       -0.41106700000000
C           15.73960000000000       -3.37069300000000       -0.77767700000000
C           14.60821900000000       -2.68034300000000       -0.85415900000000
N           14.82852100000000       -1.30192300000000       -0.54805000000000
C           13.30653500000000       -3.25996500000000       -1.27421800000000
C           13.29605700000000       -4.62207000000000       -1.87253600000000
C           13.53472600000000       -4.78976400000000       -3.25672300000000
C           13.80245400000000       -3.60469700000000       -4.14817300000000
C           13.53143100000000       -6.07968700000000       -3.80878700000000
C           13.29268100000000       -7.20078800000000       -3.00661200000000
C           13.26710700000000       -8.56681100000000       -3.62742300000000
C           13.04356000000000       -7.03318300000000       -1.63895500000000
C           13.05425900000000       -5.75513400000000       -1.05965000000000
C           12.79318100000000       -5.61145700000000        0.41770400000000
C           12.14486100000000       -2.59722500000000       -1.13071900000000
C           10.82486200000000       -3.09280100000000       -1.51352000000000
C            9.96372300000000       -2.16568600000000       -1.14241200000000
C           10.72588200000000       -1.07719800000000       -0.53191600000000
N           11.99916000000000       -1.31822900000000       -0.51884700000000
H            9.01208200000000        0.15092400000000        0.05686500000000
H            9.05756900000000        2.52571700000000        1.19384500000000
H           10.88982700000000        4.18351000000000        1.86433300000000
H           12.43427700000000        5.04372700000000       -0.72183900000000
H           14.23593000000000        4.97116000000000       -0.88324200000000
H           13.38137200000000        6.54745100000000       -0.99810600000000
H           13.50742300000000        7.87082900000000        0.93002400000000
H           13.34827000000000        8.57015100000000        4.56499000000000
H           14.83495100000000        8.86936600000000        3.57892400000000
H           13.20022800000000        9.27601900000000        2.92007900000000
H           13.91434800000000        6.18941800000000        4.85301400000000
H           14.77453600000000        2.98820100000000        3.92770100000000
H           13.91840000000000        3.87791600000000        5.23646300000000
H           12.97024500000000        2.91346000000000        4.05394900000000
H           16.32274400000000        4.29229900000000        1.27837000000000
H           18.14247200000000        2.61647200000000        0.60119100000000
H           17.83419100000000       -2.68878200000000       -0.28724100000000
H           15.86694200000000       -4.42684800000000       -0.97690900000000
H           12.96735400000000       -2.87675000000000       -4.07030500000000
H           13.89827800000000       -3.90416900000000       -5.21333400000000
H           14.74801600000000       -3.11137300000000       -3.83997600000000
H           13.71319000000000       -6.21613100000000       -4.86868800000000
H           14.16805600000000       -8.71084900000000       -4.26181500000000
H           13.25798700000000       -9.36497300000000       -2.85408000000000
H           12.35851100000000       -8.66975300000000       -4.25808500000000
H           12.84470200000000       -7.90206100000000       -1.02270800000000
H           11.83867900000000       -5.06847500000000        0.57814600000000
H           13.62074600000000       -5.04584200000000        0.89491900000000
H           12.72043600000000       -6.59882500000000        0.92115400000000
H           10.57702200000000       -4.03059100000000       -1.99367100000000
H            8.89050100000000       -2.21650900000000       -1.27061700000000
Co          31.55714700000000        0.00653500000000        0.00067700000000
C           34.93101500000000       -0.11628500000000       -0.06272300000000
C           34.26229899999999       -1.20720800000000       -0.44613600000000
C           34.90561599999999       -2.44941100000000       -0.85804500000000
C           33.95860200000000       -3.30347400000000       -1.19919300000000
C           32.65815800000000       -2.64374000000000       -1.02406900000000
N           32.84272400000000       -1.31356600000000       -0.54111700000000
C           31.46439900000000       -3.20113300000000       -1.30620100000000
C           31.41884400000000       -4.58942900000000       -1.83503000000000
C           31.50257800000000       -4.82338400000000       -3.22804100000000
C           31.64037300000000       -3.68115400000000       -4.20122800000000
C           31.45963700000000       -6.13958700000000       -3.71267600000000
C           31.34003999999999       -7.22226500000000       -2.83363600000000
C           31.25414200000000       -8.62196200000000       -3.36798200000000
C           31.23128600000000       -6.98766200000000       -1.45809500000000
C           31.27809500000000       -5.68167200000000       -0.94717600000000
C           31.16673100000000       -5.46438700000000        0.53973300000000
C           30.17131600000000       -2.49509900000000       -1.11845000000000
C           28.87917900000000       -3.04347600000000       -1.54454800000000
C           27.94398100000000       -2.18270000000000       -1.20097700000000
N           30.03392500000000       -1.34383000000000       -0.53410500000000
C           28.63172900000000       -1.07460200000000       -0.54783700000000
C           28.03673000000000       -0.00080100000000       -0.00056000000000
C           28.79397700000000        1.09451300000000        0.65173300000000
C           28.23769000000000        2.04466300000000        1.39307600000000
C           29.28667200000000        2.96887700000000        1.77175400000000
C           30.41805300000000        2.52368200000000        1.23861700000000
N           30.19775100000000        1.31710900000000        0.50518200000000
C           31.71973700000000        3.23274600000000        1.33679800000000
C           31.73021500000000        4.62985100000000        1.84808400000000
C           31.49154500000000        5.70916600000000        0.96537700000000
C           31.22381800000000        5.47121700000000       -0.49833300000000
C           31.49484100000000        7.02216300000000        1.46006600000000
C           31.73359100000000        7.27576300000000        2.81507100000000
C           31.75916500000000        8.69126700000000        3.31283900000000
C           31.98271200000000        6.20795500000000        3.68591200000000
C           31.97201300000000        4.88466800000000        3.21910100000000
C           32.23309100000000        3.75818000000000        4.18566300000000
C           32.88141100000000        2.65517500000000        0.98151100000000
C           34.20141000000000        3.27779900000000        1.04838900000000
C           35.06254900000000        2.35188000000000        0.67430800000000
C           34.30039000000000        1.14378100000000        0.36124200000000
N           33.02711200000000        1.30865700000000        0.53754400000000
H           36.01418899999999       -0.15004000000000       -0.06416700000000
H           35.96870300000000       -2.65081400000000       -0.88787500000000
H           34.13644500000000       -4.31124700000000       -1.55179700000000
H           32.59199500000000       -3.14148800000000       -4.01348900000000
H           30.79034200000000       -2.97738100000000       -4.07971400000000
H           31.64490000000000       -4.03528400000000       -5.25390700000000
H           31.51884900000000       -6.32510800000000       -4.77881200000000
H           31.67800200000000       -9.34631400000000       -2.64004000000000
H           30.19132100000000       -8.87954200000000       -3.55872400000000
H           31.82604400000000       -8.71684000000000       -4.31567200000000
H           31.11192400000000       -7.82782300000000       -0.78396000000000
H           30.25173600000000       -4.87725800000000        0.76464000000000
H           31.10787200000000       -6.42535400000000        1.09304700000000
H           32.05602700000000       -4.91073100000000        0.90748400000000
H           28.70352800000000       -3.98407000000000       -2.04993600000000
H           26.88380000000000       -2.30599100000000       -1.37835600000000
H           27.19208100000000        2.13727900000000        1.65353900000000
H           29.15933000000000        3.86891400000000        2.35919700000000
H           32.05891800000000        4.89203200000000       -0.94612200000000
H           31.12799400000000        6.42475100000000       -1.05960300000000
H           30.27825600000000        4.90187000000000       -0.61748500000000
H           31.31308200000000        7.85441700000000        0.78972200000000
H           30.85821600000000        9.23440900000000        2.95479400000000
H           31.76828500000000        8.73180100000000        4.42346000000000
H           32.66776100000000        9.20217200000000        2.92903400000000
H           32.18157000000000        6.40827800000000        4.73213400000000
H           33.18759300000000        3.25529500000000        3.92551400000000
H           31.40552599999999        3.01965200000000        4.13842400000000
H           32.30583600000000        4.12209600000000        5.23252600000000
H           34.44925000000000        4.28691400000000        1.35117800000000
H           36.13577099999999        2.47731200000000        0.61698300000000
C           18.01277300000000        0.01481800000000        0.01036500000000
C           19.47099900000000       -0.00701800000000       -0.00750800000000
C           20.60492700000000       -0.02777200000000       -0.00899900000000
C           21.96630900000000       -0.04036200000000       -0.01119000000000
C           23.24052800000000       -0.03005500000000       -0.01595500000000
C           24.42899000000000       -0.01125700000000       -0.02211100000000
C           25.78135100000000        0.01352700000000       -0.00624300000000
C           26.88161800000000        0.01481800000000        0.01036500000000
156
 energy: -243.322520326144 gnorm: 0.449032255891 xtb: 6.5.1 (b24c23e)
Co          13.47085923900978       -0.00340309904548       -0.00389176640022
C           10.09624421848487        0.11396135808250        0.02883394605667
C           10.77063076004350        1.17884376481608        0.51323166816357
C           10.12006626894809        2.35443940000457        1.07362625114669
C           11.07548438480469        3.21329059428646        1.42109713197748
C           12.36693757088381        2.60760494445843        1.08789902634165
N           12.17629737188073        1.32565291372892        0.52274057337503
C           13.57474862843428        3.21249637523688        1.27187818849319
C           13.60974476442585        4.58450153325348        1.85378611578540
C           13.52385864360635        5.71449474971094        1.01234730757192
C           13.38608392533085        5.56247843897120       -0.48425229150276
C           13.56643701863399        6.99530494968157        1.57315784648537
C           13.68779690811977        7.16949946857677        2.95370945438010
C           13.77078855497367        8.55321365610263        3.53910960108060
C           13.79396356205525        6.04901406573763        3.78085448341040
C           13.74835022311513        4.75651342808563        3.24781745373494
C           13.85938139582934        3.56670714198328        4.17174659666533
C           14.84547598351929        2.59167482846273        0.92707557910556
C           16.13250375602622        3.27309076848596        0.99700152774589
C           17.07727789490596        2.39543762426598        0.64122865969220
N           14.98817334776541        1.33742397086962        0.54060773627302
C           16.35384833495459        1.17794288974563        0.35443448465999
C           16.89284714168340       -0.01371178178296       -0.00409052974994
C           16.19574101635753       -1.24698557242525       -0.29198342945280
C           16.78666719311129       -2.45678720134162       -0.41492045581650
C           15.75382320046479       -3.37390763054764       -0.77738607818317
C           14.59482202175603       -2.67111151528535       -0.85663366908316
N           14.81853376995211       -1.30802370579986       -0.54456566944547
C           13.31626544950347       -3.25638694304913       -1.27200412034963
C           13.29967959198165       -4.62469885897663       -1.87277516439313
C           13.53492771562880       -4.79213898050482       -3.25500552234238
C           13.80224326411237       -3.60375893015880       -4.14807085746687
C           13.53062411889282       -6.07858768882246       -3.80454303394085
C           13.29163961529565       -7.19898876115214       -3.00523534095282
C           13.26783803477413       -8.56877538160421       -3.62779033763372
C           13.04454772469477       -7.02946069199824       -1.64112706277904
C           13.05451781162829       -5.75529383013658       -1.06260654462423
C           12.79354476058410       -5.61080060141429        0.41836489421281
C           12.14488881622018       -2.59490883246155       -1.12976255469445
C           10.83160279008430       -3.09311256497220       -1.51282419133631
C            9.95759018202413       -2.15722269924289       -1.13822334997583
C           10.71373542259906       -1.07004418214368       -0.52862885792338
N           12.00445949875967       -1.31947619050064       -0.52284780461458
H            9.01254850614074        0.14836376713779        0.05544746875990
H            9.05780158936949        2.52126719878802        1.19186892612254
H           10.89568565342323        4.18354570923484        1.86418766179822
H           12.43946016404469        5.04513037642914       -0.72175225320191
H           14.23101969046882        4.97279740429010       -0.88213438621903
H           13.38134162596014        6.54244734107996       -0.99449669540920
H           13.50719653856361        7.86926783997714        0.93044521181342
H           13.35134707205508        8.57048488311817        4.56053890809020
H           14.82927771322749        8.86913126725336        3.57934686056475
H           13.20394093761998        9.27321116945023        2.92285300717814
H           13.91382661751356        6.18859760380832        4.85164726420953
H           14.76946190079797        2.98951819742003        3.92883848847927
H           13.91819594438635        3.87703683968364        5.23037710993810
H           12.97529258876081        2.91514992431229        4.05420548123572
H           16.31812473725097        4.29507784344368        1.27976283903521
H           18.14014836000164        2.60862780781306        0.59893242712182
H           17.83376287270787       -2.68930247832652       -0.28714915533147
H           15.86980578830829       -4.42735667866239       -0.97623375361325
H           12.97228854833683       -2.87891196855722       -4.07025699617605
H           13.89777719467785       -3.90336834470403       -5.20721910521207
H           14.74288534018482       -3.11223644578608       -3.84142772184819
H           13.71306886797382       -6.21518972435210       -4.86713685635408
H           14.16291040816735       -8.71090280929299       -4.25981994666331
H           13.25750318328846       -9.36099790645795       -2.85808535011326
H           12.36364108790704       -8.67049892332071       -4.25565080633171
H           12.84522073803506       -7.90050019142626       -1.02310437596737
H           11.84378435621664       -5.07009207890237        0.57853103159660
H           13.61594606919313       -5.04727142987861        0.89334038531516
H           12.72069539031587       -6.59381826252479        0.91751299886171
H           10.58250161588330       -4.03014021288130       -1.99313466355939
H            8.88873692521062       -2.21258311148259       -1.26892649314267
Co          31.55479484497600        0.00381081878615       -0.00081947610118
C           34.92999835663831       -0.10376029434225       -0.05871756735813
C           34.25553817085635       -1.20764418532421       -0.44639946879611
C           34.90612023594787       -2.44403084190705       -0.85607093552060
C           33.95087617767122       -3.30432024153146       -1.19993443392357
C           32.65914163453869       -2.63644467705748       -1.02089027404027
N           32.85052137686471       -1.32073860929744       -0.54189490391065
C           31.45149757483616       -3.20021473320253       -1.30682798119229
C           31.41643586510252       -4.59334270242600       -1.83703808429246
C           31.50239641942684       -4.82616238758839       -3.22650124088027
C           31.64019362286080       -3.68031091361800       -4.20119341981868
C           31.45983451880051       -6.13861873652041       -3.70861188456337
C           31.33848018486103       -7.22008152284619       -2.83299896982407
C           31.25548092057617       -8.62385013721103       -3.36857416218829
C           31.23230178287073       -6.98425386436997       -1.46040036618396
C           31.27792350593980       -5.68256492531044       -0.95023726972595
C           31.16689403703189       -5.46366680801143        0.54021403464642
C           30.18147199868872       -2.51122706274069       -1.12473140106643
C           28.89121822138156       -3.05254731676291       -1.54706937955249
C           27.94775063381985       -2.17574292821407       -1.19719009302868
N           30.03881066188602       -1.34057576940892       -0.53724914379186
C           28.66552527809295       -1.08883930522635       -0.55523878191808
C           28.12823364005395        0.00709495569688        0.00636907307317
C           28.82465973152211        1.09372298522400        0.64767148625140
C           28.23927614113337        2.05896552546814        1.40073891965233
C           29.27103782057826        2.97044061719898        1.77404821290114
C           30.43189851386936        2.51815348751504        1.23003919624809
N           30.20645948187148        1.31823284886332        0.51230312019412
C           31.70909710190679        3.22841600539664        1.33586173905263
C           31.72655167191646        4.63187806307110        1.84977621603958
C           31.49136966588492        5.70966249583262        0.96828974921980
C           31.22402591320872        5.47046854785990       -0.49889829045515
C           31.49564727414695        7.01843340234411        1.46236653678422
C           31.73462825678984        7.27348833778814        2.81481343358051
C           31.75843699107566        8.69294422383701        3.31393080298343
C           31.98172676990051        6.20678057182198        3.68178175523400
C           31.97174937784938        4.88684582682752        3.21706301973734
C           32.23272519160817        3.75725619284986        4.18568134639898
C           32.88139543927857        2.65254725951387        0.98033578846735
C           34.19449666024176        3.27740513965050        1.04910291219557
C           35.06867635958394        2.34265940432564        0.67141574390041
C           34.31283176781184        1.13603569749887        0.35856141159911
N           33.02144019340319        1.31256181072755        0.53562012680759
H           36.01371659930591       -0.14717364926067       -0.06344686507563
H           35.96845219163754       -2.64625272664843       -0.88621542927412
H           34.13060251767836       -4.31119807128221       -1.55193214645596
H           32.58680636594690       -3.14256068901295       -4.01439906655570
H           30.79526694099544       -2.97932545874633       -4.08006169588918
H           31.64493201916112       -4.03417024649898       -5.24784501818446
H           31.51907654488140       -6.32428840003949       -4.77744467738884
H           31.67492678140276       -9.34347730114264       -2.64348335385509
H           30.19698987191355       -8.87967284548339       -3.55825956200325
H           31.82233324866299       -8.71673797332740       -4.31172881124634
H           31.11244291619853       -7.82630874421297       -0.78437609963422
H           30.25681912082862       -4.87900440727377        0.76456524274470
H           31.10807632388897       -6.42050852395830        1.08927006077519
H           32.05097199303932       -4.91212860648761        0.90649610357884
H           28.70797038114306       -3.98682728664113       -2.05073418566590
H           26.88576066649239       -2.29968618745296       -1.37504775796166
H           27.19261464513246        2.13822366203251        1.65439309090979
H           29.15639279588545        3.86873127472400        2.35999405504094
H           32.05398032672440        4.89355628554995       -0.94458846446194
H           31.12849387771485        6.41994386353395       -1.05574873945923
H           30.28339100616747        4.90349637609632       -0.61793138960683
H           31.31320061755123        7.85267510820227        0.79018848241882
H           30.86335721356336        9.23307374601619        2.95627318051392
H           31.76876821255835        8.73170977726700        4.41782243555034
H           32.66263675550974        9.20103584346112        2.93130869028794
H           32.18105408807541        6.40743883275120        4.73078147276042
H           33.18248735281824        3.25619294369557        3.92690830008612
H           31.41032654546298        3.02177899238683        4.13826668015367
H           32.30557768988340        4.12100326219749        5.22644038531728
H           34.44371799392305        4.28616971965376        1.35123869510280
H           36.13753257924222        2.47328421373539        0.61548023059143
C           18.16015369007268        0.00470751528125        0.00698464751812
C           19.43680488330095       -0.00825013886391       -0.00826677200718
C           20.66069887858666       -0.02834148685633       -0.00879882889034
C           21.94773985312151       -0.04037296934274       -0.01134330314800
C           23.21109746800002       -0.03063432546255       -0.01618193394471
C           24.42628883500173       -0.01182331526284       -0.02206869593118
C           25.69489539771486        0.01660349361968       -0.00634414098395
C           26.87500490165664        0.02591936000805        0.01444968276480
156
 energy: -243.413652452411 gnorm: 0.179088618956 xtb: 6.5.1 (b24c23e)
Co          13.47291227833154        0.00476246532986       -0.00281567304779
C           10.09972392490497        0.09801016035308        0.02089245200794
C           10.77933185653472        1.17476412295874        0.51271536750607
C           10.12640188693713        2.34374723036070        1.06880891169625
C           11.09075896643910        3.20942107489862        1.41887314250214
C           12.36984284882564        2.59872299480228        1.08636781899912
N           12.16504905543583        1.33421847504365        0.53091473321286
C           13.58803057995334        3.21480029855128        1.27187532565702
C           13.61486732590484        4.59033571418066        1.85494176013491
C           13.52458161521335        5.71535582850962        1.01711448451638
C           13.38682934508576        5.56019370356534       -0.47994642908118
C           13.56595878141105        6.99077969394774        1.57647201022430
C           13.69162492873887        7.16709664876369        2.95218956364304
C           13.76886465264567        8.55251984292252        3.53899181109003
C           13.79220524347969        6.04802134411928        3.77510485508171
C           13.74952517751848        4.76048831893328        3.24411452704737
C           13.85881417356086        3.56830878934789        4.16666807389711
C           14.82695610576612        2.61467560621948        0.93508895352431
C           16.10968139183577        3.28331116831760        1.00564219191885
C           17.05515418867461        2.38869222560594        0.63998467950717
N           14.97731091877227        1.34550618397258        0.52487891745432
C           16.32964720166961        1.18010784125045        0.35262722327236
C           16.87261623613618       -0.03450790156217       -0.00690756830413
C           16.16992083092281       -1.24112897231819       -0.29608117328998
C           16.77875930979658       -2.47726638171094       -0.42618208090510
C           15.77155304357895       -3.37478280016674       -0.78264561149121
C           14.58186617723494       -2.66210194548884       -0.85967573412799
N           14.80465162017960       -1.32036422191315       -0.52490767697215
C           13.33500940562282       -3.24738059135848       -1.26856344349364
C           13.31311762498374       -4.62389969329952       -1.86904734703580
C           13.53807788514452       -4.79370420822159       -3.24869103566007
C           13.80153259617507       -3.60472670215097       -4.14300966708780
C           13.52881001803335       -6.07556292165142       -3.79690744828160
C           13.28910957049253       -7.19542576891985       -3.00310746150681
C           13.26889925239631       -8.56742908287763       -3.62662238661905
C           13.04575529960288       -7.02218196276649       -1.64372355045726
C           13.05731247538033       -5.75195795892861       -1.06663952172107
C           12.79537990733028       -5.60777822901297        0.41464662237197
C           12.14955424297933       -2.58350916146401       -1.12798096344565
C           10.84323277450360       -3.08290989084734       -1.50597463740739
C            9.95284358001641       -2.14346155264656       -1.12889456078179
C           10.70076597452528       -1.05969628434245       -0.52471508351366
N           12.01193273152885       -1.31430079784562       -0.53352787952113
H            9.01567856848352        0.13939031323687        0.04923849287512
H            9.06284215036076        2.50454790004218        1.18418352736989
H           10.91840249479696        4.18070728423029        1.86218177894852
H           12.44978846596396        5.04526523654454       -0.72143089384235
H           14.22135738736546        4.97329533802703       -0.87985341085999
H           13.38141357281168        6.53307576883276       -0.98433321069941
H           13.50578152024200        7.86392763232934        0.93195657991606
H           13.35769733677771        8.57071430148176        4.55359017480602
H           14.81795944003441        8.87063907357539        3.58105925859324
H           13.21122139210783        9.26867665857069        2.92671266462371
H           13.91117584466966        6.18558958486389        4.84680759044895
H           14.75935050273805        2.99022503198540        3.92933260567115
H           13.91768420460623        3.87789159542858        5.21630710657143
H           12.98512151779624        2.91681136998999        4.05229091853625
H           16.30055511551801        4.30434591351227        1.28630149825534
H           18.12106896324497        2.58768188482363        0.59387529440452
H           17.82731359425260       -2.69545989050384       -0.28928054454155
H           15.87818108694062       -4.42920335688098       -0.97592366758636
H           12.98192291725054       -2.88134254284775       -4.06756326974089
H           13.89619973962466       -3.90455169359463       -5.19297395090973
H           14.73306895271414       -3.11144176803116       -3.84281600823197
H           13.71207739703454       -6.21077487335359       -4.86044007071689
H           14.15310452135825       -8.71117177542993       -4.25751449416589
H           13.25606389729881       -9.35318444796291       -2.86425865831892
H           12.37399933464238       -8.67326583740903       -4.25191770842647
H           12.84709772368572       -7.89340609047547       -1.02417131171506