156
 energy: -243.487424390940 gnorm: 0.000628155262 xtb: 6.5.1 (b24c23e)
Co          13.23887016771025        0.04633317231733       -0.01215151417567
C            9.85013856489948        0.11270676397007       -0.03637230792540
C           10.51872177165848        1.12866609429389        0.61114770973547
C            9.86045353311226        2.21568233955681        1.27073174667609
C           10.82898216753950        3.07931945221734        1.65534729751898
C           12.07645212187232        2.51710564777953        1.22836648523740
N           11.88053793485098        1.29968192256784        0.62791974368684
C           13.28731579523874        3.18452139244920        1.32099311812859
C           13.30580163424555        4.56387418115608        1.88285037655238
C           13.09676074926374        5.66009079130489        1.04127169764750
C           12.85452809679160        5.44351617456645       -0.42869258844976
C           13.11305285614286        6.94336492028346        1.57516672453719
C           13.33183382014502        7.14965488276069        2.93315986555536
C           13.36555401094038        8.54397396265345        3.49822028093271
C           13.53916733994936        6.05075019013776        3.76094558448761
C           13.52847185516679        4.75874265940360        3.24899205159724
C           13.75109660832909        3.57384798048005        4.15048246656004
C           14.47713157437544        2.61748068172118        0.90035445649460
C           15.73949931308263        3.28914985412619        0.96813823941140
C           16.68144804688487        2.38362319832478        0.61132642298688
N           14.64124486939662        1.31988727227524        0.47033785594348
C           15.99114195159676        1.16448103258378        0.32881424315099
C           16.64661458690889       -0.03922086537332        0.05502367195819
C           15.94586630832797       -1.21318214345550       -0.23308195463888
C           16.58888047115325       -2.46194696394822       -0.49752170440212
C           15.61660455458978       -3.32731072340839       -0.87198007602359
C           14.38350452734769       -2.60063971548093       -0.83657243725302
N           14.59312404264032       -1.31183296896614       -0.39864756303633
C           13.18231991779442       -3.11350390603903       -1.29248097404118
C           13.15229012961948       -4.49199676400090       -1.85607468296377
C           13.41425555376606       -4.69688921808767       -3.21426739307880
C           13.73069897782385       -3.52425324326433       -4.10370740494563
C           13.37786065628982       -5.98688599783336       -3.72861194478291
C           13.08607985285664       -7.07524403725503       -2.91115400671668
C           13.03985287834636       -8.46272102097594       -3.49207467618758
C           12.82684212829655       -6.85906426667804       -1.56263054911239
C           12.85631540111821       -5.57646807355961       -1.02618683274415
C           12.57035163649982       -5.34928727509758        0.43426272588432
C           12.00135456642303       -2.38986836969818       -1.23941701521242
C           10.74370511729533       -2.89216630503109       -1.70893728207688
C            9.80404582684579       -1.98604737203449       -1.35085110238206
C           10.49029165639690       -0.93245253384381       -0.66624019707786
N           11.84174575001998       -1.16927045914404       -0.63540497734325
H            8.76688759110336        0.13766677694728       -0.05230984185230
H            8.79266020914764        2.29388184072249        1.40019652498119
H           10.72845309261628        4.02094738551482        2.17075741003729
H           11.94590455445709        4.85739507930592       -0.57970645052828
H           13.68477433974857        4.89172342214807       -0.87325679230802
H           12.74687841817782        6.39427230787031       -0.94984172052074
H           12.95041018895092        7.79445291940364        0.92198868750421
H           12.97516334264487        8.55940452917718        4.51619827460592
H           14.39479111522919        8.90944822888419        3.52467323790078
H           12.77819368710197        9.22705880286497        2.88432918184624
H           13.70987898812937        6.20275409833919        4.82171510468859
H           14.63557664300459        3.01800015907941        3.83363214498461
H           13.88975458042631        3.89117846703397        5.18353463785354
H           12.89688400250755        2.89585331995631        4.10367737535934
H           15.87004972909393        4.31814884371865        1.26177937534189
H           17.75042296655884        2.50946222224887        0.55033064740168
H           17.64999355059432       -2.63269757379954       -0.41220787028697
H           15.70845637569176       -4.36192159796695       -1.16055657362350
H           12.92033395679187       -2.79368883829488       -4.07117558457847
H           13.87168065716021       -3.84508707313312       -5.13537789882709
H           14.64160649495020       -3.02712457728600       -3.76471207175420
H           13.58009314844575       -6.14757406915461       -4.78256327349447
H           13.91801570968548       -8.64819452095560       -4.11225960443587
H           13.00086638912581       -9.21521745024103       -2.70457808203161
H           12.15408324196403       -8.57588170031307       -4.12092478120855
H           12.59811027647905       -7.70082551806889       -0.91723063558708
H           11.68141485186328       -4.72648236413377        0.55232881385541
H           13.40551895980186       -4.83151368296860        0.90935577658173
H           12.40463491850919       -6.29447644038347        0.95028298473974
H           10.61619777473033       -3.82580494010535       -2.23284689323041
H            8.73865837254302       -2.01394322099658       -1.51586983623237
Co          31.79075757236151       -0.02562610581074       -0.04681068444334
C           35.17944916632129       -0.05293569371888       -0.11886673122357
C           34.51180552941791       -1.23506681812656       -0.35391808341097
C           35.17116168712005       -2.47498176242276       -0.63287314875091
C           34.20280745983850       -3.36664741386791       -0.94753270375372
C           32.95443171970563       -2.66757073298737       -0.86122413175148
N           33.14977626944760       -1.37256871116016       -0.45395954395777
C           31.74298898471672       -3.21619942796864       -1.25050980531849
C           31.72485574986835       -4.60129329763511       -1.79806020139114
C           31.92737137732970       -4.81038920194124       -3.16516924943748
C           32.16279643806669       -3.63670806643943       -4.07809065999171
C           31.91116560889297       -6.10644924021973       -3.66716955273829
C           31.69884321000474       -7.19520305666375       -2.82804445442698
C           31.66496225986907       -8.59296487512463       -3.38452121409718
C           31.49818815868597       -6.97463580825064       -1.46904331325100
C           31.50900262664799       -5.68742171403983       -0.94510049137888
C           31.29378533190476       -5.45565017250968        0.52669470780787
C           30.55264700766207       -2.51684814396936       -1.16065448140153
C           29.29031257858880       -3.05012367507069       -1.57462968463587
C           28.34854879743046       -2.14737463946980       -1.21044336942245
N           30.38863754578726       -1.28045644619613       -0.57755959237550
C           29.03886377923103       -1.06959191617017       -0.57442343165634
C           28.38280867369436       -0.00931059221481        0.05719639786813
C           29.08290307211848        1.03747568306168        0.66242513894665
C           28.43927699196231        2.12150784031481        1.33576803119000
C           29.41183758280605        3.00288894732791        1.66991708377032
C           30.64560678707829        2.45329509428791        1.19491142087538
N           30.43606467923020        1.22151174494453        0.61557030021325
C           31.84708690127047        3.13834798144232        1.22437182604391
C           31.87689660356171        4.52249174708681        1.77401239317945
C           31.61897060167343        5.61167338363445        0.93584232234013
C           31.30654283336426        5.38286618339687       -0.51892377871099
C           31.65560694109299        6.89816441075021        1.45883931635297
C           31.94367399212418        7.11618020229050        2.80322406275865
C           31.99051878043380        8.51914966841334        3.34561150707027
C           32.19865976046124        6.02557620268800        3.62664662358842
C           32.16883256398041        4.72906874117728        3.12472779530125
C           32.45005359340405        3.55293640350587        4.02134118374680
C           33.02802539369711        2.58087142288852        0.75985545321669
C           34.28519553826582        3.26925671503043        0.76847724087166
C           35.22457161651097        2.36970203800445        0.39355600366489
C           34.53871523498746        1.13572405473601        0.15565791118081
N           33.18764724136440        1.28334538275202        0.34624383669944
H           36.26259819933029       -0.05833796829821       -0.15163086097833
H           36.23940985276909       -2.61894418138305       -0.59860391619544
H           34.30386853343479       -4.40301288389621       -1.22707583717338
H           33.07144471799262       -3.10678110759756       -3.78571553639130
H           31.33115485103108       -2.93266470597377       -4.01390649198536
H           32.26670367859185       -3.96266652019923       -5.11253126051872
H           32.06877166854018       -6.26894589805367       -4.72839744691514
H           32.05773919549375       -9.30806436104464       -2.66115207567104
H           30.63539922064628       -8.87600501597634       -3.61580634891140
H           32.25012125634574       -8.66093980074186       -4.30182309956443
H           31.33265071980025       -7.81851072946476       -0.80726213298182
H           30.40875931499728       -4.83705211976291        0.68710946350809
H           31.16018593759796       -6.39964791277384        1.05409181022811
H           32.14917214782429       -4.93164687956307        0.95714022044619
H           29.15960383351021       -3.99833794728895       -2.07051766172812
H           27.27967546516762       -2.19597368670472       -1.34236066896985
H           27.37766388868333        2.18696123575576        1.51206562233309
H           29.31984189875459        3.94827295693153        2.17974330667709
H           32.11937884904636        4.83587761348913       -1.00016744183232
H           31.16464061005659        6.32912420427994       -1.04007980843136
H           30.39730334266990        4.78744730976843       -0.62162767272037
H           31.45655076085999        7.74453511295047        0.80956116197532
H           31.11458218185334        9.08416715181628        3.02360405810763
H           32.02555140488143        8.51629460267611        4.43496000808665
H           32.87860845445830        9.03472471472786        2.97367924807303
H           32.42434484307543        6.18507131648567        4.67595611977875
H           33.33775394894224        3.01907882407702        3.67638339469165
H           31.61268306355634        2.85304592803602        4.00443467288827
H           32.61537411423176        3.87694337334380        5.04838415315243
H           34.41261057705410        4.30476461953752        1.04033624300298
H           36.28958159181984        2.50526570126141        0.29139347947867
C           18.04835980783002       -0.06475957144861        0.06857685230018
C           19.27374472655015       -0.06806717218711        0.07903199649109
C           20.61495674670869       -0.06497441878951        0.09069858757220
C           21.84661727876088       -0.05118053463534        0.10008365714928
C           23.18302806407132       -0.03972542697381        0.10097359577387
C           24.41459436424945       -0.02102564617797        0.10417681230077
C           25.75574436170475       -0.00866357444442        0.09524520806385
C           26.98103483453244       -0.00092711683005        0.08330949246223
