209
 energy: -313.097592264967 gnorm: 42.604709022886 xtb: 6.5.1 (b24c23e)
Zn          33.20638700000000        1.97203400000000        1.62137700000000
C           29.45529500000000        0.07855000000000       -0.03826300000000
C           30.10492800000000        0.93175200000000        0.75884500000000
C           29.44022100000000        1.85039100000000        1.67518500000000
C           30.37042700000000        2.56354900000000        2.28245000000000
C           31.68265800000000        2.14256000000000        1.77233500000000
N           31.52085900000000        1.09838300000000        0.81144400000000
C           32.86807000000000        2.67284900000000        2.13891500000000
C           32.90193300000000        3.78633200000000        3.11480600000000
C           32.41413200000000        5.05343800000000        2.76413600000000
C           32.46233100000000        6.10529100000000        3.68284400000000
C           33.00338700000000        5.91084000000000        4.96362500000000
N           33.03984200000000        7.01416200000000        5.88762000000000
C           33.58125500000000        6.91661600000000        7.23914100000000
C           33.49880800000000        4.63856100000000        5.30911300000000
C           33.44920700000000        3.58679200000000        4.38972900000000
C           34.16720900000000        2.19432900000000        1.59730200000000
C           35.44401200000000        2.88841200000000        1.80511800000000
C           36.38846500000000        2.17867600000000        1.22184800000000
N           34.32336800000000        1.10469100000000        0.90979500000000
C           35.72147500000000        1.02415700000000        0.63259900000000
C           36.32825700000000        0.01278500000000       -0.00962700000000
C           35.57763700000000       -1.12069100000000       -0.59412000000000
C           36.11937000000000       -2.28811700000000       -0.91750900000000
C           35.08730400000000       -3.07941000000000       -1.55892800000000
C           33.98434399999999       -2.34033600000000       -1.58922300000000
N           34.20401099999999       -1.06733100000000       -0.97954200000000
C           32.71379000000000       -2.75601200000000       -2.23684400000000
C           32.75234300000000       -3.85703900000000       -3.23005600000000
C           33.49805900000000       -3.71366300000000       -4.40871900000000
C           33.55509100000000       -4.75446300000000       -5.34006800000000
C           32.86920300000000       -5.96122600000000       -5.10284900000000
N           32.90794400000000       -7.05157400000000       -6.04203300000000
C           33.64466900000000       -7.00592700000000       -7.30075100000000
C           32.13163400000000       -6.10233000000000       -3.91687700000000
C           32.07592900000000       -5.06160500000000       -2.98603100000000
C           31.54502600000000       -2.15374200000000       -1.94446700000000
C           30.24465000000000       -2.45051200000000       -2.54301700000000
C           29.37235200000000       -1.67425700000000       -1.92945200000000
C           30.10710500000000       -0.87355300000000       -0.95153700000000
N           31.37398600000000       -1.14457100000000       -0.95142800000000
H           28.37169600000000        0.08152800000000       -0.01979400000000
H           28.37478100000000        1.93983600000000        1.84426900000000
H           30.17106200000000        3.32255500000000        3.02753200000000
H           31.99840300000000        5.22548500000000        1.77881900000000
H           32.07854800000000        7.07585100000000        3.39455600000000
H           32.66026300000000        7.93990400000000        5.58440600000000
H           34.65356899999999        6.63181600000000        7.19736600000000
H           33.01125300000000        6.16244600000000        7.82140100000000
H           33.49528300000000        7.89825200000000        7.75121300000000
H           33.92531999999999        4.45066500000000        6.28487300000000
H           33.83630500000000        2.61501800000000        4.67123600000000
H           35.60386800000000        3.81731500000000        2.33661800000000
H           37.44063900000000        2.42962600000000        1.20254200000000
H           37.14609800000000       -2.59087400000000       -0.76127400000000
H           35.20662299999999       -4.07697600000000       -1.96143900000000
H           34.03312099999999       -2.79293600000000       -4.60731800000000
H           34.13644400000000       -4.60944200000000       -6.24024900000000
H           32.38292700000000       -7.92809800000000       -5.82053500000000
H           33.25629800000000       -6.18282300000000       -7.93665600000000
H           33.51813400000000       -7.96483400000000       -7.84638000000000
H           34.72593699999999       -6.85243100000000       -7.10074700000000
H           31.60037300000000       -7.02318200000000       -3.71144800000000
H           31.50885100000000       -5.19502300000000       -2.07284700000000
H           30.01433500000000       -3.15613900000000       -3.33029400000000
H           28.30912400000000       -1.64252400000000       -2.12814100000000
Zn          65.80343800000000       -2.00642600000000       -1.56578300000000
C           69.55452900000000        0.02638100000000       -0.08005600000000
C           68.90489599999999       -0.93768800000000       -0.73877100000000
C           69.56960300000000       -2.03239500000000       -1.43532900000000
C           68.63939699999999       -2.78063800000000       -1.99879900000000
C           67.32716600000001       -2.19095500000000       -1.69926000000000
N           67.48896499999999       -1.02537900000000       -0.88991000000000
C           66.14175400000001       -2.66441000000000       -2.13678400000000
C           66.10789100000000       -3.85974800000000       -3.01049800000000
C           66.59569200000000       -3.79401000000000       -4.32358800000000
C           66.54749400000000       -4.92009500000000       -5.14963400000000
C           66.00643700000001       -6.12758600000000       -4.68040300000000
N           65.96998200000000       -7.27005900000000       -5.55552400000000
C           65.42856900000000       -8.56773100000000       -5.16542800000000
C           65.51101600000000       -6.18713800000000       -3.36339500000000
C           65.56061699999999       -5.06041200000000       -2.53757900000000
C           64.84261500000000       -2.03143600000000       -1.78797500000000
C           63.56581199999999       -2.38569300000000       -2.41998800000000
C           62.62135900000000       -1.66161300000000       -1.85462300000000
N           64.68645600000001       -1.12273700000000       -0.87460600000000
C           63.28834899999999       -0.83464800000000       -0.85649700000000
C           62.68156700000000        0.01278500000000       -0.00962700000000
C           63.43218700000000        0.83051700000000        0.96900100000000
C           62.89045400000000        1.40084600000000        2.03773300000000
C           63.92251999999999        2.19946900000000        2.67000200000000
C           65.02548000000000        2.06776800000000        1.94212600000000
N           64.80581300000000        1.19501000000000        0.83282800000000
C           66.29603400000001        2.79048500000000        2.20647600000000
C           66.25748100000000        4.00000800000000        3.06425500000000
C           65.51176500000000        5.11898500000000        2.66715000000000
C           65.45473300000000        6.25499500000000        3.47965100000000
C           66.14062100000000        6.28680700000000        4.70909700000000
N           66.10187999999999        7.44127300000000        5.56824300000000
C           65.36515500000000        8.65970200000000        5.24904500000000
C           66.87819100000000        5.16020100000000        5.10558000000000
C           66.93389500000001        4.02469800000000        4.29304100000000
C           67.46479800000000        2.37373800000000        1.68251400000000
C           68.76517399999999        3.02262100000000        1.84153000000000
C           69.63747200000000        2.25446200000000        1.21785900000000
C           68.90271900000000        1.12539700000000        0.64983000000000
N           67.63583800000001        1.18442700000000        0.91434100000000
H           70.63812799999999        0.00770700000000       -0.07893300000000
H           70.63504300000000       -2.21692100000000       -1.48572500000000
H           68.83876200000000       -3.67338200000000       -2.57693900000000
H           67.01142100000000       -2.86997600000000       -4.70648600000000
H           66.93127600000000       -4.85052800000000       -6.15971300000000
H           66.34956099999999       -7.17614900000000       -6.52512200000000
H           64.35625500000000       -8.46481900000000       -4.89660600000000
H           65.99857100000000       -8.97140100000000       -4.30238200000000
H           65.51454099999999       -9.28165600000000       -6.01167700000000
H           65.08450400000000       -7.09838700000000       -2.96711700000000
H           65.17351900000000       -5.12309500000000       -1.52779600000000
H           63.40595600000000       -3.10707200000000       -3.21053500000000
H           61.56918500000000       -1.69752900000000       -2.10373800000000
H           61.86372600000000        1.31443700000000        2.36728500000000
H           63.80320199999999        2.80994900000000        3.55570300000000
H           64.97670300000000        5.11189700000000        1.72527400000000
H           64.87338000000000        7.10184200000000        3.14170500000000
H           66.62689700000000        7.41637000000000        6.47197700000000
H           65.75352599999999        9.10068400000000        4.30702000000000
H           65.49169000000001        9.40141600000000        6.06579000000000
H           64.28388699999999        8.43102500000000        5.14288700000000
H           67.40945100000000        5.16065100000000        6.04906800000000
H           67.50097400000000        3.16263100000000        4.62250100000000
H           68.99548900000001        3.94489400000000        2.35837100000000
H           70.70070000000000        2.44143900000000        1.14353700000000
C           42.34011000000000        0.01409700000000       -0.00119500000000
C           41.13116999999999        0.00064200000000       -0.00964200000000
C           39.70964100000000        0.00946100000000       -0.02162500000000
C           38.49797199999999        0.01690000000000       -0.01076200000000
C           43.75671400000000        0.00742200000000       -0.00066200000000
C           44.97741000000000        0.01690000000000       -0.01076200000000
C           57.87755500000000        0.01409700000000       -0.00119500000000
C           56.66861599999999        0.00064200000000       -0.00964200000000
C           55.24708700000000        0.00946100000000       -0.02162500000000
C           54.03541700000000        0.01690000000000       -0.01076200000000
C           59.29415899999999        0.00742200000000       -0.00066200000000
C           60.51485500000000        0.01690000000000       -0.01076200000000
Zn          49.83104899999999       -2.03298000000000       -1.58617900000000
C           46.06739700000000       -0.02908300000000        0.02153800000000
C           46.72435899999999       -0.98766300000000       -0.65687200000000
C           46.08267200000000       -2.09358400000000       -1.37152800000000
C           47.02164100000000       -2.80403500000000       -1.96395400000000
C           48.32083900000000       -2.19668100000000       -1.66060600000000
N           48.14249600000000       -1.04819300000000       -0.82862000000000
C           49.50451700000000       -2.63871800000000       -2.13216400000000
C           49.53092500000000       -3.81079000000000       -3.03184000000000
C           49.61542300000000       -5.10427400000000       -2.50083200000000
C           49.64532800000000       -6.21207500000000       -3.35229300000000
C           49.59388400000000       -6.04396800000000       -4.74564600000000
N           49.62572800000000       -7.20478100000000       -5.59669700000000
C           49.57591200000000       -7.13736400000000       -7.05344200000000
C           49.51232899999999       -4.74007300000000       -5.27350500000000
C           49.48098900000000       -3.63291600000000       -4.42069400000000
C           50.80494299999999       -2.00817300000000       -1.79557700000000
C           52.07937100000000       -2.38084300000000       -2.42226200000000
C           53.03243600000000       -1.67508800000000       -1.84859000000000
N           50.97104999999999       -1.11235400000000       -0.87300900000000
C           52.37345400000000       -0.84713100000000       -0.84652800000000
C           52.98858400000000       -0.02908300000000        0.02153800000000
C           52.23984299999999        0.77328100000000        1.01242600000000
C           52.77706299999999        1.31511500000000        2.09814300000000
C           51.74403400000000        2.10385600000000        2.74053100000000
C           50.64610200000000        1.99260000000000        2.00159800000000
N           50.86872400000000        1.14567000000000        0.87495600000000
C           49.38663799999999        2.73232000000000        2.25602700000000
C           49.44482900000000        3.95861400000000        3.08808400000000
C           48.78503500000000        4.01247700000000        4.32466000000000
C           48.85534000000000        5.16486300000000        5.11297300000000
C           49.59330199999999        6.28233900000000        4.67712300000000
N           49.68297999999999        7.48491800000000        5.46366300000000
C           49.03865200000000        7.64881900000000        6.76260400000000
C           50.25922700000000        6.21801800000000        3.44319000000000
C           50.18976399999999        5.06495200000000        2.65680200000000
C           48.21201500000000        2.32590000000000        1.73706300000000
C           46.93200800000000        3.01309500000000        1.87345400000000
C           46.04326700000000        2.25653100000000        1.26333300000000
C           46.74404600000000        1.08410900000000        0.72791000000000
N           48.01227099999999        1.12021800000000        0.99868300000000
H           45.02498100000000       -2.31390200000000       -1.42884000000000
H           46.83691100000000       -3.68178300000000       -2.56980900000000
H           49.65712099999999       -5.25368200000000       -1.42857400000000
H           49.70876200000000       -7.20483100000000       -2.92419200000000
H           49.68789000000000       -8.15146700000000       -5.15838800000000
H           48.63278500000000       -6.64913800000000       -7.37787500000000
H           50.44853200000000       -6.56679700000000       -7.43566900000000
H           49.60900800000000       -8.16267500000000       -7.47926700000000
H           49.47284400000000       -4.56978300000000       -6.34075400000000
H           49.41966600000000       -2.63652700000000       -4.84174200000000
H           52.23287899999999       -3.10691500000000       -3.20951400000000
H           54.08585600000000       -1.73061200000000       -2.08823900000000
H           53.80081599999999        1.21569500000000        2.43302500000000
H           51.86084800000000        2.70076000000000        3.63566900000000
H           48.21896000000000        3.15955600000000        4.67893600000000
H           48.33383600000000        5.17436200000000        6.06009300000000
H           50.23551899999999        8.29079800000000        5.09246100000000
H           49.42749400000000        6.89190800000000        7.47567600000000
H           49.25496900000000        8.66060300000000        7.16625700000000
H           47.93926699999999        7.53872900000000        6.65562400000000
H           50.83537600000000        7.06384700000000        3.08915300000000
H           50.71234900000000        5.03593800000000        1.70837000000000
H           46.72595499999999        3.95627800000000        2.36200400000000
H           44.99017400000000        2.48738700000000        1.17793900000000
209
 energy: -333.182944361276 gnorm: 9.450633474427 xtb: 6.5.1 (b24c23e)
Zn          33.15044750366699        1.82614564873553        1.53647307233392
C           29.45535136588748        0.07806544278869       -0.03873110542821
C           30.10534488142796        0.93197475644681        0.75903243986955
C           29.44003572853143        1.85013807587630        1.67496214324159
C           30.37056871756777        2.56370831152882        2.28262358814549
C           31.67558297410359        2.14248419870476        1.77252609736348
N           31.52032959846019        1.09880069067450        0.81183556675453
C           32.81114411046872        2.79245915200002        2.22731820770307
C           32.90148493472036        3.78719105976573        3.11541531727195
C           32.41416294028230        5.05358267384858        2.76436681829371
C           32.46234254206723        6.10519280965605        3.68280479699176
C           33.00341377139623        5.91117628625380        4.96395198877825
N           33.03972637872909        7.01405873552503        5.88723825751615
C           33.58126013421689        6.91660368246680        7.23914383834579
C           33.49878358990941        4.63854333543234        5.30901721942221
C           33.44917805060753        3.58703466425342        4.38979529664163
C           34.28433197971624        2.22215288320715        1.59495703227654
C           35.44451662082771        2.88867662800302        1.80521858089806
C           36.38877117899914        2.17826958864675        1.22154485147259
N           34.32603783464626        1.10232551877608        0.90780108303788
C           35.72174086525144        1.02436399440395        0.63270076488108
C           36.32863619150186        0.01205968461804       -0.00998076495568
C           35.57738704244015       -1.11947795206043       -0.59384138757637
C           36.11943346856255       -2.28936119556899       -0.91804818446875
C           35.08856791588407       -3.07967431574121       -1.55869155227800
C           33.98344305173629       -2.33938957026776       -1.58916741470275
N           34.20424817343061       -1.06776130868190       -0.97966589684726
C           32.71432156804961       -2.75591099967007       -2.23667160789853
C           32.75240546809603       -3.85704513143852       -3.23001148554192
C           33.49801443233437       -3.71385019672596       -4.40873920921490
C           33.55503254275485       -4.75445217642578       -5.33997045642258
C           32.86923735353525       -5.96150465603696       -5.10313295374764
N           32.90778815352453       -7.05150564043134       -6.04170448818814
C           33.64466803862855       -7.00591703398646       -7.30073994149409
C           32.13166140302798       -6.10223194310725       -3.91684908736326
C           32.07597835504194       -5.06163820192916       -2.98620742650172
C           31.54477775883157       -2.15350139902372       -1.94427749527944
C           30.24492625913986       -2.45069203254453       -2.54313693454549
C           29.37199800450579       -1.67400890802597       -1.92927127466494
C           30.10663664527630       -0.87328028504062       -0.95129236382907
N           31.37418174704904       -1.14489209037440       -0.95173296490297
H           28.37168884559576        0.08151509920254       -0.01981554718362
H           28.37479242542237        1.93978757245408        1.84422168623263
H           30.17115451352504        3.32257353810446        3.02753811844902
H           31.99839730848445        5.22547295917080        1.77881034321248
H           32.07854951091326        7.07586475172884        3.39456441881797
H           32.66039745980800        7.93954300199305        5.58448844247396
H           34.65344492397291        6.63183657678133        7.19739550115873
H           33.01133994819734        6.16252682543183        7.82135029416299
H           33.49528053975322        7.89811471937258        7.75110323320772
H           33.92532012354913        4.45067952995575        6.28488644676249
H           33.83630458911497        2.61499037372925        4.67123402258073
H           35.60375480921836        3.81734831062740        2.33665901425987
H           37.44062840416525        2.42954764193930        1.20249519549569
H           37.14608659417985       -2.59089089501856       -0.76127239743776
H           35.20664646298169       -4.07697321534448       -1.96141210413108
H           34.03311593716458       -2.79293601858171       -4.60730957365945
H           34.13644500411353       -4.60945632024528       -6.24026689145186
H           32.38311471841433       -7.92775410112450       -5.82058964555478
H           33.25636759473015       -6.18291175929985       -7.93659888555550
H           33.51813308901277       -7.96470102131370       -7.84627196809589
H           34.72582017975888       -6.85243521033361       -7.10079604050087
H           31.60037302694810       -7.02320076543881       -3.71145678817086
H           31.50885596141883       -5.19501440267957       -2.07284489042337
H           30.01441716415065       -3.15614121797071       -3.33028186268377
H           28.30911541846251       -1.64247774675142       -2.12809793162561
Zn          65.85937850453361       -1.89173297644208       -1.44193421940331
C           69.55447198446500        0.02694518890037       -0.07968420408868
C           68.90448028971672       -0.93792104871361       -0.73894823702555
C           69.56978861405200       -2.03212069021721       -1.43512967228429
C           68.63925354583692       -2.78084251458725       -1.99891688979417
C           67.33424509809116       -2.19112413302344       -1.69914350206420
N           67.48949329006597       -1.02585295057389       -0.89023288790514
C           66.19867653062107       -2.77678381067787       -2.23422465527735
C           66.10833882172673       -3.86052948118644       -3.01120297632906
C           66.59566098561504       -3.79426683938185       -4.32367866273915
C           66.54748224344858       -4.92003577154716       -5.14954678704559
C           66.00641059939619       -6.12797663751770       -4.68065810966271
N           65.97009671631119       -7.26966536362157       -5.55550807476921
C           65.42856487110838       -8.56773066847143       -5.16541548481898
C           65.51104040324267       -6.18704097152652       -3.36339956980863
C           65.56064600720092       -5.06052895656998       -2.53780126791727
C           64.72549241769566       -2.03522132828064       -1.81564259641074
C           63.56531083353635       -2.38585028062883       -2.42022457155396
C           62.62105197511919       -1.66122614853394       -1.85429072714132
N           64.68378266692180       -1.12027330008748       -0.87273016160157
C           63.28808176309847       -0.83479549929300       -0.85668022967067
C           62.68119763198937        0.01329556227384       -0.00898791273052
C           63.43242975083346        0.82997709773909        0.96787555644599
C           62.89039071750548        1.40164590751602        2.03883285720831
C           63.92125244053603        2.19929443587000        2.67031156639929
C           65.02638213131227        2.06750538010391        1.94121117098197
N           64.80558044150288        1.19522649898507        0.83322058148817
C           66.29550197693068        2.79029703681888        2.20641662525689
C           66.25741842606938        3.99996501896455        3.06427011715604
C           65.51180809950289        5.11904716066943        2.66732855256810
C           65.45479098975467        6.25489659290965        3.47965979229500
C           66.14058633209848        6.28714992282285        4.70931103598768
N           66.10203651747736        7.44093349895992        5.56824437454186
C           65.36515452981614        8.65969010107840        5.24903744341342
C           66.87816431288387        5.16015056070513        5.10549002780766
C           66.93384689514913        4.02487799046688        4.29303604367846
C           67.46504707227683        2.37349887507375        1.68231961752077
C           68.76489842648401        3.02277700138600        1.84167930386170
C           69.63782597261279        2.25423218166310        1.21765682727301
C           68.90318914147072        1.12509830723130        0.64961671635662
N           67.63564058853402        1.18479470085612        0.91458822437993
H           70.63813499777099        0.00773081008112       -0.07892519301119
H           70.63503143324571       -2.21686423123867       -1.48568805895396
H           68.83866945934076       -3.67339204215276       -2.57695576556946
H           67.01142671109906       -2.86996511082627       -4.70647607853529
H           66.93127453244477       -4.85053930703912       -6.15972457868377
H           66.34942696067507       -7.17615084691246       -6.52475154060282
H           64.35637870636367       -8.46485241581035       -4.89661949459799
H           65.99848398037138       -8.97136918427704       -4.30247191726128
H           65.51454345649324       -9.28151904898973       -6.01156699767740
H           65.08450390094991       -7.09840351894280       -2.96712817093923
H           65.17351950813152       -5.12308707305794       -1.52776954582643
H           63.40606920798268       -3.10711952118093       -3.21055875414320
H           61.56919530513172       -1.69746615336685       -2.10367180797267
H           61.86373799026817        1.31443922639010        2.36730148975202
H           63.80317862331046        2.80992162365060        3.55570534620486
H           64.97670810684669        5.11188882431211        1.72527585272990
H           64.87337925046873        7.10186212465320        3.14171508564571
H           66.62670910099213        7.41634807025390        6.47162973485912
H           65.75345653216479        9.10064740932032        4.30711929876883
H           65.49169100408815        9.40128118139342        6.06568366894141
H           64.28400445465861        8.43107359159063        5.14288057414480
H           67.40945081732555        5.16066341584943        6.04908419195238
H           67.50096900641951        3.16262690532877        4.62249314954920
H           68.99540667512640        3.94488233047919        2.35837564973519
H           70.70070832550191        2.44138679150822        1.14350119339376
C           42.34104368240279        0.01410037861883       -0.00120080277908
C           41.13035379280733        0.00065251389044       -0.00965240627796
C           39.71004572916502        0.00945270778350       -0.02161067995713
C           38.49693577960286        0.01688235420156       -0.01076698826987
C           43.75531749856004        0.00744058093406       -0.00066182935391
C           44.96991078164617        0.01718673586294       -0.01089810226564
C           57.87836274716208        0.01408743002620       -0.00119695635837
C           56.66762937573915        0.00065934976911       -0.00966186563671
C           55.24892905054667        0.00947667846779       -0.02162022993427
C           54.04508159287833        0.01744284133280       -0.01088125522752
C           59.29398423365662        0.00743326340484       -0.00066391775148
C           60.51567874682853        0.01689642247048       -0.01074518361700
Zn          49.80425787774607       -1.88758337045993       -1.42890763331336
C           46.07463127304250       -0.02871624465216        0.02206798823079
C           46.72543064189274       -0.98834733285902       -0.65735798903745
C           46.08244462881140       -2.09317992865185       -1.37122888578907
C           47.02185443643013       -2.80425286902986       -1.96408352211920
C           48.31302924343306       -2.19706009402496       -1.66038048142475
N           48.14189555975987       -1.04860184599342       -0.82888055482470
C           49.42525420315044       -2.78724560067577       -2.26609165933253
C           49.53035020800738       -3.81177845332316       -3.03270738409778
C           49.61542212834006       -5.10441903562789       -2.50106355217810
C           49.64532849281783       -6.21198163732869       -3.35226556583138
C           49.59388939078561       -6.04431718045076       -4.74595011064501
N           49.62573579949261       -7.20465976563607       -5.59630147584337
C           49.57591091806430       -7.13735121405081       -7.05344795685197
C           49.51233695149275       -4.74006006954697       -5.27340732349638
C           49.48100450630705       -3.63318581847125       -4.42078073156173
C           50.91631113519232       -2.00609453430377       -1.82009525812347
C           52.07977568065177       -2.38097070347839       -2.42247505087744
C           53.03275764522484       -1.67462236681237       -1.84815337305226
N           50.97359092565681       -1.11003106249151       -0.87132244235504
C           52.37265064366166       -0.84781819726806       -0.84721567197803
C           52.97880653772786       -0.02891735138698        0.02244264647960
C           52.23879446608111        0.77311535840893        1.01170066044431
C           52.77714565205773        1.31581024600367        2.09915256257212
C           51.74525115416217        2.10369702971321        2.74084719176592
C           50.64520640567250        1.99240446760611        2.00069064354007
N           50.86903955232680        1.14583259938293        0.87539526741916
C           49.38716324151375        2.73212129400206        2.25595719421842
C           49.44487929057254        3.95857112985571        3.08810902728465