126
 energy: -240.107634188619 gnorm: 1.427128597131 xtb: 6.5.1 (b24c23e)
Cu          17.26417000000000       -0.12271000000000       -0.01778900000000
C           13.91971400000000        0.03308500000000        0.07064500000000
C           14.57113500000000        1.19531600000000        0.17177600000000
C           13.90838500000000        2.49190200000000        0.24297300000000
C           14.84006700000000        3.41892300000000        0.36638500000000
C           16.15137900000000        2.75617000000000        0.39299700000000
N           15.98737200000000        1.34375000000000        0.25915900000000
C           17.33783800000000        3.38155400000000        0.54139900000000
C           17.37373600000000        4.85173400000000        0.71739500000000
C           16.88494700000000        5.43814300000000        1.89607100000000
C           16.92932300000000        6.83346500000000        2.07217700000000
C           16.40974400000000        7.45462600000000        3.31043900000000
O           16.46060600000000        8.83621100000000        3.47738800000000
O           15.91624400000000        6.74052400000000        4.22499600000000
C           17.47687600000000        7.63287800000000        1.05365200000000
C           17.97066300000000        7.04905400000000       -0.11591500000000
C           17.92183700000000        5.66426100000000       -0.28461800000000
C           18.63581599999999        2.65687600000000        0.54776800000000
C           19.91348100000000        3.27339700000000        0.92537100000000
C           20.85654000000000        2.36366300000000        0.78761500000000
N           18.79006300000000        1.41689600000000        0.19707100000000
C           20.18772500000000        1.15470000000000        0.32276600000000
C           20.79268400000000        0.00000000000000        0.00000000000000
C           20.04006200000000       -1.19121600000000       -0.45201000000000
C           20.57981300000000       -2.21279100000000       -1.10468800000000
C           19.54616000000000       -3.21732100000000       -1.26369600000000
C           18.44440400000000       -2.74431700000000       -0.69268400000000
N           18.66635800000000       -1.44029100000000       -0.15351600000000
C           17.17283500000000       -3.50190500000000       -0.56803500000000
C           17.20874400000000       -4.97674700000000       -0.72348800000000
C           17.95341900000000       -5.75738500000000        0.17203100000000
C           18.00503700000000       -7.14395000000000        0.01982200000000
C           17.31929100000000       -7.76214500000000       -1.02876400000000
C           16.57435600000000       -6.99504900000000       -1.94254800000000
C           15.84965700000000       -7.64383200000000       -3.05747900000000
O           15.11210700000000       -6.87704300000000       -3.95599800000000
O           15.89223800000000       -8.89540500000000       -3.20449700000000
C           16.52857900000000       -5.59862100000000       -1.78388100000000
C           16.00504300000000       -2.88003700000000       -0.31538200000000
C           14.70356600000000       -3.52159100000000       -0.13655800000000
C           13.83274400000000       -2.54502100000000        0.03038400000000
C           14.56949700000000       -1.28359600000000       -0.02733000000000
N           15.83617600000000       -1.46662100000000       -0.22852900000000
H           12.83612500000000        0.05040800000000        0.06130200000000
H           12.84316900000000        2.67901900000000        0.19761200000000
H           14.64228000000000        4.48072800000000        0.43315500000000
H           16.47303200000000        4.80255500000000        2.67111100000000
H           16.10735500000000        9.27174700000000        4.32107600000000
H           17.52579400000000        8.70924500000000        1.15991000000000
H           18.39282500000000        7.67231000000000       -0.89364200000000
H           18.30894400000000        5.22404500000000       -1.19546700000000
H           20.07481600000000        4.28937700000000        1.26103500000000
H           21.90891100000000        2.51536400000000        0.98743100000000
H           21.60616300000000       -2.30037500000000       -1.43512300000000
H           19.66361900000000       -4.18359400000000       -1.73689500000000
H           18.49030900000000       -5.29118300000000        0.98917800000000
H           18.57858299999999       -7.74180100000000        0.71635200000000
H           17.37441300000000       -8.83928000000000       -1.12505100000000
H           14.61209500000000       -7.31123600000000       -4.72261100000000
H           15.96893100000000       -4.98845900000000       -2.48280500000000
H           14.47149700000000       -4.57844500000000       -0.13565200000000
H           12.76923700000000       -2.66996200000000        0.18620500000000
Cu          27.67872100000000        0.12180100000000        0.02321000000000
C           31.02317700000000       -0.05431900000000        0.05598900000000
C           30.37175600000000       -1.18597100000000       -0.22751100000000
C           31.03450500000000       -2.43486600000000       -0.58313100000000
C           30.10282400000000       -3.35143900000000       -0.76884800000000
C           28.79151100000000       -2.73361500000000       -0.52751300000000
N           28.95551900000000       -1.35478900000000       -0.19332300000000
C           27.60505300000000       -3.37320100000000       -0.59121700000000
C           27.56915500000000       -4.82037800000000       -0.90439300000000
C           28.05794300000000       -5.75917900000000        0.01854000000000
C           28.01356700000000       -7.13562800000000       -0.27011500000000
C           28.53314600000000       -8.12671600000000        0.69781000000000
O           28.48228500000000       -9.48719300000000        0.40497800000000
O           29.02664700000000       -7.74998300000000        1.79527400000000
C           27.46601400000000       -7.55909400000000       -1.49368900000000
C           26.97222800000000       -6.62570900000000       -2.40885500000000
C           27.02105400000000       -5.26162700000000       -2.11663500000000
C           26.30707500000000       -2.69023500000000       -0.34881800000000
C           25.02941000000000       -3.39620400000000       -0.19296700000000
C           24.08635000000000       -2.49129300000000       -0.02644800000000
N           26.15282700000000       -1.40368300000000       -0.27587400000000
C           24.75516600000000       -1.19682700000000       -0.07153000000000
C           24.15020700000000        0.00000000000000        0.00000000000000
C           24.90282900000000        1.27350200000000       -0.03873400000000
C           24.36307800000000        2.45209600000000       -0.32249400000000
C           25.39673100000000        3.45355100000000       -0.14514500000000
C           26.49848700000000        2.82016300000000        0.24035000000000
N           26.27653300000000        1.41159100000000        0.32467900000000
C           27.77005600000000        3.49565700000000        0.60529400000000
C           27.73414700000000        4.94054200000000        0.93941100000000
C           26.98947200000000        5.38638100000000        2.04058200000000
C           26.93785400000000        6.74675800000000        2.34897200000000
C           27.62360000000000        7.67317300000000        1.55938000000000
C           28.36853500000000        7.24609200000000        0.44536100000000
C           29.09323400000000        8.22306300000000       -0.39696900000000
O           29.83078400000000        7.79129400000000       -1.49645900000000
O           29.05065300000000        9.45413800000000       -0.12770500000000
C           28.41431200000000        5.87428500000000        0.13985900000000
C           28.93784700000000        2.82539000000000        0.64128600000000
C           30.23932500000000        3.37352700000000        1.01959300000000
C           31.11014700000000        2.39591500000000        0.85886500000000
C           30.37339300000000        1.22230700000000        0.39285200000000
N           29.10671500000000        1.46094900000000        0.26235600000000
H           32.10676600000000       -0.06764700000000        0.04150700000000
H           32.09972100000000       -2.59695300000000       -0.68704600000000
H           30.30061100000000       -4.37695000000000       -1.05207200000000
H           28.46985900000000       -5.41115800000000        0.95850800000000
H           28.83553600000000      -10.17410500000000        1.06045800000000
H           27.41709700000000       -8.61125100000000       -1.74433500000000
H           26.55006600000000       -6.96119500000000       -3.34734100000000
H           26.63394700000000       -4.54838400000000       -2.83407700000000
H           24.86807400000000       -4.46610400000000       -0.20705600000000
H           23.03397900000000       -2.69987400000000        0.11295700000000
H           23.33672800000000        2.64267200000000       -0.60628900000000
H           25.27927200000000        4.52132400000000       -0.27728200000000
H           26.45258200000000        4.67913800000000        2.66096900000000
H           26.36430800000000        7.08471500000000        3.20241500000000
H           27.56847800000000        8.72280300000000        1.81970300000000
H           30.33079600000000        8.45179500000000       -2.07951700000000
H           28.97396000000000        5.52547200000000       -0.71986200000000
H           30.47139400000000        4.37228200000000        1.36517700000000
H           32.17365400000000        2.46319600000000        1.04691700000000
C           21.86048700000000        0.00000000000000        0.00000000000000
C           23.08240400000000        0.00000000000000        0.00000000000000
126
 energy: -240.445496836048 gnorm: 0.373675849072 xtb: 6.5.1 (b24c23e)
Cu          17.26816248177551       -0.11240152773354       -0.01579694673950
C           13.92059406927305        0.01777462280765        0.06948905946333
C           14.57717185551481        1.19757358714101        0.17152936006593
C           13.90750788934205        2.48585630101620        0.24256759057587
C           14.84853900953228        3.42104066564836        0.36623548487126
C           16.14865924659274        2.75075808704640        0.39156647365778
N           15.97081293802389        1.35786636154843        0.26238427848208
C           17.34976994954484        3.38085082166730        0.54391718462518
C           17.37624928889193        4.85498456204037        0.72090122400026
C           16.88489541825893        5.44335401967489        1.89481147079222
C           16.92933243257135        6.83985725843886        2.07288484674589
C           16.40219850761262        7.45347320600200        3.32688805305492
O           16.46169789326586        8.82536930067882        3.47283764276648
O           15.92236732901534        6.75337227537234        4.21422319693436
C           17.47729485191737        7.63187698377509        1.05261631375244
C           17.96886820308781        7.04780063694248       -0.11265214792177
C           17.92158384280250        5.66650369714788       -0.28120278439547
C           18.62467960689137        2.68113430060732        0.55129097650435
C           19.89840615426868        3.28643973052614        0.92431480019764
C           20.84839016915976        2.35389463326945        0.78527890440888
N           18.78287745757514        1.42177355163141        0.20235166193044
C           20.13370574726078        1.17872812807523        0.32921841769455
C           20.65836059916083       -0.01383816186396       -0.00315474133680
C           19.99509452299861       -1.19927351844564       -0.44918123130328
C           20.57573386765477       -2.23029756024168       -1.11127584204528
C           19.56261651022978       -3.22195703261657       -1.26707844239155
C           18.43213871709665       -2.74328652773214       -0.68487757603171
N           18.65829023908122       -1.45249250491524       -0.15942779955740
C           17.18304141173109       -3.49654862527538       -0.56819925206184
C           17.21285133135935       -4.97582599434887       -0.72671273918840
C           17.95265608223197       -5.75878744107415        0.16871470783202
C           18.00133993694928       -7.14220338875493        0.01559707903417
C           17.31731420311492       -7.75880882323669       -1.03096761549295
C           16.57086557058905       -6.99136340345001       -1.94632033014281
C           15.84475742720806       -7.65830616268603       -3.06694525000432
O           15.11885551737264       -6.88018942399807       -3.94693182526464
O           15.88949289693109       -8.87749483586704       -3.20520208424175
C           16.52912195218327       -5.59835547910216       -1.78134948653321
C           16.00345607145816       -2.87977080896257       -0.31454391177645
C           14.71019893827449       -3.52123350163019       -0.13753308400805
C           13.82491228112519       -2.53498338212284        0.03178886187741
C           14.55213847198488       -1.27572219689363       -0.02647272530230
N           15.83692701501915       -1.47608358280557       -0.22995751339408
H           12.83671519733874        0.04642616260237        0.06188885167386
H           12.84337957318376        2.67324905241616        0.19708933727573
H           14.64935737048769        4.48130634381411        0.43377213146686
H           16.47338172337476        4.80519061063076        2.67116649208073
H           16.11192575240358        9.25159243864620        4.30738562491790
H           17.52526610154042        8.70894037188403        1.16113685383861
H           18.39224353512859        7.67176637556255       -0.89263246705210
H           18.30824088515379        5.22378119396017       -1.19382906690676
H           20.06946455462079        4.29373391134629        1.26149255305812
H           21.90458072281285        2.50550937986936        0.98526858140385
H           21.60401443877736       -2.30087560232972       -1.43667392328772
H           19.66757897630287       -4.18433765218815       -1.73896925916955
H           18.48942964386707       -5.29096237337691        0.98781073959377
H           18.57713508330361       -7.74111861593397        0.71466695434131
H           17.37259409567609       -8.83811169956042       -1.12744782608904
H           14.62666238042420       -7.31278232113189       -4.70263180169871
H           15.96933000229382       -4.98910882540155       -2.48250109837697
H           14.47804155748010       -4.57763609006178       -0.13641684087732
H           12.76657154508769       -2.66497065066759        0.18687543487383
Cu          27.67472862669962        0.11140667825044        0.02173067154333
C           31.02229688181932       -0.03946885412545        0.05989032427464
C           30.36571920853119       -1.18802458216868       -0.22848036166557
C           31.03538246166980       -2.42901859783161       -0.58154233502742
C           30.09435182818176       -3.35339242557427       -0.76968010669694
C           28.79423108895733       -2.72803257097821       -0.52709991622575
N           28.97207821578912       -1.36918571285868       -0.19487893934819
C           27.59312095915432       -3.37335760035443       -0.58860708048544
C           27.56664154614609       -4.82459464644583       -0.90213912542031
C           28.05799468674845       -5.76369408721445        0.01564973917569
C           28.01355750414390       -7.14190183137306       -0.27153107622048
C           28.54069164773165       -8.13099162651519        0.71373533049319
O           28.48119308095750       -9.47546011837531        0.40421300536608
O           29.02052362976668       -7.75861468460447        1.78089959675434
C           27.46559526284316       -7.55781001757984       -1.49434141264362
C           26.97402272630152       -6.62558836439188       -2.40536179101199
C           27.02130707481954       -5.26486079965710       -2.11413828647760
C           26.31821109254293       -2.71431599629768       -0.35340046799407
C           25.04448460720670       -3.40818895153467       -0.19821958821597
C           24.09449994501745       -2.48129700808931       -0.02547011596489
N           26.16001242619200       -1.41001639583784       -0.27247325476678
C           24.80918488828776       -1.22164553243195       -0.07326802405225
C           24.28453032932927        0.01411026009759        0.00153159243098
C           24.94779635685507        1.28019630321765       -0.03343160994368
C           24.36715700349523        2.47079405572574       -0.32301132584079
C           25.38027435458594        3.45903674565467       -0.14683035625506
C           26.51075210103334        2.81664256852746        0.24739349193432
N           26.28460033049060        1.42505371197245        0.32307059514778
C           27.75984952018472        3.49064737506757        0.60339158783527
C           27.73003964296874        4.94072310522552        0.93606227850808
C           26.99023492718802        5.38878854591634        2.03790454077686
C           26.94155110490364        6.74648512035680        2.34440827707282
C           27.62557675989146        7.67073798568010        1.55620889965197
C           28.37202543223457        7.24383864414827        0.44059278221016
C           29.09813355928736        8.23983321359886       -0.40119634837312
O           29.82403544331837        7.79131097774744       -1.48686230343199
O           29.05339807190277        9.43743738883404       -0.13421343218655
C           28.41376902463200        5.87320832747390        0.14216552458190
C           28.93943436260849        2.82486528423527        0.64199141625738
C           30.23269207834863        3.37350699426741        1.01855468466244
C           31.11797871347481        2.38596811116762        0.85691892286698
C           30.39075205730007        1.21458413339408        0.39109404674031
N           29.10596434512511        1.47036032619175        0.26409219511186
H           32.10617577062727       -0.06407432901702        0.04336054898676
H           32.09951058141967       -2.59132813830238       -0.68565799908566
H           30.29353358923160       -4.37769807538641       -1.05167729684181
H           28.46950927172042       -5.41366753331413        0.95770085656005
H           28.83096521576055      -10.15058712753351        1.05409040283435
H           27.41762488598976       -8.61136309503294       -1.74307581223694
H           26.55064744857243       -6.96101043992669       -3.34620943247429
H           26.63465020326359       -4.54866903784678       -2.83244241950936
H           24.87342542562153       -4.47037205885151       -0.20804464642974
H           23.03830937414625       -2.68985302174705        0.11412724606384
H           23.33887656650933        2.64365113329414       -0.60759180570072
H           25.27531196223742        4.52270378591550       -0.27900029835901
H           26.45346131559501        4.67937535798329        2.65960462929295
H           26.36575596152776        7.08461954844506        3.20059948413057
H           27.57029689389859        8.72248035202662        1.81705615442274
H           30.31622863698388        8.44673992951909       -2.06012616527038
H           28.97356110266193        5.52598708841371       -0.71936294251402
H           30.46484945194350        4.37176696823307        1.36419019235599
H           32.17631945719256        2.45825899492790        1.04592268938047
C           21.90705279425516       -0.00656711982690       -0.00205892858854
C           23.03583813715163        0.00687950805881        0.00019576665279
126
 energy: -240.549248116465 gnorm: 0.215207529724 xtb: 6.5.1 (b24c23e)
Cu          17.26633894793539       -0.09489628251666       -0.00796150875402
C           13.92212449019098        0.00144800262426        0.06850517557393
C           14.57901517447353        1.19951743488429        0.17139013456049
C           13.90721999509367        2.47998789374983        0.24162500944944
C           14.85571646833431        3.42296232091664        0.36706821151139
C           16.14277170141395        2.75049274298485        0.39214277460061
N           15.94625137295533        1.38295504522655        0.26127575007637
C           17.35505263794177        3.38821685735829        0.55010256406506
C           17.37803366836271        4.86365591569401        0.72890393597617
C           16.88370544506303        5.45500452584401        1.89544198016586
C           16.92919618945425        6.84942667512018        2.07289711974195
C           16.39570821559640        7.44964946544487        3.33973353325071
O           16.46908316325092        8.80654817578258        3.45315830710410
O           15.92455151831554        6.76671598106731        4.21188068535908
C           17.47717779186753        7.63425344371781        1.05299437810450
C           17.96660684194847        7.04844909877867       -0.10791179313520
C           17.92196016046567        5.67067165651677       -0.27426619156727
C           18.60330890440484        2.71907150836858        0.55764463641316
C           19.87802899990178        3.30526450400897        0.92359811731351
C           20.82242970229497        2.34926755519709        0.78268997563858
N           18.75831076631183        1.44267974596308        0.21791248027192
C           20.08043122133170        1.19064151099434        0.33722732832505
C           20.56671878026338       -0.02897393923155       -0.01051890174539
C           19.94796890288103       -1.20857667447896       -0.44536126097324
C           20.56516626105712       -2.25692490399786       -1.11444548442984
C           19.58301489651842       -3.23290249072000       -1.26601547933816
C           18.42025209651772       -2.75226260692178       -0.67691018621432
N           18.63705483019541       -1.47455280134162       -0.17772994128518
C           17.19524554228414       -3.49043047632560       -0.56836113975642
C           17.22220491922031       -4.97173743507634       -0.73545359678863
C           17.95297136211704       -5.75866323408920        0.16065557740383
C           17.99427900644354       -7.13947696255874        0.00710164659204
C           17.31168075267709       -7.75288645926274       -1.03773855757953
C           16.56587315780120       -6.98400131287888       -1.95022061417331
C           15.84224883868899       -7.67041956110168       -3.07191818348112
O           15.13467268225248       -6.87514314182563       -3.92394445165770
O           15.88404811026533       -8.86542838334035       -3.21087612360906
C           16.52929227787214       -5.59530458199650       -1.78029840389753
C           15.99938717050746       -2.87724538247898       -0.31240696956219
C           14.71431341508619       -3.51529226531033       -0.13893477843742
C           13.81385140597707       -2.52486139244526        0.03182152528170
C           14.53020070375163       -1.27058626148924       -0.02752798598069
N           15.83102328971385       -1.48974320287287       -0.22687196247079
H           12.83813248209860        0.03696895868726        0.06459311384124
H           12.84329745559346        2.65967900203589        0.19595420539196
H           14.66552156326074        4.48329812246995        0.43535347244047
H           16.47358964452931        4.81523031069173        2.67231490856679
H           16.12004959007754        9.20708263137901        4.28119958141176
H           17.52405855901431        8.71071481436025        1.16431344897900
H           18.39033777364310        7.67091906371124       -0.88981478395556
H           18.30581782269828        5.22368526451610       -1.18746276520623
H           20.05768936394789        4.30836867034840        1.26215609834177
H           21.88281495119346        2.48303795780353        0.98029904323451
H           21.59393527303588       -2.30311694998860       -1.44207654695935
H           19.67875820244145       -4.19001072882377       -1.74518604886763
H           18.48712915675522       -5.29095996706457        0.98276527619986
H           18.57091342615087       -7.73907690457830        0.70772899914049
H           17.36607078710109       -8.83323564960299       -1.13604738373390
H           14.65766060185389       -7.31957881059842       -4.66085007838138
H           15.96930070888764       -4.98843063251201       -2.48269473211273
H           14.49310278691939       -4.57345015997912       -0.13779228710686
H           12.75757332758688       -2.65456856749911        0.18824844387192
Cu          27.67655228421430        0.09230314274875        0.02342754905144
C           31.02076637317236       -0.02371415245041        0.06428584257309
C           30.36387589017588       -1.18981667811281       -0.22924581123067
C           31.03567069979347       -2.42316364945545       -0.58051940435460
C           30.08717436936970       -3.35548086702648       -0.76951966698191
C           28.80011896687508       -2.72796974309122       -0.52646843281682
N           28.99663987203325       -1.39254097080438       -0.20411062223125
C           27.58783810163137       -3.38233823853981       -0.58516253390836
C           27.56485698500886       -4.83540228662711       -0.89740283582889
C           28.05918480177050       -5.77491297163216        0.01244564646941
C           28.01369378017199       -7.15095215663275       -0.27464101784450
C           28.54718220977623       -8.13156698084776        0.72712537548316
O           28.47380774122872       -9.45124948383483        0.39174928546018
O           29.01833937465451       -7.77046456183955        1.77433282826937
C           27.46571246626507       -7.56017987278728       -1.49475912030667
C           26.97628395925416       -6.62774747405095       -2.40109226009344
C           27.02093066062607       -5.27106322093116       -2.10894082144947
C           26.33958153936171       -2.75225107340081       -0.35976898878068
C           25.06486143596728       -3.42575063474898       -0.20503712635289
C           24.12046043129715       -2.47607874066185       -0.02640828323979
N           26.18457921139340       -1.43485494600381       -0.26458288051118
C           24.86245905247424       -1.23551964699900       -0.06958312371638
C           24.37617192432283        0.03082015633072       -0.00049264848362
C           24.99492167604332        1.28774487903719       -0.02678582349702
C           24.37772440262789        2.49699911857297       -0.31732249827046
C           25.35987582662454        3.46903692999262       -0.14225550748718
C           26.52263846031191        2.82252899764137        0.25785324731727
N           26.30583538577275        1.45187748770566        0.31296541856250
C           27.74764548543003        3.48491689190393        0.60124292841304
C           27.72068606714765        4.93970922399661        0.92646596934489
C           26.98991961939700        5.39129997659870        2.03024569976592
C           26.94861203311797        6.74667901097715        2.33548797599670
C           27.63121024830969        7.66734804611124        1.54787673635988
C           28.37701784638828        7.23815163685025        0.43450439090627
C           29.10064210360742        8.25290613933518       -0.40194619562671
O           29.80821822857020        7.77904243525391       -1.46677807952222
O           29.05884281061238        9.42788166136322       -0.14351288279810
C           28.41359872750312        5.86998157311634        0.14216402753557
C           28.94350378761570        2.82178131594324        0.64318757205054
C           30.22857776439180        3.36834784911165        1.01529188570953
C           31.12903970806707        2.37638906219077        0.85364811094758
C           30.41269039794750        1.21007319233662        0.38842111466652
N           29.11186844271847        1.48226659857786        0.27146459281525
H           32.10475841442711       -0.05601637269834        0.04900167123004
H           32.09959304667577       -2.57813006077176       -0.68230472554724
H           30.27736938952641       -4.38009687914996       -1.05083219225278
H           28.46930129145050       -5.42353267934943        0.95551184882477
H           28.82284135537940      -10.09997023905522        1.04385485401730
H           27.41883236028003       -8.61407649978724       -1.74065165115470
H           26.55255319060420       -6.96112865300174       -3.34326959410474
H           26.63707331119288       -4.55065504244714       -2.82639288367972
H           24.88520051546382       -4.48442325936264       -0.21219104231699
H           23.06007520922248       -2.66698969835235        0.11675928142077
H           23.34895560088257        2.64753224155055       -0.61196787951672
H           25.26413262231195        4.53009474884098       -0.28302671453221
H           26.45576175937959        4.68101878541029        2.65483446095635
H           26.37197769820026        7.08495251343030        3.19337492212383
H           27.57682017958989        8.72067597820096        1.80733640094708
H           30.28523039614428        8.43953623957439       -2.01841270136599
H           28.97359049780682        5.52540909887033       -0.71976743136810
H           30.44978830359494        4.36825885039927        1.36152473168693
H           32.18531776238395        2.44797808109511        1.04382768104256
C           21.86600610243000       -0.01758433424985       -0.00714319588933
C           23.07688458429693        0.01895247226287       -0.00101676991668
126
 energy: -240.593870079541 gnorm: 0.081176505806 xtb: 6.5.1 (b24c23e)
Cu          17.26401172952134       -0.07368521945795        0.00480530629996
C           13.92171779755686       -0.01004185806546        0.06816504894097