      -----------------------------------------------------------      
     |                   =====================                   |     
     |                           x T B                           |     
     |                   =====================                   |     
     |                         S. Grimme                         |     
     |          Mulliken Center for Theoretical Chemistry        |     
     |                    University of Bonn                     |     
      -----------------------------------------------------------      

   * xtb version 6.5.1 (b24c23e) compiled by 'conda@728c89f4b128' on 2022-07-12

   xtb is free software: you can redistribute it and/or modify it under
   the terms of the GNU Lesser General Public License as published by
   the Free Software Foundation, either version 3 of the License, or
   (at your option) any later version.
   
   xtb is distributed in the hope that it will be useful,
   but WITHOUT ANY WARRANTY; without even the implied warranty of
   MERCHANTABILITY or FITNESS FOR A PARTICULAR PURPOSE.  See the
   GNU Lesser General Public License for more details.
   
   Cite this work as:
   * C. Bannwarth, E. Caldeweyher, S. Ehlert, A. Hansen, P. Pracht,
     J. Seibert, S. Spicher, S. Grimme, WIREs Comput. Mol. Sci., 2020, 11,
     e01493. DOI: 10.1002/wcms.1493
   
   for GFN2-xTB:
   * C. Bannwarth, S. Ehlert and S. Grimme., J. Chem. Theory Comput., 2019,
     15, 1652-1671. DOI: 10.1021/acs.jctc.8b01176
   for GFN1-xTB:
   * S. Grimme, C. Bannwarth, P. Shushkov, J. Chem. Theory Comput., 2017,
     13, 1989-2009. DOI: 10.1021/acs.jctc.7b00118
   for GFN0-xTB:
   * P. Pracht, E. Caldeweyher, S. Ehlert, S. Grimme, ChemRxiv, 2019, preprint.
     DOI: 10.26434/chemrxiv.8326202.v1
   for GFN-FF:
   * S. Spicher and S. Grimme, Angew. Chem. Int. Ed., 2020, 59, 15665-15673.
     DOI: 10.1002/anie.202004239
   
   for ALPB and GBSA implicit solvation:
   * S. Ehlert, M. Stahn, S. Spicher, S. Grimme, J. Chem. Theory Comput.,
     2021, 17, 4250-4261. DOI: 10.1021/acs.jctc.1c00471
   
   for DFT-D4:
   * E. Caldeweyher, C. Bannwarth and S. Grimme, J. Chem. Phys., 2017,
     147, 034112. DOI: 10.1063/1.4993215
   * E. Caldeweyher, S. Ehlert, A. Hansen, H. Neugebauer, S. Spicher,
     C. Bannwarth and S. Grimme, J. Chem. Phys., 2019, 150, 154122.
     DOI: 10.1063/1.5090222
   * E. Caldeweyher, J.-M. Mewes, S. Ehlert and S. Grimme, Phys. Chem. Chem. Phys.
     2020, 22, 8499-8512. DOI: 10.1039/D0CP00502A
   
   for sTDA-xTB:
   * S. Grimme and C. Bannwarth, J. Chem. Phys., 2016, 145, 054103.
     DOI: 10.1063/1.4959605
   
   in the mass-spec context:
   * V. Asgeirsson, C. Bauer and S. Grimme, Chem. Sci., 2017, 8, 4879.
     DOI: 10.1039/c7sc00601b
   * J. Koopman and S. Grimme, ACS Omega 2019, 4, 12, 15120-15133.
     DOI: 10.1021/acsomega.9b02011
   
   for metadynamics refer to:
   * S. Grimme, J. Chem. Theory Comput., 2019, 155, 2847-2862
     DOI: 10.1021/acs.jctc.9b00143
   
   for SPH calculations refer to:
   * S. Spicher and S. Grimme, J. Chem. Theory Comput., 2021, 17, 1701-1714
     DOI: 10.1021/acs.jctc.0c01306
   
   with help from (in alphabetical order)
   P. Atkinson, C. Bannwarth, F. Bohle, G. Brandenburg, E. Caldeweyher
   M. Checinski, S. Dohm, S. Ehlert, S. Ehrlich, I. Gerasimov, C. Hölzer
   A. Katbashev, J. Koopman, C. Lavigne, S. Lehtola, F. März, M. Müller,
   F. Musil, H. Neugebauer, J. Pisarek, C. Plett, P. Pracht, F. Pultar,
   J. Seibert, P. Shushkov, S. Spicher, M. Stahn, M. Steiner, T. Strunk,
   J. Stückrath, T. Rose, and J. Unsleber
   
 * started run on 2022/07/30 at 00:35:01.849     

           -------------------------------------------------
          |                Calculation Setup                |
           -------------------------------------------------

          program call               : xtb Co_C2Py_C8_3.xyz --gfn 1 --opt -T 48
          hostname                   : cx3-14-28.cx3.hpc.ic.ac.uk
          coordinate file            : Co_C2Py_C8_3.xyz
          omp threads                :                     1

   ID    Z sym.   atoms
    1   27 Co     1, 59, 133
    2    6 C      2-6, 8-13, 15-19, 21-26, 28-33, 35-40, 60-64, 66-71, 73-77,
                  79-84, 86-91, 93-98, 117-132, 134-138, 140-145, 147-151,
                  153-158, 160-165, 167-172
    3    7 N      7, 14, 20, 27, 34, 41, 65, 72, 78, 85, 92, 99, 139, 146,
                  152, 159, 166, 173
    4    1 H      42-58, 100-116, 174-189

molecular fragmentation (1/2 indicates fragments):
111111111111111111111111111111111111111111111111111111111122222222222222
222222222222222222222222222222222222222222222222222222222222222222222222
222222222222222222222222222222222222222222222
# atoms in fragment 1/2:    58   131
 fragment masses (1/2) :      568.47     1328.11
CMA distance (Bohr)    :  51.419
constraining FC (au)   :  0.0500
########################################################################
[WARNING] Please study the warnings concerning your input carefully
-1- prog_main_parseArguments: Unknown option '-T' provided
########################################################################

           -------------------------------------------------
          |                 G F N 1 - x T B                 |
           -------------------------------------------------

        Reference                      10.1021/acs.jctc.7b00118
      * Hamiltonian:
        H0-scaling (s, p, d)           1.850000    2.250000    2.000000
        zeta-weighting                 0.000000
      * Dispersion:
        s8                             2.400000
        a1                             0.630000
        a2                             5.000000
        s9                             0.000000
      * Repulsion:
        kExp                           1.500000
        rExp                           1.000000
      * Coulomb:
        alpha                          2.000000
        third order                    atomic
        anisotropic                    false
      * Halogen bond correction:
        rad-scale                      1.300000
        damping                        0.440000


          ...................................................
          :                      SETUP                      :
          :.................................................:
          :  # basis functions                 674          :
          :  # atomic orbitals                 671          :
          :  # shells                          381          :
          :  # electrons                       639          :
          :  # halogen bonds                     0          :
          :  max. iterations                   250          :
          :  Hamiltonian                  GFN1-xTB          :
          :  restarted?                      false          :
          :  GBSA solvation                  false          :
          :  PC potential                    false          :
          :  electronic temp.          300.0000000     K    :
          :  accuracy                    1.0000000          :
          :  -> integral cutoff          0.2500000E+02      :
          :  -> integral neglect         0.1000000E-07      :
          :  -> SCF convergence          0.1000000E-05 Eh   :
          :  -> wf. convergence          0.2000000E-04 e    :
          :  Broyden damping             0.4000000          :
          ...................................................

 iter      E             dE          RMSdq      gap      omega  full diag
   1   -347.2801877 -0.347280E+03  0.112E+01    0.16       0.0  T
   2   -298.7198812  0.485603E+02  0.120E+01    0.31       1.0  T
   3   -323.0266902 -0.243068E+02  0.788E+00    0.18       1.0  T
   4    -74.6941805  0.248333E+03  0.115E+01    0.05       1.0  T
   5    237.6741967  0.312368E+03  0.134E+01    0.01       1.0  T
   6   -225.0752925 -0.462749E+03  0.783E+00    0.01       1.0  T
   7   -340.8872637 -0.115812E+03  0.481E+00    0.07       1.0  T
   8   -342.9616062 -0.207434E+01  0.405E+00    0.17       1.0  T
   9   -345.5811439 -0.261954E+01  0.371E+00    0.04       1.0  T
  10   -345.4883125  0.928314E-01  0.356E+00    0.07       1.0  T
  11   -347.3910096 -0.190270E+01  0.295E+00    0.15       1.0  T
  12   -347.5202715 -0.129262E+00  0.270E+00    0.21       1.0  T
  13   -347.7246694 -0.204398E+00  0.240E+00    0.21       1.0  T
  14   -347.6900939  0.345755E-01  0.207E+00    0.01       1.0  T
  15   -347.2048479  0.485246E+00  0.223E+00    0.19       1.0  T
  16   -347.3685778 -0.163730E+00  0.202E+00    0.28       1.0  T
  17   -348.0123426 -0.643765E+00  0.134E+00    0.16       1.0  T
  18   -348.0464974 -0.341548E-01  0.130E+00    0.17       1.0  T
  19   -347.9936827  0.528147E-01  0.127E+00    0.17       1.0  T
  20   -348.0312191 -0.375364E-01  0.121E+00    0.22       1.0  T
  21   -347.3762311  0.654988E+00  0.150E+00    0.05       1.0  T
  22   -345.4995668  0.187666E+01  0.172E+00    0.02       1.0  T
  23   -345.4869969  0.125698E-01  0.172E+00    0.02       1.0  T
  24   -346.1534563 -0.666459E+00  0.156E+00    0.07       1.0  T
  25   -345.6916541  0.461802E+00  0.153E+00    0.02       1.0  T
  26   -346.5778645 -0.886210E+00  0.129E+00    0.01       1.0  T
  27   -344.2797547  0.229811E+01  0.176E+00    0.10       1.0  T
  28   -347.1323137 -0.285256E+01  0.130E+00    0.12       1.0  T
  29   -348.6210751 -0.148876E+01  0.612E-01    0.10       1.0  T
  30   -348.7219704 -0.100895E+00  0.626E-01    0.05       1.0  T
  31   -348.7247086 -0.273827E-02  0.604E-01    0.05       1.0  T
  32   -348.7434400 -0.187313E-01  0.634E-01    0.07       1.0  T
  33   -348.7947288 -0.512888E-01  0.512E-01    0.05       1.0  T
  34   -348.2844539  0.510275E+00  0.135E+00    0.12       1.0  T
  35   -348.4270256 -0.142572E+00  0.121E+00    0.08       1.0  T
  36   -348.4411970 -0.141714E-01  0.119E+00    0.08       1.0  T
  37   -348.6564942 -0.215297E+00  0.920E-01    0.02       1.0  T
  38   -348.4800660  0.176428E+00  0.103E+00    0.05       1.0  T
  39   -348.4612108  0.188552E-01  0.102E+00    0.05       1.0  T
  40   -348.6978976 -0.236687E+00  0.704E-01    0.02       1.0  T
  41   -348.9159197 -0.218022E+00  0.224E-01    0.01       1.0  T
  42   -348.9046860  0.112338E-01  0.231E-01    0.01       1.0  T
  43   -348.9283432 -0.236573E-01  0.184E-01    0.02       1.0  T
  44   -348.9306570 -0.231377E-02  0.274E-01    0.03       1.0  T
  45   -348.9349149 -0.425794E-02  0.168E-01    0.02       1.0  T
  46   -348.9286113  0.630358E-02  0.264E-01    0.04       1.0  T
  47   -348.8943265  0.342849E-01  0.277E-01    0.01       1.0  T
  48   -348.9485746 -0.542481E-01  0.168E-01    0.02       1.0  T
  49   -348.8895100  0.590645E-01  0.336E-01    0.02       1.0  T
  50   -348.9416030 -0.520929E-01  0.137E-01    0.03       1.0  T
  51   -348.9343842  0.721881E-02  0.186E-01    0.02       1.0  T
  52   -348.9381443 -0.376013E-02  0.167E-01    0.03       1.0  T
  53   -348.9549677 -0.168235E-01  0.719E-02    0.03       1.0  T
  54   -348.9537339  0.123384E-02  0.808E-02    0.03       1.0  T
  55   -348.9590157 -0.528177E-02  0.532E-02    0.04       1.0  T
  56   -348.9595245 -0.508785E-03  0.424E-02    0.04       1.0  T
  57   -348.9597373 -0.212808E-03  0.337E-02    0.04       1.0  T
  58   -348.9600958 -0.358544E-03  0.251E-02    0.04       1.0  T
  59   -348.9601730 -0.772025E-04  0.243E-02    0.04       1.0  T
  60   -348.9597951  0.377959E-03  0.348E-02    0.04       1.0  T
  61   -348.9601516 -0.356546E-03  0.234E-02    0.04       1.0  T
  62   -348.9601986 -0.469960E-04  0.225E-02    0.04       1.0  T
  63   -348.9603121 -0.113470E-03  0.178E-02    0.04       1.0  T
  64   -348.9604273 -0.115258E-03  0.106E-02    0.04       1.0  T
  65   -348.9604373 -0.994667E-05  0.975E-03    0.04       1.0  T
  66   -348.9604349  0.243254E-05  0.961E-03    0.04       1.0  T
  67   -348.9604461 -0.112140E-04  0.851E-03    0.04       1.0  T
  68   -348.9604602 -0.141354E-04  0.749E-03    0.04       1.0  T
  69   -348.9604542  0.603622E-05  0.748E-03    0.04       1.0  T
  70   -348.9604657 -0.115431E-04  0.607E-03    0.04       1.2  T
  71   -348.9604652  0.459122E-06  0.601E-03    0.04       1.2  T
  72   -348.9604722 -0.694147E-05  0.484E-03    0.04       1.5  T
  73   -348.9604748 -0.263856E-05  0.427E-03    0.04       1.7  T
  74   -348.9604802 -0.539271E-05  0.257E-03    0.04       2.8  T
  75   -348.9604822 -0.202250E-05  0.113E-03    0.04       6.4  T
  76   -348.9604826 -0.348987E-06  0.462E-04    0.04      15.8  T
  77   -348.9604825  0.439430E-07  0.506E-04    0.04      14.4  T
  78   -348.9604826 -0.947700E-07  0.287E-04    0.04      25.4  T
  79   -348.9604827 -0.319973E-07  0.152E-04    0.04      47.9  T
  80   -348.9604827 -0.546095E-08  0.115E-04    0.04      63.0  T

   *** convergence criteria satisfied after 80 iterations ***

         #    Occupation            Energy/Eh            Energy/eV
      -------------------------------------------------------------
         1        2.0000           -0.7849862             -21.3606
       ...           ...                  ...                  ...
       314        1.9999           -0.3902213             -10.6185
       315        1.9954           -0.3861977             -10.5090
       316        1.8947           -0.3831618             -10.4264
       317        1.7363           -0.3821858             -10.3998
       318        1.6839           -0.3819773             -10.3941
       319        1.4660           -0.3813162             -10.3761
       320        1.4585           -0.3812970             -10.3756 (HOMO)
       321        0.7654           -0.3797951             -10.3347 (LUMO)
       322        0.0000           -0.3689935             -10.0408
       323                         -0.3502096              -9.5297
       324                         -0.3485182              -9.4837
       325                         -0.3467401              -9.4353
       ...                                ...                  ...
       671                          2.1769381              59.2375
      -------------------------------------------------------------
                  HL-Gap            0.0015019 Eh            0.0409 eV
             Fermi-level           -0.3802857 Eh          -10.3481 eV

 SCC (total)                   0 d,  0 h,  0 min, 11.583 sec
 SCC setup                      ...        0 min,  0.011 sec (  0.097%)
 Dispersion                     ...        0 min,  0.007 sec (  0.058%)
 classical contributions        ...        0 min,  0.002 sec (  0.018%)
 integral evaluation            ...        0 min,  0.201 sec (  1.733%)
 iterations                     ...        0 min, 10.906 sec ( 94.149%)
 molecular gradient             ...        0 min,  0.428 sec (  3.691%)
 printout                       ...        0 min,  0.029 sec (  0.253%)

         :::::::::::::::::::::::::::::::::::::::::::::::::::::
         ::                     SUMMARY                     ::
         :::::::::::::::::::::::::::::::::::::::::::::::::::::
         :: total energy            -342.578902522914 Eh    ::
         :: gradient norm              1.323667831517 Eh/a0 ::
         :: HOMO-LUMO gap              0.040868767805 eV    ::
         ::.................................................::
         :: SCC energy              -348.960482681548 Eh    ::
         :: -> electrostatic           0.270673732922 Eh    ::
         :: repulsion energy           6.536088467855 Eh    ::
         :: dispersion energy         -0.154508309220 Eh    ::
         :: halogen bond corr.         0.000000000000 Eh    ::
         :: add. restraining           0.000000000000 Eh    ::
         :: total charge               0.000000000596 e     ::
         :::::::::::::::::::::::::::::::::::::::::::::::::::::

      ----------------------------------------------------------- 
     |                   =====================                   |
     |                        A N C O P T                        |
     |                   =====================                   |
     |               Approximate Normal Coordinate               |
     |                Rational Function Optimizer                |
      ----------------------------------------------------------- 

          ...................................................
          :                      SETUP                      :
          :.................................................:
          :   optimization level            normal          :
          :   max. optcycles                   567          :
          :   ANC micro-cycles                  20          :
          :   degrees of freedom               561          :
          :.................................................:
          :   RF solver                   davidson          :
          :   write xtbopt.log                true          :
          :   linear?                        false          :
          :   energy convergence         0.5000000E-05 Eh   :
          :   grad. convergence          0.1000000E-02 Eh/α :
          :   maximium RF displ.         1.0000000          :
          :   Hlow (freq-cutoff)         0.1000000E-01      :
          :   Hmax (freq-cutoff)         5.0000000          :
          :   S6 in model hess.         20.0000000          :
          ...................................................

generating ANC from model Hessian ...
Using Lindh-Hessian (1995)
 Shifting diagonal of input Hessian by    1.0068669844539684E-002
 Lowest  eigenvalues of input Hessian
    0.010000    0.010012    0.010032    0.010039    0.010053    0.010058
    0.010060    0.010061    0.000000    0.000000    0.000000    0.000000
    0.000000    0.000000    0.010077    0.010081    0.010082    0.010093
 Highest eigenvalues
    2.610167    2.707056    3.001861    3.046568    3.245529    3.339751


........................................................................
.............................. CYCLE    1 ..............................
........................................................................
   1   -348.9604827 -0.348960E+03  0.100E-04    0.04       0.0  T
   2   -348.9604700  0.126775E-04  0.494E-03    0.04       1.5  T
   3   -348.9604826 -0.126353E-04  0.319E-04    0.04      22.8  T
   4   -348.9604822  0.447660E-06  0.973E-04    0.04       7.5  T
   5   -348.9604826 -0.385280E-06  0.513E-04    0.04      14.2  T
   6   -348.9604827 -0.848281E-07  0.222E-04    0.04      32.7  T
   7   -348.9604826  0.404273E-07  0.348E-04    0.04      20.9  T
   8   -348.9604826 -0.233287E-07  0.279E-04    0.04      26.1  T
   9   -348.9604827 -0.154506E-07  0.218E-04    0.04      33.4  T
  10   -348.9604827 -0.201770E-07  0.102E-04    0.04      71.6  T
  11   -348.9604827 -0.369766E-08  0.620E-05    0.04     117.3  T
     SCC iter.                  ...        0 min,  1.510 sec
     gradient                   ...        0 min,  0.426 sec
 * total energy  :  -342.5789025 Eh     change       -0.4156163E-08 Eh
   gradient norm :     1.3236679 Eh/α   predicted     0.0000000E+00 (-100.00%)
   displ. norm   :     0.4973400 α      lambda       -0.5836785E+00
   maximum displ.:     0.2261180 α      in ANC's #558, #559, #548, ...

........................................................................
.............................. CYCLE    2 ..............................
........................................................................
   1   -348.8546467 -0.348855E+03  0.329E-01    0.00       0.0  T
   2   -348.1345999  0.720047E+00  0.123E+00    0.12       1.0  T
   3   -348.5337647 -0.399165E+00  0.897E-01    0.02       1.0  T
   4   -347.7300154  0.803749E+00  0.149E+00    0.10       1.0  T
   5   -348.7566358 -0.102662E+01  0.523E-01    0.08       1.0  T
   6   -348.6053426  0.151293E+00  0.745E-01    0.02       1.0  T
   7   -348.8772257 -0.271883E+00  0.235E-01    0.03       1.0  T
   8   -348.7154290  0.161797E+00  0.598E-01    0.01       1.0  T
   9   -348.4879169  0.227512E+00  0.911E-01    0.10       1.0  T
  10   -348.7444175 -0.256501E+00  0.545E-01    0.09       1.0  T
  11   -348.8394244 -0.950070E-01  0.338E-01    0.01       1.0  T
  12   -348.8088656  0.305588E-01  0.421E-01    0.01       1.0  T
  13   -348.8801650 -0.712994E-01  0.198E-01    0.02       1.0  T
  14   -348.8770362  0.312878E-02  0.209E-01    0.03       1.0  T
  15   -348.8935446 -0.165084E-01  0.103E-01    0.04       1.0  T
  16   -348.8963455 -0.280088E-02  0.751E-02    0.03       1.0  T
  17   -348.8984692 -0.212367E-02  0.374E-02    0.04       1.0  T
  18   -348.8989312 -0.462024E-03  0.221E-02    0.04       1.0  T
  19   -348.8990263 -0.951008E-04  0.174E-02    0.03       1.0  T
  20   -348.8991753 -0.149058E-03  0.294E-03    0.03       2.5  T
  21   -348.8991748  0.573120E-06  0.300E-03    0.03       2.4  T
  22   -348.8991784 -0.367695E-05  0.887E-04    0.03       8.2  T
  23   -348.8991784  0.545172E-07  0.896E-04    0.03       8.1  T
  24   -348.8991787 -0.290977E-06  0.480E-04    0.03      15.2  T
  25   -348.8991788 -0.116056E-06  0.104E-04    0.03      69.9  T
  26   -348.8991788  0.624203E-08  0.152E-04    0.03      47.8  T
     SCC iter.                  ...        0 min,  3.491 sec
     gradient                   ...        0 min,  0.421 sec
 * total energy  :  -342.9697734 Eh     change       -0.3908708E+00 Eh
   gradient norm :     0.5316595 Eh/α   predicted    -0.3640279E+00 (  -6.87%)
   displ. norm   :     0.5769922 α      lambda       -0.2375708E+00
   maximum displ.:     0.1326092 α      in ANC's #155, #558, #101, ...

........................................................................
.............................. CYCLE    3 ..............................
........................................................................
   1   -348.9966177 -0.348997E+03  0.301E-01    0.00       0.0  T
   2   -348.0769408  0.919677E+00  0.140E+00    0.13       1.0  T
   3   -348.7220421 -0.645101E+00  0.909E-01    0.16       1.0  T
   4   -348.2185819  0.503460E+00  0.125E+00    0.14       1.0  T
   5   -348.9597250 -0.741143E+00  0.396E-01    0.00       1.0  T
   6   -348.9709732 -0.112482E-01  0.338E-01    0.06       1.0  T
   7   -348.8166154  0.154358E+00  0.632E-01    0.01       1.0  T
   8   -348.9283386 -0.111723E+00  0.451E-01    0.08       1.0  T
   9   -348.9797510 -0.514124E-01  0.324E-01    0.00       1.0  T
  10   -348.9653970  0.143540E-01  0.363E-01    0.02       1.0  T
  11   -349.0127574 -0.473605E-01  0.198E-01    0.03       1.0  T
  12   -349.0160490 -0.329152E-02  0.185E-01    0.00       1.0  T
  13   -349.0308963 -0.148473E-01  0.689E-02    0.02       1.0  T
  14   -349.0313248 -0.428564E-03  0.603E-02    0.03       1.0  T
  15   -349.0332384 -0.191362E-02  0.530E-03    0.02       1.4  T
  16   -349.0331688  0.695844E-04  0.129E-02    0.02       1.0  T
  17   -349.0331997 -0.308378E-04  0.102E-02    0.02       1.0  T
  18   -349.0332427 -0.430458E-04  0.400E-03    0.02       1.8  T
  19   -349.0332479 -0.516663E-05  0.228E-03    0.02       3.2  T
  20   -349.0332500 -0.212534E-05  0.115E-03    0.02       6.3  T
  21   -349.0332505 -0.514715E-06  0.574E-04    0.02      12.7  T
  22   -349.0332507 -0.149915E-06  0.190E-04    0.02      38.3  T
  23   -349.0332507 -0.135345E-07  0.100E-04    0.02      72.7  T
     SCC iter.                  ...        0 min,  3.076 sec
     gradient                   ...        0 min,  0.424 sec
 * total energy  :  -343.1352239 Eh     change       -0.1654506E+00 Eh
   gradient norm :     0.2264312 Eh/α   predicted    -0.1583323E+00 (  -4.30%)
   displ. norm   :     0.7557680 α      lambda       -0.1233246E+00
   maximum displ.:     0.2665639 α      in ANC's #155, #101, #160, ...

........................................................................
.............................. CYCLE    4 ..............................
........................................................................
   1   -349.0934610 -0.349093E+03  0.174E-01    0.00       0.0  T
   2   -348.2512320  0.842229E+00  0.129E+00    0.13       1.0  T
   3   -348.9089961 -0.657764E+00  0.749E-01    0.11       1.0  T
   4   -348.7617291  0.147267E+00  0.827E-01    0.09       1.0  T
   5   -348.9679714 -0.206242E+00  0.526E-01    0.05       1.0  T
   6   -349.0771737 -0.109202E+00  0.240E-01    0.04       1.0  T
   7   -348.9910615  0.861122E-01  0.468E-01    0.01       1.0  T
   8   -349.0784860 -0.874244E-01  0.226E-01    0.04       1.0  T
   9   -349.0888144 -0.103284E-01  0.182E-01    0.01       1.0  T
  10   -349.1033583 -0.145439E-01  0.708E-02    0.02       1.0  T
  11   -349.1058617 -0.250348E-02  0.193E-02    0.02       1.0  T
  12   -349.1060448 -0.183033E-03  0.453E-03    0.01       1.6  T
  13   -349.1060361  0.869958E-05  0.589E-03    0.01       1.2  T
  14   -349.1060526 -0.165669E-04  0.186E-03    0.01       3.9  T
  15   -349.1060511  0.150068E-05  0.242E-03    0.01       3.0  T
  16   -349.1060512 -0.767904E-07  0.238E-03    0.01       3.1  T
  17   -349.1060538 -0.260715E-05  0.835E-04    0.01       8.7  T
  18   -349.1060541 -0.275645E-06  0.396E-04    0.01      18.4  T
  19   -349.1060542 -0.773240E-07  0.120E-04    0.01      60.6  T
  20   -349.1060542  0.464865E-09  0.120E-04    0.01      60.5  T
     SCC iter.                  ...        0 min,  2.771 sec
     gradient                   ...        0 min,  0.447 sec
 * total energy  :  -343.2397728 Eh     change       -0.1045489E+00 Eh
   gradient norm :     0.1568532 Eh/α   predicted    -0.9688296E-01 (  -7.33%)
   displ. norm   :     0.8607258 α      lambda       -0.1050449E+00
   maximum displ.:     0.2969511 α      in ANC's #101, #155, #75, ...

........................................................................
.............................. CYCLE    5 ..............................
........................................................................
   1   -349.1444412 -0.349144E+03  0.136E-01    0.00       0.0  T
   2   -348.4874302  0.657011E+00  0.108E+00    0.11       1.0  T
   3   -349.0355078 -0.548078E+00  0.558E-01    0.02       1.0  T
   4   -348.6724433  0.363065E+00  0.975E-01    0.12       1.0  T
   5   -349.0898498 -0.417406E+00  0.374E-01    0.04       1.0  T
   6   -349.1055597 -0.157099E-01  0.295E-01    0.02       1.0  T
   7   -348.9791835  0.126376E+00  0.578E-01    0.02       1.0  T
   8   -348.9476209  0.315627E-01  0.613E-01    0.05       1.0  T
   9   -349.0041633 -0.565424E-01  0.537E-01    0.07       1.0  T
  10   -349.1325924 -0.128429E+00  0.190E-01    0.00       1.0  T
  11   -349.1411243 -0.853186E-02  0.139E-01    0.01       1.0  T
  12   -349.1500619 -0.893766E-02  0.373E-02    0.00       1.0  T
  13   -349.1497945  0.267405E-03  0.438E-02    0.01       1.0  T
  14   -349.1506955 -0.900999E-03  0.117E-02    0.01       1.0  T
  15   -349.1507065 -0.109221E-04  0.106E-02    0.01       1.0  T
  16   -349.1507530 -0.465312E-04  0.435E-03    0.01       1.7  T
  17   -349.1507611 -0.809390E-05  0.168E-03    0.01       4.3  T
  18   -349.1507620 -0.882984E-06  0.105E-03    0.01       6.9  T
  19   -349.1507625 -0.544068E-06  0.114E-04    0.01      63.6  T
  20   -349.1507625  0.224497E-08  0.132E-04    0.01      55.2  T
     SCC iter.                  ...        0 min,  2.905 sec
     gradient                   ...        0 min,  0.415 sec
 * total energy  :  -343.3310407 Eh     change       -0.9126787E-01 Eh
   gradient norm :     0.1339028 Eh/α   predicted    -0.9143373E-01 (   0.18%)
   displ. norm   :     0.8726432 α      lambda       -0.8339297E-01
   maximum displ.:     0.3315524 α      in ANC's #101, #155, #66, ...

........................................................................
.............................. CYCLE    6 ..............................
........................................................................
   1   -349.1778015 -0.349178E+03  0.993E-02    0.00       0.0  T
   2   -348.8837392  0.294062E+00  0.779E-01    0.14       1.0  T
   3   -348.9545310 -0.707919E-01  0.685E-01    0.02       1.0  T
   4   -348.8888012  0.657298E-01  0.777E-01    0.09       1.0  T
   5   -348.9413385 -0.525373E-01  0.702E-01    0.02       1.0  T
   6   -349.1653787 -0.224040E+00  0.177E-01    0.02       1.0  T
   7   -349.1255058  0.398728E-01  0.322E-01    0.02       1.0  T
   8   -349.0767865  0.487193E-01  0.453E-01    0.07       1.0  T
   9   -349.1738992 -0.971126E-01  0.116E-01    0.00       1.0  T
  10   -349.1790787 -0.517960E-02  0.522E-02    0.00       1.0  T
  11   -349.1791236 -0.448453E-04  0.512E-02    0.00       1.0  T
  12   -349.1800898 -0.966216E-03  0.276E-02    0.01       1.0  T
  13   -349.1803616 -0.271818E-03  0.155E-02    0.00       1.0  T
  14   -349.1804794 -0.117807E-03  0.293E-03    0.01       2.5  T
  15   -349.1804830 -0.354216E-05  0.137E-03    0.01       5.3  T
  16   -349.1804829  0.314940E-07  0.140E-03    0.01       5.2  T
  17   -349.1804839 -0.907659E-06  0.382E-04    0.01      19.0  T
  18   -349.1804839 -0.743487E-07  0.482E-05    0.01     151.0  T
  19   -349.1804839 -0.404327E-09  0.419E-05    0.01     173.5  T
     SCC iter.                  ...        0 min,  2.597 sec
     gradient                   ...        0 min,  0.441 sec
 * total energy  :  -343.3975167 Eh     change       -0.6647602E-01 Eh
   gradient norm :     0.1114644 Eh/α   predicted    -0.7344869E-01 (  10.49%)
   displ. norm   :     0.7710170 α      lambda       -0.5226080E-01
   maximum displ.:     0.2742496 α      in ANC's #101, #66, #75, ...

........................................................................
.............................. CYCLE    7 ..............................
........................................................................
   1   -349.2380298 -0.349238E+03  0.812E-02    0.00       0.0  T
   2   -348.5726170  0.665413E+00  0.109E+00    0.11       1.0  T
   3   -349.0397752 -0.467158E+00  0.667E-01    0.03       1.0  T
   4   -348.9629141  0.768611E-01  0.748E-01    0.02       1.0  T
   5   -348.9504274  0.124867E-01  0.766E-01    0.13       1.0  T
   6   -348.9559506 -0.552316E-02  0.751E-01    0.06       1.0  T
   7   -348.9938565 -0.379059E-01  0.694E-01    0.02       1.0  T
   8   -349.0725199 -0.786634E-01  0.562E-01    0.08       1.0  T
   9   -349.2003907 -0.127871E+00  0.300E-01    0.01       1.0  T
  10   -349.1986584  0.173233E-02  0.285E-01    0.02       1.0  T
  11   -349.2364832 -0.378248E-01  0.102E-01    0.01       1.0  T
  12   -349.2409539 -0.447077E-02  0.212E-02    0.00       1.0  T
  13   -349.2395158  0.143815E-02  0.568E-02    0.00       1.0  T
  14   -349.2397866 -0.270831E-03  0.524E-02    0.00       1.0  T
  15   -349.2408445 -0.105784E-02  0.263E-02    0.00       1.0  T
  16   -349.2411904 -0.345947E-03  0.366E-03    0.01       2.0  T
  17   -349.2411953 -0.487505E-05  0.158E-03    0.01       4.6  T
  18   -349.2411947  0.551630E-06  0.185E-03    0.01       3.9  T
  19   -349.2411955 -0.782923E-06  0.136E-03    0.01       5.3  T
  20   -349.2411958 -0.289618E-06  0.111E-03    0.01       6.5  T
  21   -349.2411964 -0.625484E-06  0.162E-04    0.01      44.8  T
  22   -349.2411964 -0.604138E-08  0.117E-04    0.01      62.3  T
     SCC iter.                  ...        0 min,  3.279 sec
     gradient                   ...        0 min,  0.444 sec
 * total energy  :  -343.4391192 Eh     change       -0.4160246E-01 Eh
   gradient norm :     0.0971339 Eh/α   predicted    -0.4166407E-01 (   0.15%)
   displ. norm   :     0.7602651 α      lambda       -0.4371191E-01
   maximum displ.:     0.2710498 α      in ANC's #101, #66, #65, ...

........................................................................
.............................. CYCLE    8 ..............................
........................................................................
   1   -349.3099780 -0.349310E+03  0.894E-02    0.00       0.0  T
   2   -348.5681072  0.741871E+00  0.116E+00    0.13       1.0  T
   3   -349.1366401 -0.568533E+00  0.678E-01    0.01       1.0  T
   4   -349.0036249  0.133015E+00  0.786E-01    0.04       1.0  T
   5   -349.0912883 -0.876633E-01  0.672E-01    0.11       1.0  T
   6   -348.9747122  0.116576E+00  0.799E-01    0.12       1.0  T
   7   -349.0747001 -0.999879E-01  0.676E-01    0.06       1.0  T
   8   -349.1592039 -0.845037E-01  0.546E-01    0.06       1.0  T
   9   -349.2809271 -0.121723E+00  0.275E-01    0.02       1.0  T
  10   -349.3020773 -0.211502E-01  0.162E-01    0.00       1.0  T
  11   -349.2479882  0.540891E-01  0.358E-01    0.01       1.0  T
  12   -349.2851428 -0.371546E-01  0.237E-01    0.01       1.0  T
  13   -349.3101110 -0.249682E-01  0.795E-02    0.00       1.0  T
  14   -349.3130828 -0.297180E-02  0.242E-02    0.01       1.0  T
  15   -349.3132109 -0.128135E-03  0.174E-02    0.00       1.0  T
  16   -349.3133465 -0.135588E-03  0.487E-03    0.01       1.5  T
  17   -349.3133180  0.284644E-04  0.905E-03    0.01       1.0  T
  18   -349.3133550 -0.369724E-04  0.279E-03    0.01       2.6  T
  19   -349.3133576 -0.257683E-05  0.208E-03    0.01       3.5  T
  20   -349.3133591 -0.147220E-05  0.949E-04    0.01       7.7  T
  21   -349.3133593 -0.280350E-06  0.632E-04    0.01      11.5  T
  22   -349.3133595 -0.178783E-06  0.220E-04    0.01      33.1  T
  23   -349.3133595 -0.201900E-07  0.695E-05    0.01     104.7  T
  24   -349.3133596 -0.214914E-08  0.141E-05    0.01     516.6  T
     SCC iter.                  ...        0 min,  3.362 sec
     gradient                   ...        0 min,  0.451 sec
 * total energy  :  -343.4716388 Eh     change       -0.3251963E-01 Eh
   gradient norm :     0.0865043 Eh/α   predicted    -0.3448878E-01 (   6.06%)
   displ. norm   :     0.7586080 α      lambda       -0.2923081E-01
   maximum displ.:     0.3155647 α      in ANC's #66, #65, #75, ...

........................................................................
.............................. CYCLE    9 ..............................
........................................................................
   1   -349.3618241 -0.349362E+03  0.111E-01    0.00       0.0  T
   2   -347.9464400  0.141538E+01  0.175E+00    0.26       1.0  T
   3   -348.8201653 -0.873725E+00  0.995E-01    0.11       1.0  T
   4   -349.2221516 -0.401986E+00  0.547E-01    0.06       1.0  T
   5   -349.2344612 -0.123096E-01  0.524E-01    0.07       1.0  T
   6   -349.1589401  0.755211E-01  0.643E-01    0.00       1.0  T
   7   -349.3377469 -0.178807E+00  0.245E-01    0.02       1.0  T
   8   -349.3417247 -0.397782E-02  0.232E-01    0.01       1.0  T
   9   -349.3331716  0.855315E-02  0.274E-01    0.04       1.0  T
  10   -349.3613529 -0.281813E-01  0.128E-01    0.01       1.0  T
  11   -349.3608344  0.518514E-03  0.131E-01    0.01       1.0  T
  12   -349.3669097 -0.607530E-02  0.778E-02    0.01       1.0  T
  13   -349.3697561 -0.284642E-02  0.171E-02    0.00       1.0  T
  14   -349.3697429  0.131725E-04  0.178E-02    0.00       1.0  T
  15   -349.3699026 -0.159650E-03  0.465E-03    0.00       1.6  T
  16   -349.3698920  0.105745E-04  0.641E-03    0.00       1.1  T
  17   -349.3699063 -0.143204E-04  0.393E-03    0.01       1.9  T
  18   -349.3699136 -0.724480E-05  0.160E-03    0.01       4.6  T
  19   -349.3699148 -0.121794E-05  0.656E-04    0.01      11.1  T
  20   -349.3699150 -0.170205E-06  0.359E-04    0.01      20.3  T
  21   -349.3699150 -0.665044E-07  0.704E-05    0.01     103.4  T
  22   -349.3699150 -0.262321E-08  0.214E-05    0.01     339.5  T
     SCC iter.                  ...        0 min,  3.168 sec
     gradient                   ...        0 min,  0.447 sec
 * total energy  :  -343.4941617 Eh     change       -0.2252294E-01 Eh
   gradient norm :     0.0599810 Eh/α   predicted    -0.2302641E-01 (   2.24%)
   displ. norm   :     0.7438652 α      lambda       -0.1937042E-01
   maximum displ.:     0.3448460 α      in ANC's #66, #65, #58, ...

........................................................................
.............................. CYCLE   10 ..............................
........................................................................
   1   -349.4147925 -0.349415E+03  0.146E-01    0.00       0.0  T
   2   -347.8642859  0.155051E+01  0.185E+00    0.28       1.0  T
   3   -348.8473361 -0.983050E+00  0.102E+00    0.12       1.0  T
   4   -349.2876182 -0.440282E+00  0.528E-01    0.07       1.0  T
   5   -349.2591036  0.285146E-01  0.569E-01    0.07       1.0  T
   6   -349.2137014  0.454022E-01  0.650E-01    0.02       1.0  T
   7   -349.3663187 -0.152617E+00  0.346E-01    0.01       1.0  T
   8   -349.4214098 -0.550911E-01  0.994E-02    0.01       1.0  T
   9   -349.3630353  0.583745E-01  0.357E-01    0.05       1.0  T
  10   -349.4248781 -0.618429E-01  0.629E-02    0.00       1.0  T
  11   -349.4259701 -0.109197E-02  0.425E-02    0.01       1.0  T
  12   -349.4254573  0.512798E-03  0.529E-02    0.01       1.0  T
  13   -349.4267546 -0.129730E-02  0.146E-02    0.01       1.0  T
  14   -349.4268399 -0.852854E-04  0.646E-03    0.00       1.1  T
  15   -349.4268525 -0.126592E-04  0.408E-03    0.00       1.8  T
  16   -349.4268601 -0.757834E-05  0.120E-03    0.00       6.0  T
  17   -349.4268608 -0.685037E-06  0.315E-04    0.00      23.1  T
  18   -349.4268608 -0.337059E-07  0.184E-04    0.00      39.6  T
  19   -349.4268608 -0.481373E-08  0.158E-04    0.00      45.9  T
     SCC iter.                  ...        0 min,  2.712 sec
     gradient                   ...        0 min,  0.444 sec
 * total energy  :  -343.5085988 Eh     change       -0.1443712E-01 Eh
   gradient norm :     0.0470944 Eh/α   predicted    -0.1504442E-01 (   4.21%)
   displ. norm   :     0.7836836 α      lambda       -0.1632205E-01
   maximum displ.:     0.2826371 α      in ANC's #66, #65, #75, ...

........................................................................
.............................. CYCLE   11 ..............................
........................................................................
   1   -349.4559179 -0.349456E+03  0.180E-01    0.00       0.0  T
   2   -347.8093238  0.164659E+01  0.192E+00    0.30       1.0  T
   3   -348.9076826 -0.109836E+01  0.100E+00    0.09       1.0  T
   4   -349.4103584 -0.502676E+00  0.359E-01    0.04       1.0  T
   5   -349.2644515  0.145907E+00  0.641E-01    0.04       1.0  T
   6   -349.2741547 -0.970317E-02  0.628E-01    0.03       1.0  T
   7   -349.4381367 -0.163982E+00  0.260E-01    0.03       1.0  T
   8   -349.4039935  0.341432E-01  0.369E-01    0.00       1.0  T
   9   -349.4591089 -0.551154E-01  0.164E-01    0.02       1.0  T
  10   -349.4639857 -0.487678E-02  0.127E-01    0.01       1.0  T
  11   -349.4711342 -0.714844E-02  0.508E-02    0.00       1.0  T
  12   -349.4718206 -0.686427E-03  0.330E-02    0.00       1.0  T
  13   -349.4720328 -0.212175E-03  0.255E-02    0.00       1.0  T
  14   -349.4723554 -0.322625E-03  0.544E-03    0.00       1.3  T
  15   -349.4723535  0.190498E-05  0.588E-03    0.00       1.2  T
  16   -349.4723630 -0.949956E-05  0.410E-03    0.00       1.8  T
  17   -349.4723706 -0.758885E-05  0.166E-03    0.00       4.4  T
  18   -349.4723720 -0.139980E-05  0.510E-04    0.00      14.3  T
  19   -349.4723720 -0.792923E-07  0.372E-04    0.00      19.5  T
  20   -349.4723721 -0.693246E-07  0.133E-04    0.00      54.9  T
  21   -349.4723721 -0.721809E-08  0.607E-05    0.00     119.9  T
     SCC iter.                  ...        0 min,  2.934 sec
     gradient                   ...        0 min,  0.410 sec
 * total energy  :  -343.5160256 Eh     change       -0.7426758E-02 Eh
   gradient norm :     0.0492379 Eh/α   predicted    -0.1317321E-01 (  77.38%)
   displ. norm   :     0.5816648 α      lambda       -0.1180200E-01
   maximum displ.:     0.2594804 α      in ANC's #66, #33, #54, ...

........................................................................
.............................. CYCLE   12 ..............................
........................................................................
   1   -349.5010048 -0.349501E+03  0.132E-01    0.00       0.0  T
   2   -347.9839944  0.151701E+01  0.182E+00    0.29       1.0  T
   3   -349.1848843 -0.120089E+01  0.776E-01    0.09       1.0  T
   4   -349.3007507 -0.115866E+00  0.632E-01    0.08       1.0  T
   5   -349.4286851 -0.127934E+00  0.399E-01    0.01       1.0  T
   6   -349.2959702  0.132715E+00  0.656E-01    0.01       1.0  T
   7   -349.4767193 -0.180749E+00  0.249E-01    0.03       1.0  T
   8   -349.4899871 -0.132677E-01  0.194E-01    0.02       1.0  T
   9   -349.4824678  0.751934E-02  0.232E-01    0.02       1.0  T
  10   -349.4981584 -0.156906E-01  0.155E-01    0.00       1.0  T
  11   -349.5097740 -0.116156E-01  0.158E-02    0.00       1.0  T
  12   -349.5086262  0.114773E-02  0.501E-02    0.00       1.0  T
  13   -349.5097980 -0.117174E-02  0.143E-02    0.00       1.0  T
  14   -349.5099007 -0.102756E-03  0.318E-03    0.00       2.3  T
  15   -349.5098900  0.107100E-04  0.552E-03    0.00       1.3  T
  16   -349.5098898  0.273999E-06  0.564E-03    0.00       1.3  T
  17   -349.5099019 -0.121454E-04  0.295E-03    0.00       2.5  T
  18   -349.5099059 -0.395392E-05  0.115E-03    0.00       6.3  T
  19   -349.5099064 -0.494760E-06  0.673E-04    0.00      10.8  T
  20   -349.5099066 -0.224514E-06  0.174E-04    0.00      41.9  T
  21   -349.5099066 -0.129909E-07  0.787E-05    0.00      92.4  T
     SCC iter.                  ...        0 min,  2.888 sec
     gradient                   ...        0 min,  0.441 sec
 * total energy  :  -343.5225058 Eh     change       -0.6480228E-02 Eh
   gradient norm :     0.0430988 Eh/α   predicted    -0.7897507E-02 (  21.87%)
   displ. norm   :     0.5993553 α      lambda       -0.8734030E-02
   maximum displ.:     0.2746005 α      in ANC's #33, #74, #35, ...

........................................................................
.............................. CYCLE   13 ..............................
........................................................................
   1   -349.5300260 -0.349530E+03  0.822E-02    0.00       0.0  T
   2   -348.1673097  0.136272E+01  0.170E+00    0.28       1.0  T
   3   -349.4600810 -0.129277E+01  0.385E-01    0.04       1.0  T
   4   -349.4574052  0.267584E-02  0.397E-01    0.02       1.0  T
   5   -349.4255994  0.318058E-01  0.467E-01    0.04       1.0  T
   6   -349.5269651 -0.101366E+00  0.109E-01    0.00       1.0  T
   7   -349.5223365  0.462856E-02  0.147E-01    0.00       1.0  T
   8   -349.5183823  0.395429E-02  0.172E-01    0.01       1.0  T
   9   -349.5287461 -0.103638E-01  0.945E-02    0.01       1.0  T
  10   -349.5330612 -0.431509E-02  0.234E-02    0.00       1.0  T
  11   -349.5331562 -0.950041E-04  0.185E-02    0.00       1.0  T
  12   -349.5332042 -0.480579E-04  0.158E-02    0.00       1.0  T
  13   -349.5332794 -0.751330E-04  0.105E-02    0.00       1.0  T
  14   -349.5333127 -0.333466E-04  0.672E-03    0.00       1.1  T
  15   -349.5333239 -0.111761E-04  0.484E-03    0.00       1.5  T
  16   -349.5333328 -0.888824E-05  0.249E-03    0.00       2.9  T
  17   -349.5333355 -0.274614E-05  0.899E-04    0.00       8.1  T
  18   -349.5333359 -0.406541E-06  0.127E-04    0.00      57.5  T
  19   -349.5333359 -0.799594E-08  0.284E-05    0.00     255.8  T
     SCC iter.                  ...        0 min,  2.633 sec
     gradient                   ...        0 min,  0.440 sec
 * total energy  :  -343.5244416 Eh     change       -0.1935808E-02 Eh
   gradient norm :     0.0606509 Eh/α   predicted    -0.5935764E-02 ( 206.63%)
   displ. norm   :     0.4323547 α      lambda       -0.7716190E-02
   maximum displ.:     0.1778660 α      in ANC's #74, #33, #34, ...

........................................................................
.............................. CYCLE   14 ..............................
........................................................................
   1   -349.5561000 -0.349556E+03  0.175E-02    0.00       0.0  T
   2   -349.3841761  0.171924E+00  0.596E-01    0.07       1.0  T
   3   -349.5227753 -0.138599E+00  0.256E-01    0.00       1.0  T
   4   -349.5529264 -0.301511E-01  0.848E-02    0.00       1.0  T
   5   -349.5434914  0.943493E-02  0.158E-01    0.00       1.0  T
   6   -349.5322148  0.112766E-01  0.213E-01    0.01       1.0  T
   7   -349.5474905 -0.152757E-01  0.130E-01    0.01       1.0  T
   8   -349.5551138 -0.762323E-02  0.446E-02    0.00       1.0  T
   9   -349.5550607  0.530164E-04  0.463E-02    0.00       1.0  T
  10   -349.5558039 -0.743118E-03  0.263E-02    0.00       1.0  T
  11   -349.5561151 -0.311216E-03  0.108E-02    0.00       1.0  T
  12   -349.5561714 -0.562936E-04  0.344E-03    0.00       2.1  T
  13   -349.5561775 -0.617190E-05  0.635E-04    0.00      11.5  T
  14   -349.5561777 -0.161983E-06  0.282E-04    0.00      25.8  T
  15   -349.5561777 -0.211713E-07  0.191E-04    0.00      38.2  T
  16   -349.5561777 -0.136201E-07  0.913E-05    0.00      79.6  T
     SCC iter.                  ...        0 min,  2.289 sec
     gradient                   ...        0 min,  0.446 sec
 * total energy  :  -343.5287235 Eh     change       -0.4281879E-02 Eh
   gradient norm :     0.0387451 Eh/α   predicted    -0.4579295E-02 (   6.95%)
   displ. norm   :     0.4785426 α      lambda       -0.6085436E-02
   maximum displ.:     0.2518206 α      in ANC's #33, #35, #101, ...

........................................................................
.............................. CYCLE   15 ..............................
........................................................................
   1   -349.5771711 -0.349577E+03  0.253E-02    0.00       0.0  T
   2   -349.3279557  0.249215E+00  0.693E-01    0.05       1.0  T
   3   -349.4875816 -0.159626E+00  0.416E-01    0.01       1.0  T
   4   -349.4519666  0.356150E-01  0.482E-01    0.06       1.0  T
   5   -349.5541387 -0.102172E+00  0.211E-01    0.01       1.0  T
   6   -349.5522027  0.193595E-02  0.226E-01    0.02       1.0  T
   7   -349.5635360 -0.113332E-01  0.173E-01    0.00       1.0  T
   8   -349.4975015  0.660345E-01  0.397E-01    0.02       1.0  T
   9   -349.5761065 -0.786050E-01  0.535E-02    0.00       1.0  T
  10   -349.5759874  0.119102E-03  0.537E-02    0.01       1.0  T
  11   -349.5774921 -0.150474E-02  0.605E-03    0.00       1.2  T
  12   -349.5775005 -0.832826E-05  0.433E-03    0.00       1.7  T
  13   -349.5775083 -0.782517E-05  0.204E-03    0.00       3.6  T
  14   -349.5775092 -0.924767E-06  0.152E-03    0.00       4.8  T
  15   -349.5775103 -0.109363E-05  0.439E-04    0.00      16.6  T
  16   -349.5775104 -0.880979E-07  0.137E-04    0.00      53.1  T
  17   -349.5775104  0.558055E-08  0.168E-04    0.00      43.3  T
     SCC iter.                  ...        0 min,  2.524 sec
     gradient                   ...        0 min,  0.417 sec
 * total energy  :  -343.5295775 Eh     change       -0.8539832E-03 Eh
   gradient norm :     0.0534899 Eh/α   predicted    -0.3739509E-02 ( 337.89%)
   displ. norm   :     0.4185934 α      lambda       -0.5337024E-02
   maximum displ.:     0.1996841 α      in ANC's #34, #33, #31, ...

........................................................................
.............................. CYCLE   16 ..............................
........................................................................
   1   -349.5893225 -0.349589E+03  0.150E-02    0.00       0.0  T
   2   -349.5529517  0.363707E-01  0.265E-01    0.03       1.0  T
   3   -349.5861530 -0.332013E-01  0.918E-02    0.00       1.0  T
   4   -349.5839751  0.217792E-02  0.994E-02    0.01       1.0  T
   5   -349.5853571 -0.138205E-02  0.929E-02    0.00       1.0  T
   6   -349.5858526 -0.495457E-03  0.810E-02    0.01       1.0  T
   7   -349.5711356  0.147170E-01  0.185E-01    0.01       1.0  T
   8   -349.5877050 -0.165695E-01  0.565E-02    0.00       1.0  T
   9   -349.5868184  0.886624E-03  0.697E-02    0.01       1.0  T
  10   -349.5892208 -0.240240E-02  0.181E-02    0.00       1.0  T
  11   -349.5893817 -0.160918E-03  0.454E-03    0.00       1.6  T
  12   -349.5893885 -0.678740E-05  0.274E-03    0.00       2.7  T
  13   -349.5893924 -0.383098E-05  0.557E-04    0.00      13.1  T
  14   -349.5893924 -0.736126E-07  0.394E-04    0.00      18.4  T
  15   -349.5893925 -0.475517E-07  0.250E-04    0.00      29.0  T
  16   -349.5893925 -0.229626E-07  0.131E-04    0.00      55.4  T
  17   -349.5893925 -0.758973E-08  0.442E-05    0.00     164.4  T
     SCC iter.                  ...        0 min,  2.506 sec
     gradient                   ...        0 min,  0.434 sec
 * total energy  :  -343.5328330 Eh     change       -0.3255519E-02 Eh
   gradient norm :     0.0207202 Eh/α   predicted    -0.3136091E-02 (  -3.67%)
   displ. norm   :     0.5701614 α      lambda       -0.4583647E-02
   maximum displ.:     0.3555143 α      in ANC's #33, #35, #19, ...

........................................................................
.............................. CYCLE   17 ..............................
........................................................................
   1   -349.5972835 -0.349597E+03  0.354E-02    0.00       0.0  T
   2   -349.3375548  0.259729E+00  0.730E-01    0.05       1.0  T
   3   -349.5163558 -0.178801E+00  0.416E-01    0.02       1.0  T
   4   -349.5132828  0.307299E-02  0.399E-01    0.01       1.0  T
   5   -349.5730634 -0.597806E-01  0.211E-01    0.01       1.0  T
   6   -349.5591502  0.139132E-01  0.271E-01    0.02       1.0  T
   7   -349.5531010  0.604919E-02  0.293E-01    0.03       1.0  T
   8   -349.5607456 -0.764457E-02  0.261E-01    0.03       1.0  T
   9   -349.5955025 -0.347569E-01  0.638E-02    0.00       1.0  T
  10   -349.5966053 -0.110284E-02  0.445E-02    0.00       1.0  T
  11   -349.5976654 -0.106002E-02  0.561E-03    0.00       1.3  T
  12   -349.5976766 -0.112746E-04  0.291E-03    0.00       2.5  T
  13   -349.5976805 -0.382207E-05  0.124E-03    0.00       5.9  T
  14   -349.5976812 -0.717034E-06  0.350E-04    0.00      20.8  T
  15   -349.5976812 -0.514201E-07  0.179E-04    0.00      40.7  T
  16   -349.5976812 -0.132115E-07  0.834E-05    0.00      87.2  T
     SCC iter.                  ...        0 min,  2.215 sec
     gradient                   ...        0 min,  0.447 sec
 * total energy  :  -343.5322385 Eh     change        0.5944763E-03 Eh
   gradient norm :     0.0588412 Eh/α   predicted    -0.3036864E-02 (-610.85%)
   displ. norm   :     0.3307972 α      lambda       -0.6263971E-02
   maximum displ.:     0.1391567 α      in ANC's #34, #33, #35, ...

........................................................................
.............................. CYCLE   18 ..............................
........................................................................
   1   -349.6097239 -0.349610E+03  0.188E-02    0.00       0.0  T
   2   -349.3677080  0.242016E+00  0.686E-01    0.06       1.0  T
   3   -349.5772718 -0.209564E+00  0.256E-01    0.00       1.0  T
   4   -349.5370328  0.402390E-01  0.367E-01    0.03       1.0  T
   5   -349.6028491 -0.658164E-01  0.117E-01    0.01       1.0  T
   6   -349.6006347  0.221444E-02  0.134E-01    0.00       1.0  T
   7   -349.5971582  0.347648E-02  0.156E-01    0.01       1.0  T
   8   -349.5897933  0.736488E-02  0.198E-01    0.01       1.0  T
   9   -349.6082511 -0.184577E-01  0.561E-02    0.00       1.0  T
  10   -349.6085395 -0.288423E-03  0.509E-02    0.00       1.0  T
  11   -349.6098513 -0.131181E-02  0.110E-02    0.00       1.0  T
  12   -349.6099092 -0.579320E-04  0.321E-03    0.00       2.3  T
  13   -349.6099146 -0.542544E-05  0.450E-04    0.00      16.2  T
  14   -349.6099145  0.148215E-06  0.722E-04    0.00      10.1  T
  15   -349.6099147 -0.179699E-06  0.407E-04    0.00      17.9  T
  16   -349.6099147 -0.550563E-07  0.239E-04    0.00      30.5  T
  17   -349.6099148 -0.259967E-07  0.821E-05    0.00      88.6  T
  18   -349.6099148 -0.191653E-08  0.533E-05    0.00     136.5  T
     SCC iter.                  ...        0 min,  2.594 sec
     gradient                   ...        0 min,  0.454 sec
 * total energy  :  -343.5357142 Eh     change       -0.3475619E-02 Eh
   gradient norm :     0.0165261 Eh/α   predicted    -0.3474710E-02 (  -0.03%)
   displ. norm   :     0.5266873 α      lambda       -0.2875083E-02
   maximum displ.:     0.2265710 α      in ANC's #33, #34, #19, ...

........................................................................
.............................. CYCLE   19 ..............................
........................................................................
   1   -349.6178170 -0.349618E+03  0.217E-02    0.00       0.0  T
   2   -349.3651236  0.252693E+00  0.715E-01    0.01       1.0  T
   3   -349.6075100 -0.242386E+00  0.145E-01    0.00       1.0  T
   4   -349.5843084  0.232015E-01  0.253E-01    0.03       1.0  T
   5   -349.6164194 -0.321109E-01  0.569E-02    0.00       1.0  T
   6   -349.5935297  0.228897E-01  0.219E-01    0.02       1.0  T
   7   -349.6048941 -0.113644E-01  0.162E-01    0.00       1.0  T
   8   -349.6166315 -0.117374E-01  0.520E-02    0.00       1.0  T
   9   -349.6177234 -0.109189E-02  0.258E-02    0.00       1.0  T
  10   -349.6176900  0.334119E-04  0.271E-02    0.00       1.0  T
  11   -349.6179716 -0.281581E-03  0.149E-02    0.00       1.0  T
  12   -349.6180780 -0.106424E-03  0.368E-03    0.00       2.0  T
  13   -349.6180848 -0.677391E-05  0.722E-04    0.00      10.1  T
  14   -349.6180843  0.425590E-06  0.118E-03    0.00       6.2  T
  15   -349.6180850 -0.650591E-06  0.290E-04    0.00      25.1  T
  16   -349.6180850 -0.426544E-07  0.421E-05    0.00     173.0  T
  17   -349.6180850 -0.895795E-09  0.365E-06    0.00    1995.0  T
     SCC iter.                  ...        0 min,  2.425 sec
     gradient                   ...        0 min,  0.447 sec
 * total energy  :  -343.5362616 Eh     change       -0.5474816E-03 Eh
   gradient norm :     0.0223791 Eh/α   predicted    -0.1836322E-02 ( 235.41%)
   displ. norm   :     0.4910382 α      lambda       -0.3505232E-02
   maximum displ.:     0.2826257 α      in ANC's #33, #19, #51, ...

........................................................................
.............................. CYCLE   20 ..............................
........................................................................
   1   -349.6255090 -0.349626E+03  0.235E-02    0.00       0.0  T
   2   -349.3611909  0.264318E+00  0.734E-01    0.01       1.0  T
   3   -349.6215642 -0.260373E+00  0.906E-02    0.01       1.0  T
   4   -349.6133946  0.816963E-02  0.154E-01    0.01       1.0  T
   5   -349.6151859 -0.179135E-02  0.142E-01    0.01       1.0  T
   6   -349.6245091 -0.932313E-02  0.495E-02    0.00       1.0  T
   7   -349.6162030  0.830604E-02  0.136E-01    0.01       1.0  T
   8   -349.6252094 -0.900632E-02  0.345E-02    0.00       1.0  T
   9   -349.6255345 -0.325097E-03  0.225E-02    0.00       1.0  T
  10   -349.6257041 -0.169682E-03  0.131E-02    0.00       1.0  T
  11   -349.6257612 -0.571124E-04  0.806E-03    0.00       1.0  T
  12   -349.6257869 -0.256709E-04  0.419E-03    0.00       1.7  T
  13   -349.6257954 -0.852548E-05  0.124E-03    0.00       5.9  T
  14   -349.6257961 -0.674351E-06  0.519E-04    0.00      14.0  T
  15   -349.6257962 -0.121689E-06  0.167E-04    0.00      43.5  T
  16   -349.6257963 -0.137713E-07  0.305E-05    0.00     238.6  T
     SCC iter.                  ...        0 min,  2.274 sec
     gradient                   ...        0 min,  0.445 sec
 * total energy  :  -343.5381343 Eh     change       -0.1872619E-02 Eh
   gradient norm :     0.0208452 Eh/α   predicted    -0.2175207E-02 (  16.16%)
   displ. norm   :     0.5298476 α      lambda       -0.3060079E-02
   maximum displ.:     0.2808008 α      in ANC's #33, #35, #19, ...
 * RMSD in coord.:     0.5905753 α      energy gain  -0.9592317E+00 Eh

generating ANC from model Hessian ...
Using Lindh-Hessian (1995)
 Shifting diagonal of input Hessian by    1.0034181704939664E-002
 Lowest  eigenvalues of input Hessian
    0.010000    0.010011    0.010022    0.010025    0.010026    0.010029
    0.010033    0.000000    0.000000    0.000000    0.000000    0.000000
    0.000000    0.010042    0.010053    0.010072    0.010075    0.010103
 Highest eigenvalues
    2.645098    2.645277    2.769344    2.769653    2.985822    2.990114


........................................................................
.............................. CYCLE   21 ..............................
........................................................................
   1   -349.6325478 -0.349633E+03  0.232E-02    0.00       0.0  T
   2   -349.3838043  0.248744E+00  0.712E-01    0.02       1.0  T
   3   -349.6259464 -0.242142E+00  0.120E-01    0.00       1.0  T
   4   -349.5749017  0.510447E-01  0.332E-01    0.01       1.0  T
   5   -349.6144694 -0.395677E-01  0.184E-01    0.02       1.0  T
   6   -349.6322741 -0.178047E-01  0.348E-02    0.00       1.0  T
   7   -349.6173154  0.149587E-01  0.172E-01    0.00       1.0  T
   8   -349.6325371 -0.152217E-01  0.215E-02    0.00       1.0  T
   9   -349.6324984  0.387114E-04  0.231E-02    0.00       1.0  T
  10   -349.6326362 -0.137810E-03  0.162E-02    0.00       1.0  T
  11   -349.6327371 -0.100934E-03  0.835E-03    0.00       1.0  T
  12   -349.6327597 -0.225516E-04  0.510E-03    0.00       1.4  T
  13   -349.6327722 -0.125435E-04  0.107E-03    0.00       6.8  T
  14   -349.6327728 -0.585326E-06  0.178E-04    0.00      40.8  T
  15   -349.6327728 -0.793631E-08  0.134E-04    0.00      54.2  T
     SCC iter.                  ...        0 min,  2.051 sec
     gradient                   ...        0 min,  0.433 sec
 * total energy  :  -343.5389625 Eh     change       -0.8282512E-03 Eh
   gradient norm :     0.0205906 Eh/α   predicted     0.0000000E+00 (-100.00%)
   displ. norm   :     0.2120678 α      lambda       -0.1223984E-02
   maximum displ.:     0.1336549 α      in ANC's #34, #33, #18, ...

........................................................................
.............................. CYCLE   22 ..............................
........................................................................
   1   -349.6346903 -0.349635E+03  0.548E-03    0.00       0.0  T
   2   -349.6083436  0.263467E-01  0.230E-01    0.02       1.0  T
   3   -349.6339006 -0.255570E-01  0.418E-02    0.00       1.0  T
   4   -349.6342710 -0.370400E-03  0.290E-02    0.00       1.0  T
   5   -349.6312566  0.301435E-02  0.825E-02    0.00       1.0  T
   6   -349.6342183 -0.296165E-02  0.304E-02    0.00       1.0  T
   7   -349.6341268  0.915295E-04  0.329E-02    0.00       1.0  T
   8   -349.6346393 -0.512586E-03  0.108E-02    0.00       1.0  T
   9   -349.6346732 -0.338501E-04  0.709E-03    0.00       1.0  T
  10   -349.6346970 -0.237645E-04  0.243E-03    0.00       3.0  T
  11   -349.6346987 -0.173818E-05  0.158E-03    0.00       4.6  T
  12   -349.6346991 -0.411346E-06  0.131E-03    0.00       5.6  T
  13   -349.6347000 -0.877059E-06  0.260E-04    0.00      27.9  T
  14   -349.6347000 -0.359266E-07  0.290E-05    0.00     250.6  T
  15   -349.6347000 -0.307693E-09  0.164E-05    0.00     443.9  T
     SCC iter.                  ...        0 min,  2.065 sec
     gradient                   ...        0 min,  0.440 sec
 * total energy  :  -343.5398503 Eh     change       -0.8878039E-03 Eh
   gradient norm :     0.0112505 Eh/α   predicted    -0.6395587E-03 ( -27.96%)
   displ. norm   :     0.5303905 α      lambda       -0.2274702E-02
   maximum displ.:     0.3424899 α      in ANC's #34, #33, #55, ...

........................................................................
.............................. CYCLE   23 ..............................
........................................................................
   1   -349.6333195 -0.349633E+03  0.106E-02    0.00       0.0  T
   2   -349.5761525  0.571670E-01  0.338E-01    0.03       1.0  T
   3   -349.6286855 -0.525330E-01  0.102E-01    0.00       1.0  T
   4   -349.6325403 -0.385475E-02  0.392E-02    0.00       1.0  T
   5   -349.6002196  0.323206E-01  0.253E-01    0.02       1.0  T
   6   -349.6314574 -0.312378E-01  0.602E-02    0.00       1.0  T
   7   -349.6300256  0.143184E-02  0.789E-02    0.01       1.0  T
   8   -349.6330971 -0.307156E-02  0.216E-02    0.00       1.0  T
   9   -349.6329389  0.158197E-03  0.278E-02    0.00       1.0  T
  10   -349.6332371 -0.298142E-03  0.147E-02    0.00       1.0  T
  11   -349.6333271 -0.900196E-04  0.696E-03    0.00       1.0  T
  12   -349.6333503 -0.231729E-04  0.216E-03    0.00       3.4  T
  13   -349.6333527 -0.239063E-05  0.312E-04    0.00      23.3  T
  14   -349.6333527 -0.467105E-07  0.933E-05    0.00      78.0  T
  15   -349.6333527 -0.393516E-08  0.335E-05    0.00     217.3  T
     SCC iter.                  ...        0 min,  2.080 sec
     gradient                   ...        0 min,  0.442 sec
 * total energy  :  -343.5397107 Eh     change        0.1395845E-03 Eh
   gradient norm :     0.0266636 Eh/α   predicted    -0.1457304E-02 (*******%)
   displ. norm   :     0.2505510 α      lambda       -0.2847686E-02
   maximum displ.:     0.1301015 α      in ANC's #34, #55, #32, ...

........................................................................
.............................. CYCLE   24 ..............................
........................................................................
   1   -349.6392813 -0.349639E+03  0.551E-03    0.00       0.0  T
   2   -349.6118424  0.274388E-01  0.234E-01    0.01       1.0  T
   3   -349.6391635 -0.273211E-01  0.196E-02    0.00       1.0  T
   4   -349.6355118  0.365172E-02  0.847E-02    0.00       1.0  T
   5   -349.6387058 -0.319397E-02  0.329E-02    0.00       1.0  T
   6   -349.6375391  0.116669E-02  0.568E-02    0.01       1.0  T
   7   -349.6374216  0.117439E-03  0.594E-02    0.00       1.0  T
   8   -349.6391695 -0.174789E-02  0.153E-02    0.00       1.0  T
   9   -349.6391757 -0.622668E-05  0.150E-02    0.00       1.0  T
  10   -349.6392397 -0.639830E-04  0.991E-03    0.00       1.0  T
  11   -349.6392863 -0.465701E-04  0.333E-03    0.00       2.2  T
  12   -349.6392921 -0.577713E-05  0.555E-04    0.00      13.1  T
  13   -349.6392922 -0.166372E-06  0.521E-05    0.00     139.6  T
  14   -349.6392922  0.422057E-08  0.103E-04    0.00      70.7  T
     SCC iter.                  ...        0 min,  1.988 sec
     gradient                   ...        0 min,  0.457 sec
 * total energy  :  -343.5413343 Eh     change       -0.1623589E-02 Eh
   gradient norm :     0.0127430 Eh/α   predicted    -0.1513226E-02 (  -6.80%)
   displ. norm   :     0.2970853 α      lambda       -0.8454610E-03
   maximum displ.:     0.1791930 α      in ANC's #34, #32, #33, ...

........................................................................
.............................. CYCLE   25 ..............................
........................................................................
   1   -349.6408512 -0.349641E+03  0.996E-03    0.00       0.0  T
   2   -349.5033182  0.137533E+00  0.530E-01    0.00       1.0  T
   3   -349.6408077 -0.137489E+00  0.134E-02    0.00       1.0  T
   4   -349.6111721  0.296356E-01  0.240E-01    0.01       1.0  T
   5   -349.6404187 -0.292466E-01  0.307E-02    0.00       1.0  T
   6   -349.6408326 -0.413901E-03  0.132E-02    0.00       1.0  T
   7   -349.6406774  0.155184E-03  0.208E-02    0.00       1.0  T
   8   -349.6408829 -0.205481E-03  0.609E-03    0.00       1.2  T
   9   -349.6408551  0.277144E-04  0.945E-03    0.00       1.0  T
  10   -349.6408977 -0.425448E-04  0.277E-03    0.00       2.6  T
  11   -349.6409012 -0.353220E-05  0.880E-04    0.00       8.3  T
  12   -349.6409015 -0.303368E-06  0.446E-04    0.00      16.3  T
  13   -349.6409016 -0.791026E-07  0.207E-04    0.00      35.1  T
  14   -349.6409016 -0.170054E-07  0.107E-04    0.00      68.1  T
  15   -349.6409016 -0.602421E-08  0.147E-05    0.00     494.1  T
     SCC iter.                  ...        0 min,  2.201 sec
     gradient                   ...        0 min,  0.453 sec
 * total energy  :  -343.5418040 Eh     change       -0.4696717E-03 Eh
   gradient norm :     0.0097416 Eh/α   predicted    -0.4600425E-03 (  -2.05%)
   displ. norm   :     0.5625004 α      lambda       -0.1545786E-02
   maximum displ.:     0.4375452 α      in ANC's #34, #18, #15, ...

........................................................................
.............................. CYCLE   26 ..............................
........................................................................
   1   -349.6437477 -0.349644E+03  0.246E-02    0.00       0.0  T
   2   -349.3748668  0.268881E+00  0.740E-01    0.01       1.0  T
   3   -349.6374958 -0.262629E+00  0.114E-01    0.01       1.0  T
   4   -349.6331944  0.430145E-02  0.144E-01    0.02       1.0  T
   5   -349.6423347 -0.914034E-02  0.659E-02    0.00       1.0  T
   6   -349.6355590  0.677573E-02  0.129E-01    0.01       1.0  T
   7   -349.6375458 -0.198684E-02  0.113E-01    0.00       1.0  T
   8   -349.6436499 -0.610407E-02  0.287E-02    0.00       1.0  T
   9   -349.6438394 -0.189532E-03  0.211E-02    0.00       1.0  T
  10   -349.6439694 -0.129958E-03  0.135E-02    0.00       1.0  T
  11   -349.6440422 -0.728323E-04  0.699E-03    0.00       1.0  T
  12   -349.6440638 -0.216196E-04  0.281E-03    0.00       2.6  T
  13   -349.6440679 -0.409172E-05  0.527E-04    0.00      13.8  T
  14   -349.6440680 -0.885603E-07  0.335E-04    0.00      21.7  T
  15   -349.6440681 -0.566691E-07  0.479E-05    0.00     151.9  T
  16   -349.6440681 -0.599016E-09  0.372E-05    0.00     195.6  T
     SCC iter.                  ...        0 min,  2.420 sec
     gradient                   ...        0 min,  0.407 sec
 * total energy  :  -343.5425476 Eh     change       -0.7435845E-03 Eh
   gradient norm :     0.0124808 Eh/α   predicted    -0.1017448E-02 (  36.83%)
   displ. norm   :     0.5483474 α      lambda       -0.1707878E-02
   maximum displ.:     0.3187231 α      in ANC's #34, #33, #18, ...

........................................................................
.............................. CYCLE   27 ..............................
........................................................................
   1   -349.6470720 -0.349647E+03  0.245E-02    0.00       0.0  T
   2   -349.3784709  0.268601E+00  0.740E-01    0.00       1.0  T
   3   -349.6426470 -0.264176E+00  0.964E-02    0.00       1.0  T
   4   -349.6160454  0.266017E-01  0.249E-01    0.01       1.0  T
   5   -349.6389706 -0.229252E-01  0.135E-01    0.01       1.0  T
   6   -349.6333604  0.561017E-02  0.166E-01    0.02       1.0  T
   7   -349.6362250 -0.286464E-02  0.149E-01    0.00       1.0  T
   8   -349.6468838 -0.106588E-01  0.317E-02    0.00       1.0  T
   9   -349.6472683 -0.384478E-03  0.156E-02    0.00       1.0  T
  10   -349.6472817 -0.133661E-04  0.147E-02    0.00       1.0  T
  11   -349.6473625 -0.808167E-04  0.810E-03    0.00       1.0  T
  12   -349.6473896 -0.271628E-04  0.391E-03    0.00       1.9  T
  13   -349.6473971 -0.749021E-05  0.119E-03    0.00       6.1  T
  14   -349.6473978 -0.706896E-06  0.236E-04    0.00      30.8  T
  15   -349.6473979 -0.225330E-07  0.103E-04    0.00      70.9  T
  16   -349.6473979 -0.472187E-08  0.335E-05    0.00     216.9  T
     SCC iter.                  ...        0 min,  2.270 sec
     gradient                   ...        0 min,  0.437 sec
 * total energy  :  -343.5431366 Eh     change       -0.5889947E-03 Eh
   gradient norm :     0.0130519 Eh/α   predicted    -0.1110710E-02 (  88.58%)
   displ. norm   :     0.4152931 α      lambda       -0.1573220E-02
   maximum displ.:     0.2684174 α      in ANC's #34, #18, #32, ...

........................................................................
.............................. CYCLE   28 ..............................
........................................................................
   1   -349.6552371 -0.349655E+03  0.178E-02    0.00       0.0  T
   2   -349.4163180  0.238919E+00  0.695E-01    0.02       1.0  T
   3   -349.6500686 -0.233751E+00  0.102E-01    0.01       1.0  T
   4   -349.6460848  0.398384E-02  0.134E-01    0.01       1.0  T
   5   -349.6475585 -0.147369E-02  0.128E-01    0.01       1.0  T
   6   -349.6468169  0.741620E-03  0.129E-01    0.01       1.0  T
   7   -349.6501376 -0.332073E-02  0.102E-01    0.00       1.0  T
   8   -349.6551886 -0.505105E-02  0.210E-02    0.00       1.0  T
   9   -349.6552692 -0.805509E-04  0.164E-02    0.00       1.0  T
  10   -349.6553273 -0.580626E-04  0.128E-02    0.00       1.0  T
  11   -349.6553996 -0.723935E-04  0.516E-03    0.00       1.4  T
  12   -349.6554121 -0.124615E-04  0.191E-03    0.00       3.8  T
  13   -349.6554140 -0.190578E-05  0.290E-04    0.00      25.1  T
  14   -349.6554140  0.141637E-08  0.296E-04    0.00      24.6  T
  15   -349.6554141 -0.409811E-07  0.739E-05    0.00      98.4  T
  16   -349.6554141 -0.257302E-08  0.258E-05    0.00     282.1  T
     SCC iter.                  ...        0 min,  2.285 sec
     gradient                   ...        0 min,  0.456 sec
 * total energy  :  -343.5439589 Eh     change       -0.8223619E-03 Eh
   gradient norm :     0.0085084 Eh/α   predicted    -0.9222794E-03 (  12.15%)
   displ. norm   :     0.5168660 α      lambda       -0.9450464E-03
   maximum displ.:     0.3640702 α      in ANC's #34, #18, #15, ...

........................................................................
.............................. CYCLE   29 ..............................
........................................................................
   1   -349.6601854 -0.349660E+03  0.242E-02    0.00       0.0  T
   2   -349.3852691  0.274916E+00  0.747E-01    0.02       1.0  T
   3   -349.6484695 -0.263200E+00  0.153E-01    0.01       1.0  T
   4   -349.6518763 -0.340684E-02  0.129E-01    0.01       1.0  T
   5   -349.6318942  0.199821E-01  0.238E-01    0.02       1.0  T
   6   -349.6399631 -0.806887E-02  0.200E-01    0.02       1.0  T
   7   -349.6555661 -0.156030E-01  0.984E-02    0.00       1.0  T
   8   -349.6604468 -0.488068E-02  0.114E-02    0.00       1.0  T
   9   -349.6605088 -0.620364E-04  0.344E-03    0.00       2.1  T
  10   -349.6605122 -0.337024E-05  0.233E-03    0.00       3.1  T
  11   -349.6605083  0.391563E-05  0.359E-03    0.00       2.0  T
  12   -349.6605134 -0.512421E-05  0.176E-03    0.00       4.1  T
  13   -349.6605150 -0.159703E-05  0.387E-04    0.00      18.8  T
  14   -349.6605151 -0.800954E-07  0.310E-05    0.00     235.0  T
  15   -349.6605151  0.146264E-08  0.635E-05    0.00     114.6  T
     SCC iter.                  ...        0 min,  2.155 sec
     gradient                   ...        0 min,  0.455 sec
 * total energy  :  -343.5444874 Eh     change       -0.5284716E-03 Eh
   gradient norm :     0.0067546 Eh/α   predicted    -0.5987600E-03 (  13.30%)
   displ. norm   :     0.5930051 α      lambda       -0.1041024E-02
   maximum displ.:     0.3826059 α      in ANC's #34, #32, #33, ...

........................................................................
.............................. CYCLE   30 ..............................
........................................................................
   1   -349.6637436 -0.349664E+03  0.317E-02    0.01       0.0  T
   2   -349.3649179  0.298826E+00  0.781E-01    0.02       1.0  T
   3   -349.6312699 -0.266352E+00  0.254E-01    0.02       1.0  T
   4   -349.6486887 -0.174188E-01  0.173E-01    0.01       1.0  T
   5   -349.6457768  0.291192E-02  0.198E-01    0.02       1.0  T
   6   -349.6091980  0.365787E-01  0.328E-01    0.04       1.0  T
   7   -349.6641085 -0.549104E-01  0.203E-02    0.00       1.0  T
   8   -349.6637054  0.403102E-03  0.347E-02    0.00       1.0  T
   9   -349.6642556 -0.550227E-03  0.114E-02    0.00       1.0  T
  10   -349.6642707 -0.150717E-04  0.975E-03    0.00       1.0  T
  11   -349.6643129 -0.422630E-04  0.404E-03    0.00       1.8  T
  12   -349.6643214 -0.840656E-05  0.832E-04    0.00       8.7  T
  13   -349.6643215 -0.138001E-06  0.682E-04    0.00      10.7  T
  14   -349.6643217 -0.226174E-06  0.120E-04    0.00      60.8  T
  15   -349.6643217  0.352105E-07  0.293E-04    0.00      24.9  T
  16   -349.6643217 -0.404985E-07  0.729E-05    0.00      99.8  T
     SCC iter.                  ...        0 min,  2.268 sec
     gradient                   ...        0 min,  0.448 sec
 * total energy  :  -343.5445749 Eh     change       -0.8745337E-04 Eh
   gradient norm :     0.0102987 Eh/α   predicted    -0.7035559E-03 ( 704.49%)
   displ. norm   :     0.3339749 α      lambda       -0.1164824E-02
   maximum displ.:     0.1857696 α      in ANC's #34, #18, #15, ...

........................................................................
.............................. CYCLE   31 ..............................
........................................................................
   1   -349.6695947 -0.349670E+03  0.185E-02    0.00       0.0  T
   2   -349.4270847  0.242510E+00  0.700E-01    0.01       1.0  T
   3   -349.6661717 -0.239087E+00  0.841E-02    0.00       1.0  T
   4   -349.6552382  0.109335E-01  0.167E-01    0.01       1.0  T
   5   -349.6651452 -0.990693E-02  0.941E-02    0.01       1.0  T
   6   -349.6675342 -0.238901E-02  0.670E-02    0.01       1.0  T
   7   -349.6671095  0.424725E-03  0.717E-02    0.01       1.0  T
   8   -349.6695362 -0.242674E-02  0.215E-02    0.00       1.0  T
   9   -349.6695084  0.278170E-04  0.229E-02    0.00       1.0  T
  10   -349.6697281 -0.219761E-03  0.105E-02    0.00       1.0  T
  11   -349.6697809 -0.527919E-04  0.274E-03    0.00       2.7  T
  12   -349.6697833 -0.240250E-05  0.174E-03    0.00       4.2  T
  13   -349.6697847 -0.140602E-05  0.545E-04    0.00      13.4  T
  14   -349.6697849 -0.139753E-06  0.140E-04    0.00      51.8  T
  15   -349.6697849 -0.690085E-08  0.761E-05    0.00      95.6  T
     SCC iter.                  ...        0 min,  2.124 sec
     gradient                   ...        0 min,  0.445 sec
 * total energy  :  -343.5452635 Eh     change       -0.6886481E-03 Eh
   gradient norm :     0.0059650 Eh/α   predicted    -0.6473755E-03 (  -5.99%)
   displ. norm   :     0.4569595 α      lambda       -0.4448916E-03
   maximum displ.:     0.2809034 α      in ANC's #34, #18, #15, ...

........................................................................
.............................. CYCLE   32 ..............................
........................................................................
   1   -349.6743643 -0.349674E+03  0.260E-02    0.01       0.0  T
   2   -349.3936026  0.280762E+00  0.754E-01    0.02       1.0  T
   3   -349.6589332 -0.265331E+00  0.176E-01    0.01       1.0  T
   4   -349.6631854 -0.425212E-02  0.150E-01    0.01       1.0  T
   5   -349.6726734 -0.948802E-02  0.716E-02    0.01       1.0  T
   6   -349.6487826  0.238908E-01  0.226E-01    0.03       1.0  T
   7   -349.6744054 -0.256227E-01  0.269E-02    0.00       1.0  T
   8   -349.6741029  0.302508E-03  0.358E-02    0.00       1.0  T
   9   -349.6747420 -0.639168E-03  0.542E-03    0.00       1.3  T
  10   -349.6747391  0.295145E-05  0.583E-03    0.00       1.2  T
  11   -349.6747516 -0.125424E-04  0.333E-03    0.00       2.2  T
  12   -349.6747571 -0.551420E-05  0.783E-04    0.00       9.3  T
  13   -349.6747574 -0.283439E-06  0.290E-04    0.00      25.1  T
  14   -349.6747574 -0.221801E-07  0.202E-04    0.00      36.0  T
  15   -349.6747575 -0.186782E-07  0.624E-05    0.00     116.6  T
  16   -349.6747575 -0.285581E-09  0.579E-05    0.00     125.6  T
     SCC iter.                  ...        0 min,  2.169 sec
     gradient                   ...        0 min,  0.437 sec
 * total energy  :  -343.5455431 Eh     change       -0.2795960E-03 Eh
   gradient norm :     0.0056057 Eh/α   predicted    -0.2688996E-03 (  -3.83%)
   displ. norm   :     0.5431752 α      lambda       -0.4356491E-03
   maximum displ.:     0.3069093 α      in ANC's #34, #18, #32, ...

........................................................................
.............................. CYCLE   33 ..............................
........................................................................
   1   -349.6813261 -0.349681E+03  0.319E-02    0.01       0.0  T
   2   -349.3842812  0.297045E+00  0.777E-01    0.02       1.0  T
   3   -349.6488774 -0.264596E+00  0.254E-01    0.02       1.0  T
   4   -349.6620553 -0.131779E-01  0.197E-01    0.01       1.0  T
   5   -349.6771029 -0.150475E-01  0.961E-02    0.00       1.0  T
   6   -349.6370801  0.400228E-01  0.297E-01    0.04       1.0  T
   7   -349.6818903 -0.448102E-01  0.765E-03    0.00       1.0  T
   8   -349.6770851  0.480517E-02  0.975E-02    0.00       1.0  T
   9   -349.6817083 -0.462317E-02  0.204E-02    0.01       1.0  T
  10   -349.6818304 -0.122116E-03  0.130E-02    0.00       1.0  T
  11   -349.6818968 -0.663820E-04  0.686E-03    0.00       1.1  T
  12   -349.6819186 -0.217540E-04  0.234E-03    0.00       3.1  T
  13   -349.6819213 -0.271714E-05  0.657E-04    0.00      11.1  T
  14   -349.6819215 -0.195675E-06  0.250E-04    0.00      29.1  T
  15   -349.6819215 -0.253469E-07  0.117E-04    0.00      62.4  T
  16   -349.6819215  0.287349E-08  0.142E-04    0.00      51.2  T
     SCC iter.                  ...        0 min,  2.210 sec
     gradient                   ...        0 min,  0.445 sec
 * total energy  :  -343.5458728 Eh     change       -0.3296746E-03 Eh
   gradient norm :     0.0066210 Eh/α   predicted    -0.2820938E-03 ( -14.43%)
   displ. norm   :     0.5429135 α      lambda       -0.3945991E-03
   maximum displ.:     0.2622374 α      in ANC's #34, #18, #15, ...

........................................................................
.............................. CYCLE   34 ..............................
........................................................................
   1   -349.6861418 -0.349686E+03  0.302E-02    0.01       0.0  T
   2   -349.3904472  0.295695E+00  0.772E-01    0.03       1.0  T
   3   -349.6496122 -0.259165E+00  0.270E-01    0.02       1.0  T
   4   -349.6707063 -0.210941E-01  0.178E-01    0.01       1.0  T
   5   -349.6816934 -0.109871E-01  0.978E-02    0.00       1.0  T
   6   -349.6575833  0.241102E-01  0.240E-01    0.03       1.0  T
   7   -349.6864290 -0.288457E-01  0.202E-02    0.01       1.0  T
   8   -349.6817765  0.465243E-02  0.982E-02    0.00       1.0  T
   9   -349.6864822 -0.470564E-02  0.192E-02    0.01       1.0  T
  10   -349.6866191 -0.136939E-03  0.970E-03    0.00       1.0  T
  11   -349.6866568 -0.376672E-04  0.497E-03    0.00       1.5  T
  12   -349.6866689 -0.121723E-04  0.112E-03    0.00       6.5  T
  13   -349.6866694 -0.480300E-06  0.603E-04    0.00      12.1  T
  14   -349.6866696 -0.135904E-06  0.333E-04    0.00      21.8  T
  15   -349.6866696 -0.402828E-07  0.177E-04    0.00      41.0  T
  16   -349.6866696 -0.549397E-08  0.144E-04    0.00      50.7  T
     SCC iter.                  ...        0 min,  2.224 sec
     gradient                   ...        0 min,  0.446 sec
 * total energy  :  -343.5462038 Eh     change       -0.3310670E-03 Eh
   gradient norm :     0.0057655 Eh/α   predicted    -0.2554608E-03 ( -22.84%)
   displ. norm   :     0.5841082 α      lambda       -0.4615938E-03
   maximum displ.:     0.2304845 α      in ANC's #18, #15, #34, ...

........................................................................
.............................. CYCLE   35 ..............................
........................................................................
   1   -349.6882922 -0.349688E+03  0.310E-02    0.01       0.0  T
   2   -349.3838792  0.304413E+00  0.780E-01    0.04       1.0  T
   3   -349.6258844 -0.242005E+00  0.352E-01    0.03       1.0  T
   4   -349.6710665 -0.451821E-01  0.189E-01    0.02       1.0  T
   5   -349.6830208 -0.119543E-01  0.106E-01    0.00       1.0  T
[...]
   136   6 C    3.959 --   137 C    1.628   135 C    1.192   174 H    0.973
   137   6 C    3.960 --   136 C    1.628   138 C    1.193   175 H    0.974
   138   6 C    3.904 --   140 C    1.268   139 N    1.222   137 C    1.193
   139   7 N    3.344 --   138 C    1.222   135 C    1.220   133 Co   0.624
   140   6 C    3.929 --   149 C    1.278   138 C    1.268   141 C    1.160
   141   6 C    3.957 --   142 C    2.623   140 C    1.160
   142   6 C    3.930 --   141 C    2.623   143 C    1.141
   143   6 C    3.987 --   144 C    1.351   148 C    1.351   142 C    1.141
   144   6 C    3.973 --   145 C    1.456   143 C    1.351   176 H    0.974
                           147 C    0.104
   145   6 C    3.972 --   144 C    1.456   146 N    1.408   177 H    0.972
                           148 C    0.104
   146   7 N    2.994 --   145 C    1.408   147 C    1.408
   147   6 C    3.972 --   148 C    1.456   146 N    1.408   178 H    0.972
                           144 C    0.104
   148   6 C    3.973 --   147 C    1.456   143 C    1.351   179 H    0.974
                           145 C    0.104
   149   6 C    3.904 --   140 C    1.278   152 N    1.213   150 C    1.191
   150   6 C    3.959 --   151 C    1.629   149 C    1.191   180 H    0.974
   151   6 C    3.960 --   150 C    1.629   153 C    1.194   181 H    0.973
   152   7 N    3.343 --   153 C    1.228   149 C    1.213   133 Co   0.626
   153   6 C    3.895 --   154 C    1.255   152 N    1.228   151 C    1.194
   154   6 C    3.927 --   155 C    1.261   153 C    1.255   125 C    1.192
   155   6 C    3.895 --   154 C    1.261   159 N    1.220   156 C    1.193
   156   6 C    3.959 --   157 C    1.628   155 C    1.193   182 H    0.973
   157   6 C    3.960 --   156 C    1.628   158 C    1.193   183 H    0.974
   158   6 C    3.904 --   160 C    1.268   159 N    1.222   157 C    1.193
   159   7 N    3.344 --   158 C    1.222   155 C    1.220   133 Co   0.624
   160   6 C    3.929 --   169 C    1.278   158 C    1.268   161 C    1.160
   161   6 C    3.957 --   162 C    2.623   160 C    1.160
   162   6 C    3.930 --   161 C    2.623   163 C    1.141
   163   6 C    3.987 --   164 C    1.351   168 C    1.351   162 C    1.141
   164   6 C    3.973 --   165 C    1.456   163 C    1.351   184 H    0.974
                           167 C    0.104
   165   6 C    3.972 --   164 C    1.456   166 N    1.408   185 H    0.972
                           168 C    0.104
   166   7 N    2.994 --   165 C    1.408   167 C    1.408
   167   6 C    3.972 --   168 C    1.456   166 N    1.408   186 H    0.972
                           164 C    0.104
   168   6 C    3.973 --   167 C    1.456   163 C    1.351   187 H    0.974
                           165 C    0.104
   169   6 C    3.904 --   160 C    1.278   173 N    1.213   170 C    1.191
   170   6 C    3.959 --   171 C    1.629   169 C    1.191   188 H    0.974
   171   6 C    3.960 --   170 C    1.629   172 C    1.194   189 H    0.973
   172   6 C    3.895 --   134 C    1.254   173 N    1.229   171 C    1.194
   173   7 N    3.343 --   172 C    1.229   169 C    1.213   133 Co   0.626
   174   1 H    1.001 --   136 C    0.973
   175   1 H    1.002 --   137 C    0.974
   176   1 H    1.002 --   144 C    0.974
   177   1 H    1.013 --   145 C    0.972
   178   1 H    1.013 --   147 C    0.972
   179   1 H    1.002 --   148 C    0.974
   180   1 H    1.002 --   150 C    0.974
   181   1 H    1.001 --   151 C    0.973
   182   1 H    1.001 --   156 C    0.973
   183   1 H    1.002 --   157 C    0.974
   184   1 H    1.002 --   164 C    0.974
   185   1 H    1.013 --   165 C    0.972
   186   1 H    1.013 --   167 C    0.972
   187   1 H    1.002 --   168 C    0.974
   188   1 H    1.002 --   170 C    0.974
   189   1 H    1.001 --   171 C    0.973
 ---------------------------------------------------------------------------

Topologies differ in total number of bonds
Writing topology from bond orders to xtbtopo.mol

 dipole moment from electron density (au)
     X       Y       Z   
  -0.0460   0.1963   0.2868  total (Debye):    0.891

           -------------------------------------------------
          |                Geometry Summary                 |
           -------------------------------------------------

      molecular mass/u    :     1896.5841144
   center of mass at/Å    :       45.7792645      -0.3034074      -0.1991092
  moments of inertia/u·Å² :        0.4752954E+05   0.4297076E+06   0.4431691E+06
rotational constants/cm⁻¹ :        0.3546770E-03   0.3923047E-04   0.3803883E-04

 * 184 selected distances

     #   Z          #   Z                                           value/Å
     2   6 C        3   6 C                                       1.3780537
     3   6 C        4   6 C                                       1.4311511
     4   6 C        5   6 C                                       1.3543480
     5   6 C        6   6 C                                       1.4310085
     3   6 C        7   7 N                                       1.3739045
     6   6 C        7   7 N                                       1.3669109
     6   6 C        8   6 C                                       1.3943392
     9   6 C       10   6 C                                       1.2132020
    11   6 C       12   6 C                                       1.3997989
    12   6 C       13   6 C                                       1.3834819
    13   6 C       14   7 N                                       1.3306112
    14   7 N       15   6 C                                       1.3305779
    11   6 C       16   6 C                                       1.3996188
    15   6 C       16   6 C                                       1.3835697
     8   6 C       17   6 C                                       1.3933925
    17   6 C       18   6 C                                       1.4288807
    18   6 C       19   6 C                                       1.3552783
    17   6 C       20   7 N                                       1.3710796
    19   6 C       21   6 C                                       1.4286402
    20   7 N       21   6 C                                       1.3694719
    21   6 C       22   6 C                                       1.3958048
    22   6 C       23   6 C                                       1.3964312
    23   6 C       24   6 C                                       1.4283947
    24   6 C       25   6 C                                       1.3555031
    25   6 C       26   6 C                                       1.4289186
    23   6 C       27   7 N                                       1.3688692
    26   6 C       27   7 N                                       1.3715534
    26   6 C       28   6 C                                       1.3931739
    29   6 C       30   6 C                                       1.2132244
    31   6 C       32   6 C                                       1.3996512
    32   6 C       33   6 C                                       1.3835788
    33   6 C       34   7 N                                       1.3305814
    34   7 N       35   6 C                                       1.3305992
    31   6 C       36   6 C                                       1.3998133
    35   6 C       36   6 C                                       1.3834945
    28   6 C       37   6 C                                       1.3947003
    37   6 C       38   6 C                                       1.4310107
    38   6 C       39   6 C                                       1.3541549
     2   6 C       40   6 C                                       1.3774598
    39   6 C       40   6 C                                       1.4314063 (max)
    37   6 C       41   7 N                                       1.3664355
    40   6 C       41   7 N                                       1.3748126
     2   6 C       42   1 H                                       1.0836937
     4   6 C       43   1 H                                       1.0783619
     5   6 C       44   1 H                                       1.0782558
    12   6 C       45   1 H                                       1.0833203
    13   6 C       46   1 H                                       1.0862163
    15   6 C       47   1 H                                       1.0862112
    16   6 C       48   1 H                                       1.0832942
    18   6 C       49   1 H                                       1.0780964
    19   6 C       50   1 H                                       1.0780414
    24   6 C       51   1 H                                       1.0780656
    25   6 C       52   1 H                                       1.0781210
    32   6 C       53   1 H                                       1.0832876
    33   6 C       54   1 H                                       1.0862131
    35   6 C       55   1 H                                       1.0862224
    36   6 C       56   1 H                                       1.0833218
    38   6 C       57   1 H                                       1.0782535
    39   6 C       58   1 H                                       1.0783503
    60   6 C       61   6 C                                       1.3776875
    61   6 C       62   6 C                                       1.4312409
    62   6 C       63   6 C                                       1.3542282
    63   6 C       64   6 C                                       1.4309369
    61   6 C       65   7 N                                       1.3743794
    64   6 C       65   7 N                                       1.3664987
    64   6 C       66   6 C                                       1.3945213
    67   6 C       68   6 C                                       1.2132712
    69   6 C       70   6 C                                       1.3996610
    70   6 C       71   6 C                                       1.3835676
    71   6 C       72   7 N                                       1.3305886
    72   7 N       73   6 C                                       1.3305985
    69   6 C       74   6 C                                       1.3997752
    73   6 C       74   6 C                                       1.3834984
    66   6 C       75   6 C                                       1.3929974
    75   6 C       76   6 C                                       1.4289161
    76   6 C       77   6 C                                       1.3552403
    75   6 C       78   7 N                                       1.3715799
    77   6 C       79   6 C                                       1.4285801
    78   7 N       79   6 C                                       1.3693104
    79   6 C       80   6 C                                       1.3960898
    80   6 C       81   6 C                                       1.3958313
    81   6 C       82   6 C                                       1.4284477
    82   6 C       83   6 C                                       1.3553663
    83   6 C       84   6 C                                       1.4288511
    81   6 C       85   7 N                                       1.3693012
    84   6 C       85   7 N                                       1.3711140
    84   6 C       86   6 C                                       1.3933228
    87   6 C       88   6 C                                       1.2132626
    89   6 C       90   6 C                                       1.3997196
    90   6 C       91   6 C                                       1.3835103
    91   6 C       92   7 N                                       1.3306002
    92   7 N       93   6 C                                       1.3305918
    89   6 C       94   6 C                                       1.3996843
    93   6 C       94   6 C                                       1.3835345
    86   6 C       95   6 C                                       1.3941806
    95   6 C       96   6 C                                       1.4310751
    96   6 C       97   6 C                                       1.3541013
    60   6 C       98   6 C                                       1.3775634
    97   6 C       98   6 C                                       1.4312772
    95   6 C       99   7 N                                       1.3668623
    98   6 C       99   7 N                                       1.3745067
    60   6 C      100   1 H                                       1.0836999
    62   6 C      101   1 H                                       1.0783534
    63   6 C      102   1 H                                       1.0782511
    70   6 C      103   1 H                                       1.0832944
    71   6 C      104   1 H                                       1.0862144
    73   6 C      105   1 H                                       1.0862205
    74   6 C      106   1 H                                       1.0833204
    76   6 C      107   1 H                                       1.0781056
    77   6 C      108   1 H                                       1.0780369
    82   6 C      109   1 H                                       1.0780592
    83   6 C      110   1 H                                       1.0780983
    90   6 C      111   1 H                                       1.0833088
    91   6 C      112   1 H                                       1.0862125
    93   6 C      113   1 H                                       1.0862144
    94   6 C      114   1 H                                       1.0833084
    96   6 C      115   1 H                                       1.0782469
    97   6 C      116   1 H                                       1.0783577
   117   6 C      118   6 C                                       1.2243694
   119   6 C      120   6 C                                       1.2307494
   121   6 C      122   6 C                                       1.2309458
   123   6 C      124   6 C                                       1.2248887
   125   6 C      126   6 C                                       1.2248340
   127   6 C      128   6 C                                       1.2308688
   129   6 C      130   6 C                                       1.2307159
   131   6 C      132   6 C                                       1.2242801
   134   6 C      135   6 C                                       1.3977703
   135   6 C      136   6 C                                       1.4286525
   136   6 C      137   6 C                                       1.3563208
   137   6 C      138   6 C                                       1.4280547
   135   6 C      139   7 N                                       1.3691049
   138   6 C      139   7 N                                       1.3682446
   138   6 C      140   6 C                                       1.3957763
   141   6 C      142   6 C                                       1.2134768
   143   6 C      144   6 C                                       1.3996844
   144   6 C      145   6 C                                       1.3836087
   145   6 C      146   7 N                                       1.3305017
   146   7 N      147   6 C                                       1.3305151
   143   6 C      148   6 C                                       1.3997294
   147   6 C      148   6 C                                       1.3835770
   140   6 C      149   6 C                                       1.3943174
   149   6 C      150   6 C                                       1.4286798
   150   6 C      151   6 C                                       1.3561272
   149   6 C      152   7 N                                       1.3705773
   151   6 C      153   6 C                                       1.4282454
   152   7 N      153   6 C                                       1.3672425
   153   6 C      154   6 C                                       1.3988430
   154   6 C      155   6 C                                       1.3976961
   155   6 C      156   6 C                                       1.4285797
   156   6 C      157   6 C                                       1.3563342
   157   6 C      158   6 C                                       1.4280656
   155   6 C      159   7 N                                       1.3691765
   158   6 C      159   7 N                                       1.3682619
   158   6 C      160   6 C                                       1.3958505
   161   6 C      162   6 C                                       1.2134746
   163   6 C      164   6 C                                       1.3996804
   164   6 C      165   6 C                                       1.3836116
   165   6 C      166   7 N                                       1.3304984
   166   7 N      167   6 C                                       1.3305155
   163   6 C      168   6 C                                       1.3997377
   167   6 C      168   6 C                                       1.3835729
   160   6 C      169   6 C                                       1.3942684
   169   6 C      170   6 C                                       1.4287097
   170   6 C      171   6 C                                       1.3561453
   134   6 C      172   6 C                                       1.3988529
   171   6 C      172   6 C                                       1.4281899
   169   6 C      173   7 N                                       1.3706263
   172   6 C      173   7 N                                       1.3671645
   136   6 C      174   1 H                                       1.0780177
   137   6 C      175   1 H                                       1.0780947
   144   6 C      176   1 H                                       1.0832684
   145   6 C      177   1 H                                       1.0861607
   147   6 C      178   1 H                                       1.0861539
   148   6 C      179   1 H                                       1.0832747
   150   6 C      180   1 H                                       1.0780701
   151   6 C      181   1 H                                       1.0780085 (min)
   156   6 C      182   1 H                                       1.0780279
   157   6 C      183   1 H                                       1.0780941
   164   6 C      184   1 H                                       1.0832671
   165   6 C      185   1 H                                       1.0861534
   167   6 C      186   1 H                                       1.0861539
   168   6 C      187   1 H                                       1.0832730
   170   6 C      188   1 H                                       1.0780700
   171   6 C      189   1 H                                       1.0780229

 * 3 distinct bonds (by element types)

   Z      Z             #   av. dist./Å        max./Å        min./Å
   1 H    6 C          50     1.0815348     1.0862224     1.0780085
   6 C    6 C          98     1.3723338     1.4314063     1.2132020
   6 C    7 N          36     1.3567713     1.3748126     1.3304984


optimized geometry written to: xtbopt.xyz


           -------------------------------------------------
          | TOTAL ENERGY             -343.549767564651 Eh   |
          | GRADIENT NORM               0.000543322649 Eh/α |
          | HOMO-LUMO GAP               0.004252828647 eV   |
           -------------------------------------------------

------------------------------------------------------------------------
 * finished run on 2022/07/30 at 00:40:23.757     
------------------------------------------------------------------------
 total:
 * wall-time:     0 d,  0 h,  5 min, 21.908 sec
 *  cpu-time:     0 d,  0 h,  5 min, 18.541 sec
 * ratio c/w:     0.990 speedup
 SCF:
 * wall-time:     0 d,  0 h,  0 min, 11.585 sec
 *  cpu-time:     0 d,  0 h,  0 min, 11.521 sec
 * ratio c/w:     0.994 speedup
 ANC optimizer:
 * wall-time:     0 d,  0 h,  5 min, 10.121 sec
 *  cpu-time:     0 d,  0 h,  5 min,  6.824 sec
 * ratio c/w:     0.989 speedup

