      -----------------------------------------------------------      
     |                   =====================                   |     
     |                           x T B                           |     
     |                   =====================                   |     
     |                         S. Grimme                         |     
     |          Mulliken Center for Theoretical Chemistry        |     
     |                    University of Bonn                     |     
      -----------------------------------------------------------      

   * xtb version 6.5.1 (b24c23e) compiled by 'conda@728c89f4b128' on 2022-07-12

   xtb is free software: you can redistribute it and/or modify it under
   the terms of the GNU Lesser General Public License as published by
   the Free Software Foundation, either version 3 of the License, or
   (at your option) any later version.
   
   xtb is distributed in the hope that it will be useful,
   but WITHOUT ANY WARRANTY; without even the implied warranty of
   MERCHANTABILITY or FITNESS FOR A PARTICULAR PURPOSE.  See the
   GNU Lesser General Public License for more details.
   
   Cite this work as:
   * C. Bannwarth, E. Caldeweyher, S. Ehlert, A. Hansen, P. Pracht,
     J. Seibert, S. Spicher, S. Grimme, WIREs Comput. Mol. Sci., 2020, 11,
     e01493. DOI: 10.1002/wcms.1493
   
   for GFN2-xTB:
   * C. Bannwarth, S. Ehlert and S. Grimme., J. Chem. Theory Comput., 2019,
     15, 1652-1671. DOI: 10.1021/acs.jctc.8b01176
   for GFN1-xTB:
   * S. Grimme, C. Bannwarth, P. Shushkov, J. Chem. Theory Comput., 2017,
     13, 1989-2009. DOI: 10.1021/acs.jctc.7b00118
   for GFN0-xTB:
   * P. Pracht, E. Caldeweyher, S. Ehlert, S. Grimme, ChemRxiv, 2019, preprint.
     DOI: 10.26434/chemrxiv.8326202.v1
   for GFN-FF:
   * S. Spicher and S. Grimme, Angew. Chem. Int. Ed., 2020, 59, 15665-15673.
     DOI: 10.1002/anie.202004239
   
   for ALPB and GBSA implicit solvation:
   * S. Ehlert, M. Stahn, S. Spicher, S. Grimme, J. Chem. Theory Comput.,
     2021, 17, 4250-4261. DOI: 10.1021/acs.jctc.1c00471
   
   for DFT-D4:
   * E. Caldeweyher, C. Bannwarth and S. Grimme, J. Chem. Phys., 2017,
     147, 034112. DOI: 10.1063/1.4993215
   * E. Caldeweyher, S. Ehlert, A. Hansen, H. Neugebauer, S. Spicher,
     C. Bannwarth and S. Grimme, J. Chem. Phys., 2019, 150, 154122.
     DOI: 10.1063/1.5090222
   * E. Caldeweyher, J.-M. Mewes, S. Ehlert and S. Grimme, Phys. Chem. Chem. Phys.
     2020, 22, 8499-8512. DOI: 10.1039/D0CP00502A
   
   for sTDA-xTB:
   * S. Grimme and C. Bannwarth, J. Chem. Phys., 2016, 145, 054103.
     DOI: 10.1063/1.4959605
   
   in the mass-spec context:
   * V. Asgeirsson, C. Bauer and S. Grimme, Chem. Sci., 2017, 8, 4879.
     DOI: 10.1039/c7sc00601b
   * J. Koopman and S. Grimme, ACS Omega 2019, 4, 12, 15120-15133.
     DOI: 10.1021/acsomega.9b02011
   
   for metadynamics refer to:
   * S. Grimme, J. Chem. Theory Comput., 2019, 155, 2847-2862
     DOI: 10.1021/acs.jctc.9b00143
   
   for SPH calculations refer to:
   * S. Spicher and S. Grimme, J. Chem. Theory Comput., 2021, 17, 1701-1714
     DOI: 10.1021/acs.jctc.0c01306
   
   with help from (in alphabetical order)
   P. Atkinson, C. Bannwarth, F. Bohle, G. Brandenburg, E. Caldeweyher
   M. Checinski, S. Dohm, S. Ehlert, S. Ehrlich, I. Gerasimov, C. Hölzer
   A. Katbashev, J. Koopman, C. Lavigne, S. Lehtola, F. März, M. Müller,
   F. Musil, H. Neugebauer, J. Pisarek, C. Plett, P. Pracht, F. Pultar,
   J. Seibert, P. Shushkov, S. Spicher, M. Stahn, M. Steiner, T. Strunk,
   J. Stückrath, T. Rose, and J. Unsleber
   
 * started run on 2022/07/30 at 00:40:23.772     

           -------------------------------------------------
          |                Calculation Setup                |
           -------------------------------------------------

          program call               : xtb xtbopt.xyz --gfn 1 --vipea
          hostname                   : cx3-14-28.cx3.hpc.ic.ac.uk
          coordinate file            : xtbopt.xyz
          omp threads                :                     1

   ID    Z sym.   atoms
    1   27 Co     1, 59, 133
    2    6 C      2-6, 8-13, 15-19, 21-26, 28-33, 35-40, 60-64, 66-71, 73-77,
                  79-84, 86-91, 93-98, 117-132, 134-138, 140-145, 147-151,
                  153-158, 160-165, 167-172
    3    7 N      7, 14, 20, 27, 34, 41, 65, 72, 78, 85, 92, 99, 139, 146,
                  152, 159, 166, 173
    4    1 H      42-58, 100-116, 174-189

           -------------------------------------------------
          |                 I P E A - x T B                 |
           -------------------------------------------------

        Reference                      10.1039/c7sc00601b
      * Hamiltonian:
        H0-scaling (s, p, d)           2.150000    2.300000    2.000000
        zeta-weighting                 0.000000
      * Dispersion:
        s8                             2.400000
        a1                             0.630000
        a2                             5.000000
        s9                             0.000000
      * Repulsion:
        kExp                           1.500000
        rExp                           1.000000
      * Coulomb:
        alpha                          1.000000
        third order                    atomic
        anisotropic                    false
      * Halogen bond correction:
        rad-scale                      1.300000
        damping                        0.440000


          ...................................................
          :                      SETUP                      :
          :.................................................:
          :  # basis functions                 810          :
          :  # atomic orbitals                 807          :
          :  # shells                          517          :
          :  # electrons                       639          :
          :  # halogen bonds                     0          :
          :  max. iterations                   250          :
          :  Hamiltonian                  GFN1-xTB          :
          :  restarted?                      false          :
          :  GBSA solvation                  false          :
          :  PC potential                    false          :
          :  electronic temp.          300.0000000     K    :
          :  accuracy                    1.0000000          :
          :  -> integral cutoff          0.2500000E+02      :
          :  -> integral neglect         0.1000000E-07      :
          :  -> SCF convergence          0.1000000E-05 Eh   :
          :  -> wf. convergence          0.2000000E-04 e    :
          :  Broyden damping             0.4000000          :
          ...................................................

 iter      E             dE          RMSdq      gap      omega  full diag
   1   -396.5699712 -0.396570E+03  0.109E+01    0.14       0.0  T
   2   -376.7624869  0.198075E+02  0.102E+01    0.38       1.0  T
   3   -374.9284696  0.183402E+01  0.817E+00    0.18       1.0  T
   4   -325.2652084  0.496633E+02  0.723E+00    0.26       1.0  T
   5    330.6639375  0.655929E+03  0.146E+01    0.26       1.0  T
   6   -394.7764807 -0.725440E+03  0.401E+00    0.00       1.0  T
   7   -397.2351109 -0.245863E+01  0.316E+00    0.02       1.0  T
   8   -397.4941251 -0.259014E+00  0.281E+00    0.08       1.0  T
   9   -397.5618196 -0.676944E-01  0.245E+00    0.43       1.0  T
  10   -397.5386702  0.231493E-01  0.209E+00    0.39       1.0  T
  11   -397.8780913 -0.339421E+00  0.133E+00    0.10       1.0  T
  12   -397.6357062  0.242385E+00  0.164E+00    0.23       1.0  T
  13   -398.1837139 -0.548008E+00  0.131E+00    0.07       1.0  T
  14   -398.2822651 -0.985512E-01  0.787E-01    0.11       1.0  T
  15   -397.3000061  0.982259E+00  0.221E+00    0.22       1.0  T
  16   -398.1883194 -0.888313E+00  0.123E+00    0.07       1.0  T
  17   -398.4110864 -0.222767E+00  0.661E-01    0.09       1.0  T
  18   -398.5226471 -0.111561E+00  0.266E-01    0.02       1.0  T
  19   -398.5214802  0.116692E-02  0.407E-01    0.01       1.0  T
  20   -398.5379405 -0.164603E-01  0.252E-01    0.01       1.0  T
  21   -398.5193598  0.185807E-01  0.366E-01    0.01       1.0  T
  22   -398.5325293 -0.131695E-01  0.316E-01    0.02       1.0  T
  23   -398.5518669 -0.193376E-01  0.975E-02    0.01       1.0  T
  24   -398.5168369  0.350300E-01  0.372E-01    0.03       1.0  T
  25   -398.5534394 -0.366024E-01  0.723E-02    0.00       1.0  T
  26   -398.5508636  0.257571E-02  0.121E-01    0.01       1.0  T
  27   -398.5541278 -0.326416E-02  0.386E-02    0.00       1.0  T
  28   -398.5543471 -0.219282E-03  0.168E-02    0.00       1.0  T
  29   -398.5543100  0.370476E-04  0.173E-02    0.00       1.0  T
  30   -398.5543865 -0.764888E-04  0.516E-03    0.00       1.4  T
  31   -398.5543718  0.147558E-04  0.910E-03    0.00       1.0  T
  32   -398.5543990 -0.272586E-04  0.243E-03    0.00       3.0  T
  33   -398.5544013 -0.231142E-05  0.103E-03    0.00       7.1  T
  34   -398.5544017 -0.307990E-06  0.104E-03    0.00       7.0  T
  35   -398.5544018 -0.182291E-06  0.687E-04    0.00      10.6  T
  36   -398.5544020 -0.168326E-06  0.107E-04    0.00      67.7  T
  37   -398.5544020  0.427548E-08  0.175E-04    0.00      41.5  T

   *** convergence criteria satisfied after 37 iterations ***

         #    Occupation            Energy/Eh            Energy/eV
      -------------------------------------------------------------
         1        2.0000           -1.0309699             -28.0541
       ...           ...                  ...                  ...
       314        1.9998           -0.3679341             -10.0120
       315        1.9998           -0.3679233             -10.0117
       316        1.9998           -0.3677933             -10.0082
       317        1.9998           -0.3677767             -10.0077
       318        1.9997           -0.3676352             -10.0039
       319        1.0115           -0.3589226              -9.7668
       320        0.9985           -0.3588947              -9.7660 (HOMO)
       321        0.9915           -0.3588797              -9.7656 (LUMO)
       322                         -0.3201570              -8.7119
       323                         -0.3186104              -8.6698
       324                         -0.3170659              -8.6278
       325                         -0.3170428              -8.6272
       ...                                ...                  ...
       807                        494.3327894           13451.4799
      -------------------------------------------------------------
                  HL-Gap            0.0000149 Eh            0.0004 eV
             Fermi-level           -0.3588980 Eh           -9.7661 eV

 SCC (total)                   0 d,  0 h,  0 min, 12.973 sec
 SCC setup                      ...        0 min,  0.008 sec (  0.062%)
 Dispersion                     ...        0 min,  0.010 sec (  0.077%)
 classical contributions        ...        0 min,  0.003 sec (  0.025%)
 integral evaluation            ...        0 min,  0.754 sec (  5.809%)
 iterations                     ...        0 min, 10.586 sec ( 81.600%)
 molecular gradient             ...        0 min,  1.549 sec ( 11.941%)
 printout                       ...        0 min,  0.063 sec (  0.486%)

         :::::::::::::::::::::::::::::::::::::::::::::::::::::
         ::                     SUMMARY                     ::
         :::::::::::::::::::::::::::::::::::::::::::::::::::::
         :: total energy            -390.031804715757 Eh    ::
         :: gradient norm              0.083492346275 Eh/a0 ::
         :: HOMO-LUMO gap              0.000405877289 eV    ::
         ::.................................................::
         :: SCC energy              -398.554401999122 Eh    ::
         :: -> electrostatic           0.269957403202 Eh    ::
         :: repulsion energy           8.679079667585 Eh    ::
         :: dispersion energy         -0.156482384219 Eh    ::
         :: halogen bond corr.         0.000000000000 Eh    ::
         :: add. restraining           0.000000000000 Eh    ::
         :: total charge              -0.000000000001 e     ::
         :::::::::::::::::::::::::::::::::::::::::::::::::::::

           ------------------------------------------------- 
          |        vertical delta SCC IP calculation        |
           ------------------------------------------------- 
   1   -398.1389367 -0.398139E+03  0.371E-01    0.00       0.0  T
   2   -397.6970144  0.441922E+00  0.139E+00    0.01       1.0  T
   3   -397.8578018 -0.160787E+00  0.988E-01    0.15       1.0  T
   4   -397.9058931 -0.480913E-01  0.906E-01    0.12       1.0  T
   5   -397.8253043  0.805888E-01  0.103E+00    0.10       1.0  T
   6   -398.0620440 -0.236740E+00  0.584E-01    0.01       1.0  T
   7   -398.1507844 -0.887405E-01  0.223E-01    0.01       1.0  T
   8   -398.0916225  0.591619E-01  0.471E-01    0.05       1.0  T
   9   -398.0689330  0.226895E-01  0.544E-01    0.02       1.0  T
  10   -398.1474242 -0.784912E-01  0.222E-01    0.01       1.0  T
  11   -398.1584717 -0.110475E-01  0.127E-01    0.00       1.0  T
  12   -398.1604994 -0.202775E-02  0.103E-01    0.00       1.0  T
  13   -398.1568171  0.368236E-02  0.146E-01    0.01       1.0  T
  14   -398.1637423 -0.692525E-02  0.153E-02    0.00       1.0  T
  15   -398.1636811  0.612224E-04  0.209E-02    0.00       1.0  T
  16   -398.1637819 -0.100791E-03  0.114E-02    0.00       1.0  T
  17   -398.1637270  0.549248E-04  0.174E-02    0.00       1.0  T
  18   -398.1638101 -0.831117E-04  0.710E-03    0.00       1.0  T
  19   -398.1638257 -0.155830E-04  0.229E-03    0.00       3.2  T
  20   -398.1638271 -0.149198E-05  0.768E-04    0.00       9.5  T
  21   -398.1638267  0.474383E-06  0.141E-03    0.00       5.2  T
  22   -398.1638273 -0.598306E-06  0.472E-04    0.00      15.4  T
  23   -398.1638273 -0.508167E-07  0.257E-04    0.00      28.3  T
  24   -398.1638273 -0.361013E-08  0.239E-04    0.00      30.5  T
  25   -398.1638273 -0.166964E-07  0.780E-05    0.00      93.3  T
  26   -398.1638273 -0.158599E-08  0.343E-05    0.00     211.9  T
     SCC iter.                  ...        0 min,  7.600 sec
     gradient                   ...        0 min,  1.604 sec
------------------------------------------------------------------------
empirical IP shift (eV):    4.8455
delta SCC IP (eV):    5.7826
------------------------------------------------------------------------
           ------------------------------------------------- 
          |        vertical delta SCC EA calculation        |
           ------------------------------------------------- 
   1   -398.7989095 -0.398799E+03  0.702E-01    0.00       0.0  T
   2   -398.7508939  0.480156E-01  0.723E-01    0.01       1.0  T
   3   -398.6822155  0.686784E-01  0.849E-01    0.07       1.0  T
   4   -398.7603032 -0.780877E-01  0.660E-01    0.03       1.0  T
   5   -398.7751666 -0.148634E-01  0.636E-01    0.02       1.0  T
   6   -398.8106505 -0.354839E-01  0.493E-01    0.01       1.0  T
   7   -398.8747616 -0.641111E-01  0.151E-01    0.00       1.0  T
   8   -398.8116432  0.631185E-01  0.467E-01    0.04       1.0  T
   9   -398.8805972 -0.689540E-01  0.761E-02    0.00       1.0  T
  10   -398.8799920  0.605181E-03  0.863E-02    0.00       1.0  T
  11   -398.8813355 -0.134354E-02  0.565E-02    0.00       1.0  T
  12   -398.8822706 -0.935070E-03  0.150E-02    0.00       1.0  T
  13   -398.8817368  0.533790E-03  0.435E-02    0.00       1.0  T
  14   -398.8823037 -0.566902E-03  0.113E-02    0.00       1.0  T
  15   -398.8823289 -0.251735E-04  0.683E-03    0.00       1.1  T
  16   -398.8823421 -0.131798E-04  0.207E-03    0.00       3.5  T
  17   -398.8823434 -0.128362E-05  0.415E-04    0.00      17.5  T
  18   -398.8823434  0.297359E-08  0.417E-04    0.00      17.4  T
  19   -398.8823434 -0.130851E-07  0.363E-04    0.00      20.0  T
  20   -398.8823434 -0.113098E-07  0.308E-04    0.00      23.6  T
  21   -398.8823434 -0.288313E-07  0.706E-05    0.00     103.1  T
  22   -398.8823434 -0.139920E-08  0.192E-05    0.00     379.2  T
     SCC iter.                  ...        0 min,  6.331 sec
     gradient                   ...        0 min,  1.597 sec
------------------------------------------------------------------------
empirical EA shift (eV):    4.8455
delta SCC EA (eV):    4.0782
------------------------------------------------------------------------
           -------------------------------------------------
          |                Property Printout                |
           -------------------------------------------------

    * Orbital Energies and Occupations

         #    Occupation            Energy/Eh            Energy/eV
      -------------------------------------------------------------
         1        2.0000           -0.9803941             -26.6779
       ...           ...                  ...                  ...
       308        2.0000           -0.3362149              -9.1489
       309        2.0000           -0.3320780              -9.0363
       310        2.0000           -0.3081134              -8.3842
       311        2.0000           -0.3080353              -8.3821
       312        2.0000           -0.3079817              -8.3806
       313        2.0000           -0.3079774              -8.3805
       314        2.0000           -0.3079297              -8.3792
       315        2.0000           -0.3079053              -8.3785
       316        1.9999           -0.3070288              -8.3547
       317        1.9999           -0.3070260              -8.3546
       318        1.9999           -0.3063587              -8.3364
       319        1.3455           -0.2978575              -8.1051
       320        1.3381           -0.2978417              -8.1047 (HOMO)
       321        1.3168           -0.2977963              -8.1035 (LUMO)
       322                         -0.2714790              -7.3873
       323                         -0.2712438              -7.3809
       324                         -0.2712103              -7.3800
       325                         -0.2711663              -7.3788
       326                         -0.2657086              -7.2303
       327                         -0.2654723              -7.2239
       328                         -0.2485448              -6.7632
       329                         -0.2402621              -6.5379
       330                         -0.2402555              -6.5377
       331                         -0.2213391              -6.0229
       ...                                ...                  ...
       807                        494.3798999           13452.7618
      -------------------------------------------------------------
                  HL-Gap            0.0000453 Eh            0.0012 eV
             Fermi-level           -0.2971729 Eh           -8.0865 eV

  Mulliken/CM5 charges         n(s)   n(p)   n(d)
     1Co    0.30380  0.70127   0.325  0.975  7.396
     2C    -0.01793 -0.05923   1.087  2.931  0.000
     3C     0.05510  0.11536   1.108  2.836  0.000
     4C    -0.03965 -0.08608   1.085  2.955  0.000
     5C    -0.03949 -0.08505   1.081  2.958  0.000
     6C     0.06060  0.12579   1.116  2.823  0.000
     7N    -0.21488 -0.47376   1.321  3.894  0.000
     8C     0.01678  0.02382   1.080  2.903  0.000
     9C    -0.01832 -0.02016   1.083  2.935  0.000
    10C    -0.03096 -0.03343   1.072  2.959  0.000
    11C     0.02935  0.02424   1.091  2.880  0.000
    12C    -0.01707 -0.06376   1.090  2.928  0.000
    13C     0.05305  0.07763   1.129  2.818  0.000
    14N    -0.26138 -0.45651   1.381  3.880  0.000
    15C     0.05249  0.07708   1.128  2.819  0.000
    16C    -0.01792 -0.06462   1.090  2.928  0.000
    17C     0.05979  0.12434   1.114  2.826  0.000
    18C    -0.03837 -0.08392   1.080  2.958  0.000
    19C    -0.03760 -0.08314   1.083  2.955  0.000
    20N    -0.21348 -0.47161   1.321  3.892  0.000
    21C     0.06068  0.12543   1.114  2.825  0.000
    22C     0.02052  0.02749   1.080  2.899  0.000
    23C     0.06073  0.12559   1.114  2.826  0.000
    24C    -0.03764 -0.08316   1.083  2.955  0.000
    25C    -0.03832 -0.08387   1.081  2.958  0.000
    26C     0.05964  0.12406   1.115  2.826  0.000
    27N    -0.21345 -0.47187   1.321  3.892  0.000
    28C     0.01684  0.02387   1.080  2.903  0.000
    29C    -0.01834 -0.02018   1.083  2.935  0.000
    30C    -0.03085 -0.03331   1.072  2.958  0.000
    31C     0.02936  0.02425   1.091  2.880  0.000
    32C    -0.01709 -0.06379   1.090  2.927  0.000
    33C     0.05312  0.07771   1.129  2.818  0.000
    34N    -0.26127 -0.45640   1.381  3.880  0.000
    35C     0.05251  0.07710   1.128  2.819  0.000
    36C    -0.01781 -0.06451   1.089  2.928  0.000
    37C     0.06085  0.12617   1.116  2.823  0.000
    38C    -0.03937 -0.08493   1.081  2.959  0.000
    39C    -0.03947 -0.08593   1.085  2.954  0.000
    40C     0.05508  0.11519   1.109  2.836  0.000
    41N    -0.21489 -0.47341   1.320  3.894  0.000
    42H     0.02589  0.08484   0.974  0.000  0.000
    43H     0.02812  0.08474   0.972  0.000  0.000
    44H     0.02353  0.08159   0.976  0.000  0.000
    45H     0.03572  0.09297   0.964  0.000  0.000
    46H     0.03168  0.09759   0.968  0.000  0.000
    47H     0.03037  0.09628   0.970  0.000  0.000
    48H     0.03401  0.09125   0.966  0.000  0.000
    49H     0.02443  0.08257   0.976  0.000  0.000
    50H     0.02520  0.08330   0.975  0.000  0.000
    51H     0.02547  0.08356   0.975  0.000  0.000
    52H     0.02452  0.08261   0.975  0.000  0.000
    53H     0.03589  0.09313   0.964  0.000  0.000
    54H     0.03181  0.09772   0.968  0.000  0.000
    55H     0.03041  0.09632   0.970  0.000  0.000
    56H     0.03392  0.09117   0.966  0.000  0.000
    57H     0.02371  0.08181   0.976  0.000  0.000
    58H     0.02818  0.08480   0.972  0.000  0.000
    59Co    0.30339  0.69947   0.325  0.975  7.396
    60C    -0.01793 -0.05924   1.087  2.931  0.000
    61C     0.05508  0.11525   1.109  2.836  0.000
    62C    -0.03957 -0.08602   1.085  2.955  0.000
    63C    -0.03942 -0.08498   1.081  2.959  0.000
    64C     0.06078  0.12607   1.116  2.823  0.000
    65N    -0.21484 -0.47346   1.321  3.894  0.000
    66C     0.01692  0.02395   1.080  2.903  0.000
    67C    -0.01832 -0.02017   1.083  2.935  0.000
    68C    -0.03080 -0.03327   1.072  2.958  0.000
    69C     0.02936  0.02425   1.091  2.880  0.000
    70C    -0.01705 -0.06374   1.090  2.927  0.000
    71C     0.05315  0.07774   1.129  2.818  0.000
    72N    -0.26123 -0.45636   1.381  3.880  0.000
    73C     0.05252  0.07711   1.128  2.819  0.000
    74C    -0.01782 -0.06451   1.089  2.928  0.000
    75C     0.05979  0.12426   1.115  2.826  0.000
    76C    -0.03824 -0.08380   1.081  2.957  0.000
    77C    -0.03753 -0.08307   1.083  2.955  0.000
    78N    -0.21358 -0.47116   1.321  3.892  0.000
    79C     0.06085  0.12565   1.114  2.825  0.000
    80C     0.02050  0.02745   1.080  2.899  0.000
    81C     0.06062  0.12538   1.114  2.825  0.000
    82C    -0.03772 -0.08325   1.083  2.955  0.000
    83C    -0.03845 -0.08400   1.080  2.958  0.000
    84C     0.05972  0.12424   1.114  2.826  0.000
    85N    -0.21346 -0.47168   1.321  3.892  0.000
    86C     0.01679  0.02382   1.080  2.903  0.000
    87C    -0.01831 -0.02016   1.083  2.935  0.000
    88C    -0.03097 -0.03344   1.072  2.959  0.000
    89C     0.02936  0.02425   1.091  2.880  0.000
    90C    -0.01711 -0.06381   1.090  2.928  0.000
    91C     0.05303  0.07762   1.129  2.818  0.000
    92N    -0.26139 -0.45652   1.381  3.880  0.000
    93C     0.05249  0.07708   1.128  2.819  0.000
    94C    -0.01788 -0.06457   1.089  2.928  0.000
    95C     0.06079  0.12605   1.116  2.823  0.000
    96C    -0.03942 -0.08499   1.081  2.959  0.000
    97C    -0.03952 -0.08598   1.085  2.955  0.000
    98C     0.05513  0.11531   1.109  2.836  0.000
    99N    -0.21502 -0.47308   1.320  3.895  0.000
   100H     0.02589  0.08484   0.974  0.000  0.000
   101H     0.02818  0.08480   0.972  0.000  0.000
   102H     0.02369  0.08179   0.976  0.000  0.000
   103H     0.03594  0.09318   0.964  0.000  0.000
   104H     0.03187  0.09779   0.968  0.000  0.000
   105H     0.03041  0.09632   0.970  0.000  0.000
   106H     0.03392  0.09117   0.966  0.000  0.000
   107H     0.02457  0.08268   0.975  0.000  0.000
   108H     0.02556  0.08369   0.974  0.000  0.000
   109H     0.02513  0.08322   0.975  0.000  0.000
   110H     0.02439  0.08252   0.976  0.000  0.000
   111H     0.03571  0.09297   0.964  0.000  0.000
   112H     0.03164  0.09755   0.968  0.000  0.000
   113H     0.03038  0.09630   0.970  0.000  0.000
   114H     0.03401  0.09125   0.966  0.000  0.000
   115H     0.02358  0.08167   0.976  0.000  0.000
   116H     0.02817  0.08479   0.972  0.000  0.000
   117C    -0.01210 -0.01374   1.096  2.916  0.000
   118C    -0.01833 -0.01904   1.064  2.954  0.000
   119C    -0.01162 -0.01171   1.078  2.934  0.000
   120C    -0.01347 -0.01347   1.076  2.938  0.000
   121C    -0.01342 -0.01343   1.076  2.938  0.000
   122C    -0.01143 -0.01152   1.078  2.934  0.000
   123C    -0.01804 -0.01876   1.064  2.954  0.000
   124C    -0.01194 -0.01358   1.096  2.916  0.000
   125C    -0.01196 -0.01360   1.096  2.916  0.000
   126C    -0.01805 -0.01876   1.064  2.954  0.000
   127C    -0.01144 -0.01152   1.078  2.934  0.000
   128C    -0.01343 -0.01343   1.076  2.938  0.000
   129C    -0.01347 -0.01348   1.076  2.938  0.000
   130C    -0.01163 -0.01172   1.078  2.934  0.000
   131C    -0.01833 -0.01905   1.064  2.954  0.000
   132C    -0.01210 -0.01376   1.096  2.916  0.000
   133Co    0.31331  0.71832   0.322  0.964  7.401
   134C     0.02091  0.02780   1.082  2.897  0.000
   135C     0.06064  0.12531   1.115  2.825  0.000
   136C    -0.03750 -0.08300   1.083  2.954  0.000
   137C    -0.03809 -0.08358   1.080  2.958  0.000
   138C     0.06035  0.12536   1.113  2.826  0.000
   139N    -0.21245 -0.47334   1.320  3.892  0.000
   140C     0.01945  0.02643   1.082  2.898  0.000
   141C    -0.01789 -0.01970   1.082  2.936  0.000
   142C    -0.02910 -0.03155   1.074  2.956  0.000
   143C     0.02957  0.02447   1.091  2.880  0.000
   144C    -0.01699 -0.06368   1.090  2.927  0.000
   145C     0.05314  0.07774   1.129  2.818  0.000
   146N    -0.26068 -0.45586   1.381  3.880  0.000
   147C     0.05315  0.07775   1.129  2.818  0.000
   148C    -0.01695 -0.06364   1.090  2.927  0.000
   149C     0.06010  0.12466   1.115  2.825  0.000
   150C    -0.03791 -0.08343   1.081  2.957  0.000
   151C    -0.03761 -0.08309   1.083  2.955  0.000
   152N    -0.21256 -0.47296   1.320  3.893  0.000
   153C     0.06105  0.12614   1.114  2.825  0.000
   154C     0.02090  0.02778   1.082  2.897  0.000
   155C     0.06062  0.12528   1.115  2.825  0.000
   156C    -0.03754 -0.08304   1.083  2.954  0.000
   157C    -0.03810 -0.08360   1.080  2.958  0.000
   158C     0.06032  0.12532   1.113  2.826  0.000
   159N    -0.21247 -0.47329   1.320  3.892  0.000
   160C     0.01943  0.02641   1.082  2.898  0.000
   161C    -0.01790 -0.01971   1.082  2.936  0.000
   162C    -0.02912 -0.03157   1.073  2.956  0.000
   163C     0.02957  0.02447   1.091  2.880  0.000
   164C    -0.01700 -0.06369   1.090  2.927  0.000
   165C     0.05313  0.07773   1.129  2.818  0.000
   166N    -0.26068 -0.45586   1.381  3.880  0.000
   167C     0.05315  0.07775   1.129  2.818  0.000
   168C    -0.01695 -0.06364   1.090  2.927  0.000
   169C     0.06008  0.12463   1.114  2.825  0.000
   170C    -0.03792 -0.08344   1.081  2.957  0.000
   171C    -0.03763 -0.08312   1.083  2.955  0.000
   172C     0.06104  0.12615   1.114  2.825  0.000
   173N    -0.21257 -0.47292   1.320  3.893  0.000
   174H     0.02542  0.08350   0.975  0.000  0.000
   175H     0.02507  0.08314   0.975  0.000  0.000
   176H     0.03566  0.09292   0.964  0.000  0.000
   177H     0.03162  0.09754   0.968  0.000  0.000
   178H     0.03164  0.09756   0.968  0.000  0.000
   179H     0.03560  0.09286   0.964  0.000  0.000
   180H     0.02501  0.08309   0.975  0.000  0.000
   181H     0.02563  0.08375   0.974  0.000  0.000
   182H     0.02539  0.08346   0.975  0.000  0.000
   183H     0.02505  0.08313   0.975  0.000  0.000
   184H     0.03564  0.09289   0.964  0.000  0.000
   185H     0.03160  0.09752   0.968  0.000  0.000
   186H     0.03165  0.09757   0.968  0.000  0.000
   187H     0.03560  0.09286   0.964  0.000  0.000
   188H     0.02499  0.08308   0.975  0.000  0.000
   189H     0.02560  0.08371   0.974  0.000  0.000

Wiberg/Mayer (AO) data.
largest (>0.10) Wiberg bond orders for each atom

 ---------------------------------------------------------------------------
     #   Z sym  total        # sym  WBO       # sym  WBO       # sym  WBO
 ---------------------------------------------------------------------------
     1  27 Co   3.673 --    41 N    0.707     7 N    0.707    20 N    0.704
                            27 N    0.703
     2   6 C    3.844 --    40 C    1.396     3 C    1.393    42 H    0.997
     3   6 C    3.951 --     2 C    1.393     7 N    1.241     4 C    1.200
     4   6 C    3.860 --     5 C    1.638     3 C    1.200    43 H    0.994
     5   6 C    3.847 --     4 C    1.638     6 C    1.212    44 H    1.000
     6   6 C    3.948 --     8 C    1.315     7 N    1.267     5 C    1.212
     7   7 N    3.005 --     6 C    1.267     3 C    1.241     1 Co   0.707
     8   6 C    3.869 --    17 C    1.320     6 C    1.315     9 C    1.180
     9   6 C    3.817 --    10 C    2.669     8 C    1.180
    10   6 C    3.801 --     9 C    2.669    11 C    1.152
    11   6 C    3.933 --    16 C    1.375    12 C    1.375    10 C    1.152
    12   6 C    3.880 --    13 C    1.463    11 C    1.375    45 H    0.988
    13   6 C    4.006 --    14 N    1.469    12 C    1.463    46 H    0.982
    14   7 N    2.923 --    15 C    1.470    13 C    1.469
    15   6 C    4.007 --    14 N    1.470    16 C    1.463    47 H    0.982
    16   6 C    3.881 --    15 C    1.463    11 C    1.375    48 H    0.988
    17   6 C    3.938 --     8 C    1.320    20 N    1.257    18 C    1.218
    18   6 C    3.843 --    19 C    1.627    17 C    1.218    49 H    1.000
    19   6 C    3.851 --    18 C    1.627    21 C    1.219    50 H    0.999
    20   7 N    3.011 --    21 C    1.260    17 C    1.257     1 Co   0.704
    21   6 C    3.928 --    22 C    1.309    20 N    1.260    19 C    1.219
    22   6 C    3.873 --    21 C    1.309    23 C    1.306   117 C    1.207
    23   6 C    3.928 --    22 C    1.306    27 N    1.263    24 C    1.220
    24   6 C    3.851 --    25 C    1.627    23 C    1.220    51 H    0.999
    25   6 C    3.844 --    24 C    1.627    26 C    1.218    52 H    1.000
    26   6 C    3.938 --    28 C    1.321    27 N    1.255    25 C    1.218
    27   7 N    3.012 --    23 C    1.263    26 C    1.255     1 Co   0.703
    28   6 C    3.869 --    26 C    1.321    37 C    1.314    29 C    1.180
    29   6 C    3.817 --    30 C    2.669    28 C    1.180
    30   6 C    3.801 --    29 C    2.669    31 C    1.152
    31   6 C    3.933 --    32 C    1.376    36 C    1.375    30 C    1.152
    32   6 C    3.880 --    33 C    1.462    31 C    1.376    53 H    0.988
    33   6 C    4.006 --    34 N    1.470    32 C    1.462    54 H    0.982
    34   7 N    2.923 --    33 C    1.470    35 C    1.469
    35   6 C    4.007 --    34 N    1.469    36 C    1.463    55 H    0.982
    36   6 C    3.880 --    35 C    1.463    31 C    1.375    56 H    0.988
    37   6 C    3.948 --    28 C    1.314    41 N    1.270    38 C    1.213
    38   6 C    3.846 --    39 C    1.639    37 C    1.213    57 H    1.000
    39   6 C    3.860 --    38 C    1.639    40 C    1.199    58 H    0.994
    40   6 C    3.951 --     2 C    1.396    41 N    1.239    39 C    1.199
    41   7 N    3.005 --    37 C    1.270    40 C    1.239     1 Co   0.707
    42   1 H    1.038 --     2 C    0.997
    43   1 H    1.025 --     4 C    0.994
    44   1 H    1.030 --     5 C    1.000
    45   1 H    1.034 --    12 C    0.988
    46   1 H    1.050 --    13 C    0.982
    47   1 H    1.050 --    15 C    0.982
    48   1 H    1.035 --    16 C    0.988
    49   1 H    1.030 --    18 C    1.000
    50   1 H    1.036 --    19 C    0.999
    51   1 H    1.036 --    24 C    0.999
    52   1 H    1.030 --    25 C    1.000
    53   1 H    1.034 --    32 C    0.988
    54   1 H    1.049 --    33 C    0.982
    55   1 H    1.050 --    35 C    0.982
    56   1 H    1.035 --    36 C    0.988
    57   1 H    1.030 --    38 C    1.000
    58   1 H    1.025 --    39 C    0.994
    59  27 Co   3.669 --    65 N    0.706    99 N    0.706    85 N    0.703
                            78 N    0.703
    60   6 C    3.844 --    98 C    1.395    61 C    1.394   100 H    0.997
    61   6 C    3.951 --    60 C    1.394    65 N    1.240    62 C    1.199
    62   6 C    3.860 --    63 C    1.638    61 C    1.199   101 H    0.994
    63   6 C    3.846 --    62 C    1.638    64 C    1.213   102 H    1.000
    64   6 C    3.948 --    66 C    1.314    65 N    1.269    63 C    1.213
    65   7 N    3.006 --    64 C    1.269    61 C    1.240    59 Co   0.706
    66   6 C    3.869 --    75 C    1.322    64 C    1.314    67 C    1.180
    67   6 C    3.817 --    68 C    2.669    66 C    1.180
    68   6 C    3.801 --    67 C    2.669    69 C    1.152
    69   6 C    3.933 --    70 C    1.376    74 C    1.375    68 C    1.152
    70   6 C    3.880 --    71 C    1.462    69 C    1.376   103 H    0.988
    71   6 C    4.007 --    72 N    1.470    70 C    1.462   104 H    0.982
    72   7 N    2.923 --    71 C    1.470    73 C    1.469
    73   6 C    4.007 --    72 N    1.469    74 C    1.463   105 H    0.982
    74   6 C    3.880 --    73 C    1.463    69 C    1.375   106 H    0.988
    75   6 C    3.938 --    66 C    1.322    78 N    1.255    76 C    1.218
    76   6 C    3.844 --    77 C    1.627    75 C    1.218   107 H    1.000
    77   6 C    3.851 --    76 C    1.627    79 C    1.219   108 H    0.999
    78   7 N    3.011 --    79 C    1.262    75 C    1.255    59 Co   0.703
    79   6 C    3.928 --    80 C    1.308    78 N    1.262    77 C    1.219
    80   6 C    3.873 --    81 C    1.308    79 C    1.308   132 C    1.206
    81   6 C    3.928 --    80 C    1.308    85 N    1.261    82 C    1.220
    82   6 C    3.851 --    83 C    1.627    81 C    1.220   109 H    0.999
    83   6 C    3.843 --    82 C    1.627    84 C    1.218   110 H    1.000
    84   6 C    3.938 --    86 C    1.320    85 N    1.256    83 C    1.218
    85   7 N    3.011 --    81 C    1.261    84 C    1.256    59 Co   0.703
    86   6 C    3.869 --    84 C    1.320    95 C    1.315    87 C    1.180
    87   6 C    3.817 --    88 C    2.669    86 C    1.180
    88   6 C    3.801 --    87 C    2.669    89 C    1.152
    89   6 C    3.933 --    90 C    1.375    94 C    1.375    88 C    1.152
    90   6 C    3.880 --    91 C    1.463    89 C    1.375   111 H    0.988
    91   6 C    4.007 --    92 N    1.469    90 C    1.463   112 H    0.982
    92   7 N    2.923 --    93 C    1.469    91 C    1.469
    93   6 C    4.007 --    92 N    1.469    94 C    1.463   113 H    0.982
    94   6 C    3.881 --    93 C    1.463    89 C    1.375   114 H    0.988
    95   6 C    3.949 --    86 C    1.315    99 N    1.268    96 C    1.212
    96   6 C    3.847 --    97 C    1.639    95 C    1.212   115 H    1.000
    97   6 C    3.860 --    96 C    1.639    98 C    1.199   116 H    0.994
    98   6 C    3.951 --    60 C    1.395    99 N    1.240    97 C    1.199
    99   7 N    3.005 --    95 C    1.268    98 C    1.240    59 Co   0.706
   100   1 H    1.038 --    60 C    0.997
   101   1 H    1.025 --    62 C    0.994
   102   1 H    1.030 --    63 C    1.000
   103   1 H    1.034 --    70 C    0.988
   104   1 H    1.049 --    71 C    0.982
   105   1 H    1.050 --    73 C    0.982
   106   1 H    1.035 --    74 C    0.988
   107   1 H    1.030 --    76 C    1.000
   108   1 H    1.036 --    77 C    0.999
   109   1 H    1.036 --    82 C    0.999
   110   1 H    1.030 --    83 C    1.000
   111   1 H    1.034 --    90 C    0.988
   112   1 H    1.050 --    91 C    0.982
   113   1 H    1.050 --    93 C    0.982
   114   1 H    1.035 --    94 C    0.988
   115   1 H    1.030 --    96 C    1.000
   116   1 H    1.025 --    97 C    0.994
   117   6 C    3.761 --   118 C    2.483    22 C    1.207   120 C    0.172
   118   6 C    3.834 --   117 C    2.483   119 C    1.354
   119   6 C    3.810 --   120 C    2.359   118 C    1.354   122 C    0.166
   120   6 C    3.848 --   119 C    2.359   121 C    1.383   117 C    0.172
   121   6 C    3.846 --   122 C    2.357   120 C    1.383   124 C    0.172
   122   6 C    3.811 --   121 C    2.357   123 C    1.356   119 C    0.166
   123   6 C    3.831 --   124 C    2.478   122 C    1.356
   124   6 C    3.763 --   123 C    2.478   134 C    1.211   121 C    0.172
   125   6 C    3.763 --   126 C    2.479   154 C    1.211   128 C    0.172
   126   6 C    3.831 --   125 C    2.479   127 C    1.355
   127   6 C    3.811 --   128 C    2.358   126 C    1.355   130 C    0.166
   128   6 C    3.846 --   127 C    2.358   129 C    1.383   125 C    0.172
   129   6 C    3.848 --   130 C    2.359   128 C    1.383   132 C    0.172
   130   6 C    3.810 --   129 C    2.359   131 C    1.353   127 C    0.166
   131   6 C    3.834 --   132 C    2.484   130 C    1.353
   132   6 C    3.761 --   131 C    2.484    80 C    1.206   129 C    0.172
   133  27 Co   3.633 --   152 N    0.700   173 N    0.700   159 N    0.700
                           139 N    0.700
   134   6 C    3.867 --   135 C    1.304   172 C    1.300   124 C    1.211
   135   6 C    3.926 --   134 C    1.304   139 N    1.260   136 C    1.220
   136   6 C    3.850 --   137 C    1.624   135 C    1.220   174 H    0.999
   137   6 C    3.843 --   136 C    1.624   138 C    1.221   175 H    0.999
   138   6 C    3.936 --   140 C    1.311   139 N    1.263   137 C    1.221
   139   7 N    3.007 --   138 C    1.263   135 C    1.260   133 Co   0.700
   140   6 C    3.865 --   149 C    1.319   138 C    1.311   141 C    1.182
   141   6 C    3.818 --   142 C    2.668   140 C    1.182
   142   6 C    3.800 --   141 C    2.668   143 C    1.152
   143   6 C    3.933 --   144 C    1.376   148 C    1.375   142 C    1.152
   144   6 C    3.880 --   145 C    1.462   143 C    1.376   176 H    0.988
   145   6 C    4.007 --   146 N    1.470   144 C    1.462   177 H    0.982
   146   7 N    2.923 --   145 C    1.470   147 C    1.470
   147   6 C    4.007 --   146 N    1.470   148 C    1.462   178 H    0.982
   148   6 C    3.880 --   147 C    1.462   143 C    1.375   179 H    0.988
   149   6 C    3.936 --   140 C    1.319   152 N    1.255   150 C    1.219
   150   6 C    3.843 --   151 C    1.624   149 C    1.219   180 H    1.000
   151   6 C    3.850 --   150 C    1.624   153 C    1.222   181 H    0.999
   152   7 N    3.007 --   153 C    1.267   149 C    1.255   133 Co   0.700
   153   6 C    3.926 --   154 C    1.300   152 N    1.267   151 C    1.222
   154   6 C    3.867 --   155 C    1.305   153 C    1.300   125 C    1.211
   155   6 C    3.926 --   154 C    1.305   159 N    1.260   156 C    1.220
   156   6 C    3.850 --   157 C    1.624   155 C    1.220   182 H    0.999
   157   6 C    3.843 --   156 C    1.624   158 C    1.221   183 H    0.999
   158   6 C    3.936 --   160 C    1.311   159 N    1.263   157 C    1.221
   159   7 N    3.007 --   158 C    1.263   155 C    1.260   133 Co   0.700
   160   6 C    3.865 --   169 C    1.319   158 C    1.311   161 C    1.182
   161   6 C    3.818 --   162 C    2.668   160 C    1.182
   162   6 C    3.800 --   161 C    2.668   163 C    1.152
   163   6 C    3.933 --   164 C    1.376   168 C    1.375   162 C    1.152
   164   6 C    3.880 --   165 C    1.462   163 C    1.376   184 H    0.988
   165   6 C    4.007 --   166 N    1.470   164 C    1.462   185 H    0.982
   166   7 N    2.923 --   165 C    1.470   167 C    1.470
   167   6 C    4.007 --   166 N    1.470   168 C    1.462   186 H    0.982
   168   6 C    3.880 --   167 C    1.462   163 C    1.375   187 H    0.988
   169   6 C    3.936 --   160 C    1.319   173 N    1.255   170 C    1.219
   170   6 C    3.843 --   171 C    1.624   169 C    1.219   188 H    1.000
   171   6 C    3.850 --   170 C    1.624   172 C    1.222   189 H    0.999
   172   6 C    3.926 --   134 C    1.300   173 N    1.267   171 C    1.222
   173   7 N    3.007 --   172 C    1.267   169 C    1.255   133 Co   0.700
   174   1 H    1.036 --   136 C    0.999
   175   1 H    1.030 --   137 C    0.999
   176   1 H    1.034 --   144 C    0.988
   177   1 H    1.050 --   145 C    0.982
   178   1 H    1.050 --   147 C    0.982
   179   1 H    1.034 --   148 C    0.988
   180   1 H    1.030 --   150 C    1.000
   181   1 H    1.035 --   151 C    0.999
   182   1 H    1.036 --   156 C    0.999
   183   1 H    1.030 --   157 C    0.999
   184   1 H    1.034 --   164 C    0.988
   185   1 H    1.050 --   165 C    0.982
   186   1 H    1.050 --   167 C    0.982
   187   1 H    1.034 --   168 C    0.988
   188   1 H    1.030 --   170 C    1.000
   189   1 H    1.035 --   171 C    0.999
 ---------------------------------------------------------------------------

Topologies differ in total number of bonds
Writing topology from bond orders to xtbtopo.mol

 dipole moment from electron density (au)
     X       Y       Z   
 -86.5100   0.7461   0.5567  total (Debye):  219.899


           -------------------------------------------------
          | TOTAL ENERGY             -390.359746133148 Eh   |
          | GRADIENT NORM               0.081425539428 Eh/α |
          | HOMO-LUMO GAP               0.001233248007 eV   |
           -------------------------------------------------
########################################################################
[WARNING] Runtime exception occurred
-1- restart_readRestart: Dimension missmatch in restart file.
########################################################################

------------------------------------------------------------------------
 * finished run on 2022/07/30 at 00:40:56.246     
------------------------------------------------------------------------
 total:
 * wall-time:     0 d,  0 h,  0 min, 32.474 sec
 *  cpu-time:     0 d,  0 h,  0 min, 32.303 sec
 * ratio c/w:     0.995 speedup
 SCF:
 * wall-time:     0 d,  0 h,  0 min, 31.773 sec
 *  cpu-time:     0 d,  0 h,  0 min, 31.610 sec
 * ratio c/w:     0.995 speedup

