      -----------------------------------------------------------      
     |                   =====================                   |     
     |                           x T B                           |     
     |                   =====================                   |     
     |                         S. Grimme                         |     
     |          Mulliken Center for Theoretical Chemistry        |     
     |                    University of Bonn                     |     
      -----------------------------------------------------------      

   * xtb version 6.5.1 (b24c23e) compiled by 'conda@728c89f4b128' on 2022-07-12

   xtb is free software: you can redistribute it and/or modify it under
   the terms of the GNU Lesser General Public License as published by
   the Free Software Foundation, either version 3 of the License, or
   (at your option) any later version.
   
   xtb is distributed in the hope that it will be useful,
   but WITHOUT ANY WARRANTY; without even the implied warranty of
   MERCHANTABILITY or FITNESS FOR A PARTICULAR PURPOSE.  See the
   GNU Lesser General Public License for more details.
   
   Cite this work as:
   * C. Bannwarth, E. Caldeweyher, S. Ehlert, A. Hansen, P. Pracht,
     J. Seibert, S. Spicher, S. Grimme, WIREs Comput. Mol. Sci., 2020, 11,
     e01493. DOI: 10.1002/wcms.1493
   
   for GFN2-xTB:
   * C. Bannwarth, S. Ehlert and S. Grimme., J. Chem. Theory Comput., 2019,
     15, 1652-1671. DOI: 10.1021/acs.jctc.8b01176
   for GFN1-xTB:
   * S. Grimme, C. Bannwarth, P. Shushkov, J. Chem. Theory Comput., 2017,
     13, 1989-2009. DOI: 10.1021/acs.jctc.7b00118
   for GFN0-xTB:
   * P. Pracht, E. Caldeweyher, S. Ehlert, S. Grimme, ChemRxiv, 2019, preprint.
     DOI: 10.26434/chemrxiv.8326202.v1
   for GFN-FF:
   * S. Spicher and S. Grimme, Angew. Chem. Int. Ed., 2020, 59, 15665-15673.
     DOI: 10.1002/anie.202004239
   
   for ALPB and GBSA implicit solvation:
   * S. Ehlert, M. Stahn, S. Spicher, S. Grimme, J. Chem. Theory Comput.,
     2021, 17, 4250-4261. DOI: 10.1021/acs.jctc.1c00471
   
   for DFT-D4:
   * E. Caldeweyher, C. Bannwarth and S. Grimme, J. Chem. Phys., 2017,
     147, 034112. DOI: 10.1063/1.4993215
   * E. Caldeweyher, S. Ehlert, A. Hansen, H. Neugebauer, S. Spicher,
     C. Bannwarth and S. Grimme, J. Chem. Phys., 2019, 150, 154122.
     DOI: 10.1063/1.5090222
   * E. Caldeweyher, J.-M. Mewes, S. Ehlert and S. Grimme, Phys. Chem. Chem. Phys.
     2020, 22, 8499-8512. DOI: 10.1039/D0CP00502A
   
   for sTDA-xTB:
   * S. Grimme and C. Bannwarth, J. Chem. Phys., 2016, 145, 054103.
     DOI: 10.1063/1.4959605
   
   in the mass-spec context:
   * V. Asgeirsson, C. Bauer and S. Grimme, Chem. Sci., 2017, 8, 4879.
     DOI: 10.1039/c7sc00601b
   * J. Koopman and S. Grimme, ACS Omega 2019, 4, 12, 15120-15133.
     DOI: 10.1021/acsomega.9b02011
   
   for metadynamics refer to:
   * S. Grimme, J. Chem. Theory Comput., 2019, 155, 2847-2862
     DOI: 10.1021/acs.jctc.9b00143
   
   for SPH calculations refer to:
   * S. Spicher and S. Grimme, J. Chem. Theory Comput., 2021, 17, 1701-1714
     DOI: 10.1021/acs.jctc.0c01306
   
   with help from (in alphabetical order)
   P. Atkinson, C. Bannwarth, F. Bohle, G. Brandenburg, E. Caldeweyher
   M. Checinski, S. Dohm, S. Ehlert, S. Ehrlich, I. Gerasimov, C. Hölzer
   A. Katbashev, J. Koopman, C. Lavigne, S. Lehtola, F. März, M. Müller,
   F. Musil, H. Neugebauer, J. Pisarek, C. Plett, P. Pracht, F. Pultar,
   J. Seibert, P. Shushkov, S. Spicher, M. Stahn, M. Steiner, T. Strunk,
   J. Stückrath, T. Rose, and J. Unsleber
   
 * started run on 2022/07/30 at 09:33:05.034     

           -------------------------------------------------
          |                Calculation Setup                |
           -------------------------------------------------

          program call               : xtb Zn_Ph2Me_C4_2.xyz --gfn 1 --opt -T 48
          hostname                   : cx3-15-15.cx3.hpc.ic.ac.uk
          coordinate file            : Zn_Ph2Me_C4_2.xyz
          omp threads                :                     1

   ID    Z sym.   atoms
    1   30 Zn     1, 69
    2    6 C      2-6, 8-11, 13-31, 34-41, 70-74, 76-79, 81-99, 102-109,
                  137-140
    3    7 N      7, 12, 32, 33, 75, 80, 100, 101
    4    1 H      42-68, 110-136
########################################################################
[WARNING] Please study the warnings concerning your input carefully
-1- prog_main_parseArguments: Unknown option '-T' provided
########################################################################

           -------------------------------------------------
          |                 G F N 1 - x T B                 |
           -------------------------------------------------

        Reference                      10.1021/acs.jctc.7b00118
      * Hamiltonian:
        H0-scaling (s, p, d)           1.850000    2.250000    2.000000
        zeta-weighting                 0.000000
      * Dispersion:
        s8                             2.400000
        a1                             0.630000
        a2                             5.000000
        s9                             0.000000
      * Repulsion:
        kExp                           1.500000
        rExp                           1.000000
      * Coulomb:
        alpha                          2.000000
        third order                    atomic
        anisotropic                    false
      * Halogen bond correction:
        rad-scale                      1.300000
        damping                        0.440000


          ...................................................
          :                      SETUP                      :
          :.................................................:
          :  # basis functions                 452          :
          :  # atomic orbitals                 452          :
          :  # shells                          280          :
          :  # electrons                       402          :
          :  # halogen bonds                     0          :
          :  max. iterations                   250          :
          :  Hamiltonian                  GFN1-xTB          :
          :  restarted?                      false          :
          :  GBSA solvation                  false          :
          :  PC potential                    false          :
          :  electronic temp.          300.0000000     K    :
          :  accuracy                    1.0000000          :
          :  -> integral cutoff          0.2500000E+02      :
          :  -> integral neglect         0.1000000E-07      :
          :  -> SCF convergence          0.1000000E-05 Eh   :
          :  -> wf. convergence          0.2000000E-04 e    :
          :  Broyden damping             0.4000000          :
          ...................................................

 iter      E             dE          RMSdq      gap      omega  full diag
   1   -219.8605180 -0.219861E+03  0.101E+01    0.71       0.0  T
   2   -219.9603860 -0.998680E-01  0.609E+00    0.27       1.0  T
   3   -210.6329424  0.932744E+01  0.365E+00    0.07       1.0  T
   4   -218.9110828 -0.827814E+01  0.147E+00    0.64       1.0  T
   5   -220.1461173 -0.123503E+01  0.535E-01    0.44       1.0  T
   6   -220.1892807 -0.431635E-01  0.285E-01    0.49       1.0  T
   7   -220.1674765  0.218042E-01  0.271E-01    0.41       1.0  T
   8   -220.2069122 -0.394357E-01  0.632E-02    0.44       1.0  T
   9   -220.2085711 -0.165895E-02  0.235E-02    0.42       1.0  T
  10   -220.2087255 -0.154429E-03  0.109E-02    0.43       1.0  T
  11   -220.2087380 -0.124283E-04  0.783E-03    0.43       1.1  T
  12   -220.2087479 -0.998284E-05  0.468E-03    0.43       1.8  T
  13   -220.2087497 -0.170833E-05  0.145E-03    0.43       5.8  T
  14   -220.2087496  0.124746E-07  0.653E-04    0.43      12.9  T
  15   -220.2087499 -0.229716E-06  0.238E-04    0.43      35.5  T
  16   -220.2087499 -0.106082E-07  0.884E-05    0.43      95.6  T
  17   -220.2087499 -0.119641E-08  0.430E-05    0.43     196.7  T

   *** convergence criteria satisfied after 17 iterations ***

         #    Occupation            Energy/Eh            Energy/eV
      -------------------------------------------------------------
         1        2.0000           -0.7581431             -20.6301
       ...           ...                  ...                  ...
       195        2.0000           -0.3983940             -10.8409
       196        2.0000           -0.3969687             -10.8021
       197        2.0000           -0.3921319             -10.6705
       198        2.0000           -0.3910489             -10.6410
       199        2.0000           -0.3863452             -10.5130
       200        2.0000           -0.3639960              -9.9048
       201        1.9995           -0.3616201              -9.8402 (HOMO)
       202        0.0005           -0.3457937              -9.4095 (LUMO)
       203                         -0.3189631              -8.6794
       204                         -0.3159857              -8.5984
       205                         -0.3119083              -8.4875
       206                         -0.2871113              -7.8127
       ...                                ...                  ...
       452                          6.2970575             171.3517
      -------------------------------------------------------------
                  HL-Gap            0.0158264 Eh            0.4307 eV
             Fermi-level           -0.3536694 Eh           -9.6238 eV

 SCC (total)                   0 d,  0 h,  0 min,  1.219 sec
 SCC setup                      ...        0 min,  0.005 sec (  0.422%)
 Dispersion                     ...        0 min,  0.004 sec (  0.307%)
 classical contributions        ...        0 min,  0.002 sec (  0.134%)
 integral evaluation            ...        0 min,  0.120 sec (  9.806%)
 iterations                     ...        0 min,  0.758 sec ( 62.192%)
 molecular gradient             ...        0 min,  0.320 sec ( 26.270%)
 printout                       ...        0 min,  0.011 sec (  0.868%)

         :::::::::::::::::::::::::::::::::::::::::::::::::::::
         ::                     SUMMARY                     ::
         :::::::::::::::::::::::::::::::::::::::::::::::::::::
         :: total energy            -215.787555458017 Eh    ::
         :: gradient norm              3.368088252581 Eh/a0 ::
         :: HOMO-LUMO gap              0.430657437943 eV    ::
         ::.................................................::
         :: SCC energy              -220.208749885915 Eh    ::
         :: -> electrostatic           0.146184118593 Eh    ::
         :: repulsion energy           4.538723569055 Eh    ::
         :: dispersion energy         -0.117529141158 Eh    ::
         :: halogen bond corr.         0.000000000000 Eh    ::
         :: add. restraining           0.000000000000 Eh    ::
         :: total charge              -0.000000000000 e     ::
         :::::::::::::::::::::::::::::::::::::::::::::::::::::

      ----------------------------------------------------------- 
     |                   =====================                   |
     |                        A N C O P T                        |
     |                   =====================                   |
     |               Approximate Normal Coordinate               |
     |                Rational Function Optimizer                |
      ----------------------------------------------------------- 

          ...................................................
          :                      SETUP                      :
          :.................................................:
          :   optimization level            normal          :
          :   max. optcycles                   420          :
          :   ANC micro-cycles                  20          :
          :   degrees of freedom               414          :
          :.................................................:
          :   RF solver                   davidson          :
          :   write xtbopt.log                true          :
          :   linear?                        false          :
          :   energy convergence         0.5000000E-05 Eh   :
          :   grad. convergence          0.1000000E-02 Eh/α :
          :   maximium RF displ.         1.0000000          :
          :   Hlow (freq-cutoff)         0.1000000E-01      :
          :   Hmax (freq-cutoff)         5.0000000          :
          :   S6 in model hess.         20.0000000          :
          ...................................................

generating ANC from model Hessian ...
Using Lindh-Hessian (1995)
 Shifting diagonal of input Hessian by    1.0017991829437235E-002
 Lowest  eigenvalues of input Hessian
    0.010000    0.010008    0.010017    0.000000    0.000000    0.000000
    0.000000    0.000000    0.000000    0.010083    0.010110    0.010153
    0.010246    0.010268    0.010308    0.010312    0.010369    0.010412
 Highest eigenvalues
    2.104049    2.240590    3.072130    3.220656    4.023600    4.283607


........................................................................
.............................. CYCLE    1 ..............................
........................................................................
   1   -220.2087499 -0.220209E+03  0.133E-05    0.43       0.0  T
   2   -220.2087499  0.122668E-09  0.165E-05    0.43     512.5  T
   3   -220.2087499 -0.101949E-09  0.111E-05    0.43     761.3  T
     SCC iter.                  ...        0 min,  0.137 sec
     gradient                   ...        0 min,  0.317 sec
 * total energy  :  -215.7875555 Eh     change       -0.4514789E-09 Eh
   gradient norm :     3.3680827 Eh/α   predicted     0.0000000E+00 (-100.00%)
   displ. norm   :     0.5910601 α      lambda       -0.1949891E+01
   maximum displ.:     0.4727199 α      in ANC's #414, #413, #396, ...

........................................................................
.............................. CYCLE    2 ..............................
........................................................................
   1   -220.2647253 -0.220265E+03  0.423E-01    0.89       0.0  T
   2   -220.2581744  0.655093E-02  0.342E-01    1.08       1.0  T
   3   -220.3009533 -0.427790E-01  0.935E-02    0.93       1.0  T
   4   -220.3046457 -0.369234E-02  0.327E-02    0.98       1.0  T
   5   -220.3047277 -0.819854E-04  0.184E-02    0.97       1.0  T
   6   -220.3047832 -0.555795E-04  0.754E-03    0.97       1.1  T
   7   -220.3048041 -0.208935E-04  0.298E-03    0.97       2.8  T
   8   -220.3048060 -0.188720E-05  0.104E-03    0.97       8.1  T
   9   -220.3048064 -0.424667E-06  0.387E-04    0.97      21.8  T
  10   -220.3048065 -0.352988E-07  0.183E-04    0.97      46.3  T
  11   -220.3048065 -0.136695E-07  0.579E-05    0.97     145.9  T
     SCC iter.                  ...        0 min,  0.488 sec
     gradient                   ...        0 min,  0.336 sec
 * total energy  :  -216.6685359 Eh     change       -0.8809804E+00 Eh
   gradient norm :     0.5529307 Eh/α   predicted    -0.1315545E+01 (  49.33%)
   displ. norm   :     0.4192843 α      lambda       -0.1652847E+00
   maximum displ.:     0.1036446 α      in ANC's #305, #314, #203, ...

........................................................................
.............................. CYCLE    3 ..............................
........................................................................
   1   -220.4132566 -0.220413E+03  0.124E-01    1.10       0.0  T
   2   -220.4155796 -0.232302E-02  0.657E-02    1.11       1.0  T
   3   -220.4163657 -0.786062E-03  0.263E-02    1.10       1.0  T
   4   -220.4163435  0.222239E-04  0.206E-02    1.11       1.0  T
   5   -220.4164085 -0.650267E-04  0.855E-03    1.10       1.0  T
   6   -220.4164467 -0.382165E-04  0.211E-03    1.10       4.0  T
   7   -220.4164484 -0.169360E-05  0.610E-04    1.10      13.9  T
   8   -220.4164485 -0.796988E-07  0.298E-04    1.10      28.3  T
   9   -220.4164485 -0.304786E-07  0.138E-04    1.10      61.3  T
  10   -220.4164485 -0.102376E-07  0.288E-05    1.10     293.7  T
     SCC iter.                  ...        0 min,  0.444 sec
     gradient                   ...        0 min,  0.314 sec
 * total energy  :  -216.7731220 Eh     change       -0.1045862E+00 Eh
   gradient norm :     0.2958032 Eh/α   predicted    -0.9719015E-01 (  -7.07%)
   displ. norm   :     0.5107825 α      lambda       -0.8973344E-01
   maximum displ.:     0.1523621 α      in ANC's #131, #224, #142, ...

........................................................................
.............................. CYCLE    4 ..............................
........................................................................
   1   -220.4653361 -0.220465E+03  0.133E-01    1.12       0.0  T
   2   -220.4678009 -0.246484E-02  0.650E-02    1.12       1.0  T
   3   -220.4686546 -0.853643E-03  0.264E-02    1.12       1.0  T
   4   -220.4686812 -0.266443E-04  0.200E-02    1.12       1.0  T
   5   -220.4687534 -0.721774E-04  0.896E-03    1.12       1.0  T
   6   -220.4687873 -0.338656E-04  0.193E-03    1.12       4.4  T
   7   -220.4687886 -0.132778E-05  0.628E-04    1.12      13.5  T
   8   -220.4687887 -0.598404E-07  0.341E-04    1.12      24.8  T
   9   -220.4687887 -0.388706E-07  0.160E-04    1.12      52.8  T
  10   -220.4687887 -0.170836E-07  0.360E-05    1.12     234.5  T
     SCC iter.                  ...        0 min,  0.444 sec
     gradient                   ...        0 min,  0.317 sec
 * total energy  :  -216.8272983 Eh     change       -0.5417630E-01 Eh
   gradient norm :     0.1252426 Eh/α   predicted    -0.5657251E-01 (   4.42%)
   displ. norm   :     0.4455237 α      lambda       -0.2039947E-01
   maximum displ.:     0.1429977 α      in ANC's #21, #85, #86, ...

........................................................................
.............................. CYCLE    5 ..............................
........................................................................
   1   -220.4705981 -0.220471E+03  0.537E-02    1.16       0.0  T
   2   -220.4708347 -0.236540E-03  0.275E-02    1.16       1.0  T
   3   -220.4710079 -0.173184E-03  0.125E-02    1.16       1.0  T
   4   -220.4710758 -0.679367E-04  0.867E-03    1.16       1.0  T
   5   -220.4710973 -0.215006E-04  0.313E-03    1.16       2.7  T
   6   -220.4710986 -0.135011E-05  0.893E-04    1.16       9.5  T
   7   -220.4710990 -0.324319E-06  0.346E-04    1.16      24.4  T
   8   -220.4710990 -0.511382E-07  0.165E-04    1.16      51.4  T
   9   -220.4710990 -0.114269E-07  0.375E-05    1.16     225.6  T
     SCC iter.                  ...        0 min,  0.399 sec
     gradient                   ...        0 min,  0.312 sec
 * total energy  :  -216.8418022 Eh     change       -0.1450392E-01 Eh
   gradient norm :     0.0662297 Eh/α   predicted    -0.1222442E-01 ( -15.72%)
   displ. norm   :     0.5450440 α      lambda       -0.1100604E-01
   maximum displ.:     0.2480830 α      in ANC's #21, #33, #85, ...

........................................................................
.............................. CYCLE    6 ..............................
........................................................................
   1   -220.4445249 -0.220445E+03  0.271E-02    1.18       0.0  T
   2   -220.4445469 -0.220781E-04  0.174E-02    1.18       1.0  T
   3   -220.4446189 -0.719206E-04  0.816E-03    1.18       1.0  T
   4   -220.4446391 -0.202629E-04  0.582E-03    1.18       1.5  T
   5   -220.4446486 -0.944618E-05  0.185E-03    1.18       4.6  T
   6   -220.4446492 -0.607423E-06  0.484E-04    1.18      17.5  T
   7   -220.4446493 -0.945340E-07  0.197E-04    1.18      43.0  T
   8   -220.4446493 -0.204361E-07  0.712E-05    1.18     118.7  T
     SCC iter.                  ...        0 min,  0.355 sec
     gradient                   ...        0 min,  0.336 sec
 * total energy  :  -216.8499910 Eh     change       -0.8188772E-02 Eh
   gradient norm :     0.0452908 Eh/α   predicted    -0.7137938E-02 ( -12.83%)
   displ. norm   :     0.5964685 α      lambda       -0.6801391E-02
   maximum displ.:     0.3341649 α      in ANC's #21, #33, #44, ...

........................................................................
.............................. CYCLE    7 ..............................
........................................................................
   1   -220.4259345 -0.220426E+03  0.184E-02    1.21       0.0  T
   2   -220.4259577 -0.231992E-04  0.118E-02    1.21       1.0  T
   3   -220.4259865 -0.288308E-04  0.521E-03    1.21       1.6  T
   4   -220.4259886 -0.213485E-05  0.424E-03    1.21       2.0  T
   5   -220.4259948 -0.618681E-05  0.124E-03    1.21       6.8  T
   6   -220.4259950 -0.212038E-06  0.207E-04    1.21      40.8  T
   7   -220.4259950 -0.168222E-07  0.104E-04    1.21      81.6  T
   8   -220.4259951 -0.614551E-08  0.229E-05    1.21     369.6  T
     SCC iter.                  ...        0 min,  0.355 sec
     gradient                   ...        0 min,  0.312 sec
 * total energy  :  -216.8551394 Eh     change       -0.5148360E-02 Eh
   gradient norm :     0.0306782 Eh/α   predicted    -0.4610841E-02 ( -10.44%)
   displ. norm   :     0.6520247 α      lambda       -0.5129626E-02
   maximum displ.:     0.4130896 α      in ANC's #21, #33, #44, ...

........................................................................
.............................. CYCLE    8 ..............................
........................................................................
   1   -220.4110873 -0.220411E+03  0.170E-02    1.23       0.0  T
   2   -220.4111139 -0.265767E-04  0.962E-03    1.23       1.0  T
   3   -220.4111281 -0.141676E-04  0.419E-03    1.23       2.0  T
   4   -220.4111274  0.629463E-06  0.378E-03    1.23       2.2  T
   5   -220.4111319 -0.450971E-05  0.107E-03    1.23       7.9  T
   6   -220.4111324 -0.427648E-06  0.166E-04    1.23      50.9  T
   7   -220.4111324 -0.946707E-08  0.650E-05    1.23     130.1  T
     SCC iter.                  ...        0 min,  0.311 sec
     gradient                   ...        0 min,  0.316 sec
 * total energy  :  -216.8587524 Eh     change       -0.3613034E-02 Eh
   gradient norm :     0.0216617 Eh/α   predicted    -0.3655210E-02 (   1.17%)
   displ. norm   :     0.6309722 α      lambda       -0.3800787E-02
   maximum displ.:     0.4396644 α      in ANC's #21, #33, #22, ...

........................................................................
.............................. CYCLE    9 ..............................
........................................................................
   1   -220.4057408 -0.220406E+03  0.155E-02    1.24       0.0  T
   2   -220.4057641 -0.232686E-04  0.744E-03    1.24       1.1  T
   3   -220.4057757 -0.116756E-04  0.308E-03    1.24       2.7  T
   4   -220.4057784 -0.267265E-05  0.224E-03    1.24       3.8  T
   5   -220.4057797 -0.123530E-05  0.772E-04    1.24      11.0  T
   6   -220.4057798 -0.119685E-06  0.214E-04    1.24      39.6  T
   7   -220.4057798 -0.153750E-07  0.810E-05    1.24     104.3  T
   8   -220.4057798 -0.135282E-08  0.422E-05    1.24     200.2  T
     SCC iter.                  ...        0 min,  0.356 sec
     gradient                   ...        0 min,  0.336 sec
 * total energy  :  -216.8613833 Eh     change       -0.2630913E-02 Eh
   gradient norm :     0.0144897 Eh/α   predicted    -0.2656990E-02 (   0.99%)
   displ. norm   :     0.5330364 α      lambda       -0.2127051E-02
   maximum displ.:     0.3908843 α      in ANC's #21, #33, #19, ...

........................................................................
.............................. CYCLE   10 ..............................
........................................................................
   1   -220.4061733 -0.220406E+03  0.900E-03    1.24       0.0  T
   2   -220.4061788 -0.555335E-05  0.474E-03    1.24       1.8  T
   3   -220.4061833 -0.442693E-05  0.241E-03    1.24       3.5  T
   4   -220.4061853 -0.204863E-05  0.172E-03    1.24       4.9  T
   5   -220.4061860 -0.658592E-06  0.441E-04    1.24      19.1  T
   6   -220.4061860 -0.520569E-07  0.161E-04    1.24      52.5  T
   7   -220.4061860 -0.838619E-08  0.545E-05    1.24     155.0  T
     SCC iter.                  ...        0 min,  0.311 sec
     gradient                   ...        0 min,  0.316 sec
 * total energy  :  -216.8630966 Eh     change       -0.1713251E-02 Eh
   gradient norm :     0.0120857 Eh/α   predicted    -0.1365705E-02 ( -20.29%)
   displ. norm   :     0.5314762 α      lambda       -0.1700351E-02
   maximum displ.:     0.3713600 α      in ANC's #21, #19, #7, ...

........................................................................
.............................. CYCLE   11 ..............................
........................................................................
   1   -220.4069387 -0.220407E+03  0.607E-03    1.23       0.0  T
   2   -220.4069415 -0.274240E-05  0.325E-03    1.23       2.6  T
   3   -220.4069427 -0.126955E-05  0.186E-03    1.23       4.5  T
   4   -220.4069435 -0.799082E-06  0.135E-03    1.23       6.3  T
   5   -220.4069440 -0.443982E-06  0.297E-04    1.23      28.5  T
   6   -220.4069440 -0.354086E-07  0.101E-04    1.23      83.3  T
   7   -220.4069440 -0.314031E-08  0.340E-05    1.23     248.5  T
     SCC iter.                  ...        0 min,  0.311 sec
     gradient                   ...        0 min,  0.316 sec
 * total energy  :  -216.8644779 Eh     change       -0.1381286E-02 Eh
   gradient norm :     0.0116622 Eh/α   predicted    -0.1090328E-02 ( -21.06%)
   displ. norm   :     0.5575612 α      lambda       -0.1306689E-02
   maximum displ.:     0.3637537 α      in ANC's #21, #19, #7, ...

........................................................................
.............................. CYCLE   12 ..............................
........................................................................
   1   -220.4036988 -0.220404E+03  0.526E-03    1.22       0.0  T
   2   -220.4037018 -0.307075E-05  0.227E-03    1.22       3.7  T
   3   -220.4037023 -0.489478E-06  0.123E-03    1.22       6.8  T
   4   -220.4037023 -0.388277E-08  0.753E-04    1.22      11.2  T
   5   -220.4037024 -0.498899E-07  0.354E-04    1.22      23.8  T
   6   -220.4037025 -0.789175E-07  0.675E-05    1.22     125.2  T
   7   -220.4037025 -0.146477E-08  0.233E-05    1.22     362.8  T
     SCC iter.                  ...        0 min,  0.313 sec
     gradient                   ...        0 min,  0.314 sec
 * total energy  :  -216.8655071 Eh     change       -0.1029216E-02 Eh
   gradient norm :     0.0101955 Eh/α   predicted    -0.8564619E-03 ( -16.79%)
   displ. norm   :     0.5449973 α      lambda       -0.8692684E-03
   maximum displ.:     0.3310938 α      in ANC's #21, #19, #7, ...

........................................................................
.............................. CYCLE   13 ..............................
........................................................................
   1   -220.3992894 -0.220399E+03  0.519E-03    1.21       0.0  T
   2   -220.3992919 -0.255413E-05  0.244E-03    1.21       3.5  T
   3   -220.3992927 -0.751981E-06  0.136E-03    1.21       6.2  T
   4   -220.3992930 -0.299326E-06  0.992E-04    1.21       8.5  T
   5   -220.3992932 -0.239926E-06  0.307E-04    1.21      27.5  T
   6   -220.3992933 -0.342732E-07  0.697E-05    1.21     121.3  T
   7   -220.3992933 -0.164286E-08  0.225E-05    1.21     375.2  T
     SCC iter.                  ...        0 min,  0.312 sec
     gradient                   ...        0 min,  0.315 sec
 * total energy  :  -216.8661666 Eh     change       -0.6595208E-03 Eh
   gradient norm :     0.0077226 Eh/α   predicted    -0.5637313E-03 ( -14.52%)
   displ. norm   :     0.4680617 α      lambda       -0.5187920E-03
   maximum displ.:     0.2509378 α      in ANC's #21, #19, #7, ...

........................................................................
.............................. CYCLE   14 ..............................
........................................................................
   1   -220.3963525 -0.220396E+03  0.389E-03    1.21       0.0  T
   2   -220.3963536 -0.105060E-05  0.217E-03    1.20       3.9  T
   3   -220.3963545 -0.934670E-06  0.106E-03    1.21       8.0  T
   4   -220.3963548 -0.269456E-06  0.790E-04    1.21      10.7  T
   5   -220.3963549 -0.150872E-06  0.257E-04    1.21      32.9  T
   6   -220.3963549 -0.188319E-07  0.588E-05    1.21     143.7  T
   7   -220.3963549 -0.120784E-08  0.202E-05    1.21     417.4  T
     SCC iter.                  ...        0 min,  0.310 sec
     gradient                   ...        0 min,  0.317 sec
 * total energy  :  -216.8665615 Eh     change       -0.3949009E-03 Eh
   gradient norm :     0.0057380 Eh/α   predicted    -0.3162284E-03 ( -19.92%)
   displ. norm   :     0.3820127 α      lambda       -0.3616033E-03
   maximum displ.:     0.2013061 α      in ANC's #19, #7, #21, ...

........................................................................
.............................. CYCLE   15 ..............................
........................................................................
   1   -220.3964445 -0.220396E+03  0.260E-03    1.20       0.0  T
   2   -220.3964448 -0.271906E-06  0.161E-03    1.20       5.2  T
   3   -220.3964455 -0.706739E-06  0.697E-04    1.20      12.1  T
   4   -220.3964456 -0.122490E-06  0.475E-04    1.20      17.8  T
   5   -220.3964457 -0.545070E-07  0.199E-04    1.20      42.4  T
   6   -220.3964457 -0.106174E-07  0.337E-05    1.20     251.0  T
     SCC iter.                  ...        0 min,  0.268 sec
     gradient                   ...        0 min,  0.314 sec
 * total energy  :  -216.8668518 Eh     change       -0.2902540E-03 Eh
   gradient norm :     0.0047311 Eh/α   predicted    -0.2071888E-03 ( -28.62%)
   displ. norm   :     0.3795227 α      lambda       -0.3522185E-03
   maximum displ.:     0.2094709 α      in ANC's #19, #7, #18, ...

........................................................................
.............................. CYCLE   16 ..............................
........................................................................
   1   -220.3985828 -0.220399E+03  0.233E-03    1.20       0.0  T
   2   -220.3985829 -0.193624E-06  0.134E-03    1.20       6.3  T
   3   -220.3985834 -0.420698E-06  0.813E-04    1.20      10.4  T
   4   -220.3985835 -0.156049E-06  0.382E-04    1.20      22.1  T
   5   -220.3985836 -0.293038E-07  0.201E-04    1.20      42.0  T
   6   -220.3985836 -0.134318E-07  0.206E-05    1.20     411.0  T
   7   -220.3985836 -0.788702E-10  0.113E-05    1.20     749.8  T
     SCC iter.                  ...        0 min,  0.311 sec
     gradient                   ...        0 min,  0.339 sec
 * total energy  :  -216.8671361 Eh     change       -0.2843849E-03 Eh
   gradient norm :     0.0046168 Eh/α   predicted    -0.2014833E-03 ( -29.15%)
   displ. norm   :     0.4084566 α      lambda       -0.3379992E-03
   maximum displ.:     0.2238238 α      in ANC's #19, #7, #14, ...

........................................................................
.............................. CYCLE   17 ..............................
........................................................................
   1   -220.4018301 -0.220402E+03  0.236E-03    1.19       0.0  T
   2   -220.4018305 -0.366628E-06  0.131E-03    1.19       6.4  T
   3   -220.4018307 -0.250633E-06  0.911E-04    1.19       9.3  T
   4   -220.4018309 -0.188354E-06  0.428E-04    1.19      19.7  T
   5   -220.4018310 -0.484981E-07  0.165E-04    1.19      51.3  T
   6   -220.4018310 -0.661242E-08  0.344E-05    1.19     245.8  T
     SCC iter.                  ...        0 min,  0.269 sec
     gradient                   ...        0 min,  0.316 sec
 * total energy  :  -216.8674079 Eh     change       -0.2718037E-03 Eh
   gradient norm :     0.0054348 Eh/α   predicted    -0.1972005E-03 ( -27.45%)
   displ. norm   :     0.4368715 α      lambda       -0.3124800E-03
   maximum displ.:     0.2332020 α      in ANC's #19, #7, #14, ...

........................................................................
.............................. CYCLE   18 ..............................
........................................................................
   1   -220.4044479 -0.220404E+03  0.205E-03    1.19       0.0  T
   2   -220.4044484 -0.416077E-06  0.120E-03    1.19       7.0  T
   3   -220.4044486 -0.214026E-06  0.710E-04    1.19      11.9  T
   4   -220.4044486 -0.551355E-07  0.448E-04    1.19      18.9  T
   5   -220.4044487 -0.665193E-07  0.142E-04    1.19      59.5  T
   6   -220.4044487 -0.442904E-08  0.314E-05    1.19     269.1  T
     SCC iter.                  ...        0 min,  0.267 sec
     gradient                   ...        0 min,  0.315 sec
 * total energy  :  -216.8676659 Eh     change       -0.2579234E-03 Eh
   gradient norm :     0.0062961 Eh/α   predicted    -0.1860617E-03 ( -27.86%)
   displ. norm   :     0.4790868 α      lambda       -0.3172643E-03
   maximum displ.:     0.2516515 α      in ANC's #7, #19, #14, ...

........................................................................
.............................. CYCLE   19 ..............................
........................................................................
   1   -220.4058776 -0.220406E+03  0.170E-03    1.18       0.0  T
   2   -220.4058779 -0.309316E-06  0.942E-04    1.18       9.0  T
   3   -220.4058780 -0.126018E-06  0.495E-04    1.18      17.1  T
   4   -220.4058780  0.208044E-08  0.354E-04    1.18      23.8  T
   5   -220.4058781 -0.341200E-07  0.135E-04    1.18      62.7  T
   6   -220.4058781 -0.770797E-08  0.275E-05    1.18     306.8  T
     SCC iter.                  ...        0 min,  0.266 sec
     gradient                   ...        0 min,  0.314 sec
 * total energy  :  -216.8679325 Eh     change       -0.2666197E-03 Eh
   gradient norm :     0.0063566 Eh/α   predicted    -0.1950429E-03 ( -26.85%)
   displ. norm   :     0.5217012 α      lambda       -0.3246893E-03
   maximum displ.:     0.2789585 α      in ANC's #7, #19, #14, ...

........................................................................
.............................. CYCLE   20 ..............................
........................................................................
   1   -220.4055139 -0.220406E+03  0.198E-03    1.18       0.0  T
   2   -220.4055142 -0.337615E-06  0.933E-04    1.18       9.1  T
   3   -220.4055144 -0.112654E-06  0.561E-04    1.18      15.1  T
   4   -220.4055144 -0.282095E-07  0.322E-04    1.18      26.3  T
   5   -220.4055144 -0.116759E-07  0.169E-04    1.18      50.1  T
   6   -220.4055144 -0.153266E-07  0.249E-05    1.18     339.7  T
     SCC iter.                  ...        0 min,  0.268 sec
     gradient                   ...        0 min,  0.314 sec
 * total energy  :  -216.8681935 Eh     change       -0.2609717E-03 Eh
   gradient norm :     0.0054064 Eh/α   predicted    -0.2065323E-03 ( -20.86%)
   displ. norm   :     0.4721845 α      lambda       -0.2345389E-03
   maximum displ.:     0.2596324 α      in ANC's #7, #19, #14, ...
 * RMSD in coord.:     0.5721139 α      energy gain  -0.1080638E+01 Eh

generating ANC from model Hessian ...
Using Lindh-Hessian (1995)
 Shifting diagonal of input Hessian by    1.0012040360928162E-002
 Lowest  eigenvalues of input Hessian
    0.010000    0.010010    0.010011    0.000000    0.000000    0.000000
    0.000000    0.000000    0.000000    0.010055    0.010088    0.010116
    0.010196    0.010271    0.010320    0.010321    0.010402    0.010406
 Highest eigenvalues
    2.085895    2.087236    2.123298    2.123519    2.365116    2.888084


........................................................................
.............................. CYCLE   21 ..............................
........................................................................
   1   -220.4040149 -0.220404E+03  0.218E-03    1.17       0.0  T
   2   -220.4040153 -0.357002E-06  0.112E-03    1.17       7.6  T
   3   -220.4040154 -0.155248E-06  0.725E-04    1.17      11.6  T
   4   -220.4040156 -0.137067E-06  0.404E-04    1.17      20.9  T
   5   -220.4040156 -0.327105E-07  0.151E-04    1.17      56.1  T
   6   -220.4040156 -0.829127E-08  0.311E-05    1.17     272.1  T
     SCC iter.                  ...        0 min,  0.268 sec
     gradient                   ...        0 min,  0.316 sec
 * total energy  :  -216.8683680 Eh     change       -0.1745455E-03 Eh
   gradient norm :     0.0037938 Eh/α   predicted     0.0000000E+00 (-100.00%)
   displ. norm   :     0.0552254 α      lambda       -0.4635988E-04
   maximum displ.:     0.0241552 α      in ANC's #8, #14, #24, ...

........................................................................
.............................. CYCLE   22 ..............................
........................................................................
   1   -220.4035608 -0.220404E+03  0.940E-04    1.17       0.0  T
   2   -220.4035609 -0.815613E-07  0.644E-04    1.17      13.1  T
   3   -220.4035609 -0.523069E-07  0.307E-04    1.17      27.5  T
   4   -220.4035609  0.901849E-08  0.271E-04    1.17      31.2  T
   5   -220.4035609 -0.216348E-07  0.623E-05    1.17     135.7  T
   6   -220.4035609 -0.898154E-09  0.120E-05    1.17     705.8  T
     SCC iter.                  ...        0 min,  0.268 sec
     gradient                   ...        0 min,  0.313 sec
 * total energy  :  -216.8684039 Eh     change       -0.3587296E-04 Eh
   gradient norm :     0.0023122 Eh/α   predicted    -0.2937398E-04 ( -18.12%)
   displ. norm   :     0.1673512 α      lambda       -0.1419882E-03
   maximum displ.:     0.0790190 α      in ANC's #8, #14, #40, ...

........................................................................
.............................. CYCLE   23 ..............................
........................................................................
   1   -220.4018942 -0.220402E+03  0.280E-03    1.17       0.0  T
   2   -220.4018949 -0.710669E-06  0.186E-03    1.17       4.5  T
   3   -220.4018953 -0.454703E-06  0.866E-04    1.17       9.8  T
   4   -220.4018953  0.542177E-07  0.755E-04    1.17      11.2  T
   5   -220.4018954 -0.164383E-06  0.196E-04    1.17      43.1  T
   6   -220.4018954 -0.839944E-08  0.331E-05    1.17     255.1  T
     SCC iter.                  ...        0 min,  0.268 sec
     gradient                   ...        0 min,  0.315 sec
 * total energy  :  -216.8684151 Eh     change       -0.1123300E-04 Eh
   gradient norm :     0.0047338 Eh/α   predicted    -0.7298241E-04 ( 549.71%)
   displ. norm   :     0.0409604 α      lambda       -0.9684991E-04
   maximum displ.:     0.0212992 α      in ANC's #40, #47, #8, ...

........................................................................
.............................. CYCLE   24 ..............................
........................................................................
   1   -220.4022124 -0.220402E+03  0.993E-04    1.17       0.0  T
   2   -220.4022125 -0.643378E-07  0.673E-04    1.17      12.6  T
   3   -220.4022125 -0.528858E-07  0.310E-04    1.17      27.3  T
   4   -220.4022125  0.587315E-08  0.250E-04    1.17      33.8  T
   5   -220.4022125 -0.158969E-07  0.699E-05    1.17     120.9  T
   6   -220.4022125 -0.187759E-08  0.120E-05    1.17     705.5  T
     SCC iter.                  ...        0 min,  0.268 sec
     gradient                   ...        0 min,  0.318 sec
 * total energy  :  -216.8684763 Eh     change       -0.6115985E-04 Eh
   gradient norm :     0.0023845 Eh/α   predicted    -0.4850889E-04 ( -20.69%)
   displ. norm   :     0.0743870 α      lambda       -0.3754292E-04
   maximum displ.:     0.0418445 α      in ANC's #8, #14, #18, ...

........................................................................
.............................. CYCLE   25 ..............................
........................................................................
   1   -220.4019370 -0.220402E+03  0.667E-04    1.17       0.0  T
   2   -220.4019371 -0.343627E-07  0.428E-04    1.17      19.7  T
   3   -220.4019371 -0.217792E-07  0.187E-04    1.17      45.3  T
   4   -220.4019371  0.249017E-08  0.159E-04    1.17      53.1  T
     SCC iter.                  ...        0 min,  0.180 sec
     gradient                   ...        0 min,  0.313 sec
 * total energy  :  -216.8685076 Eh     change       -0.3130897E-04 Eh
   gradient norm :     0.0015463 Eh/α   predicted    -0.1888028E-04 ( -39.70%)
   displ. norm   :     0.2743168 α      lambda       -0.6776731E-04
   maximum displ.:     0.1504998 α      in ANC's #8, #14, #18, ...

........................................................................
.............................. CYCLE   26 ..............................
........................................................................
   1   -220.4011653 -0.220401E+03  0.154E-03    1.17       0.0  T
   2   -220.4011655 -0.191269E-06  0.931E-04    1.17       9.1  T
   3   -220.4011656 -0.126795E-06  0.447E-04    1.17      18.9  T
   4   -220.4011656 -0.103850E-08  0.344E-04    1.17      24.6  T
   5   -220.4011656 -0.331327E-07  0.116E-04    1.17      72.7  T
   6   -220.4011656 -0.463862E-08  0.195E-05    1.17     434.1  T
     SCC iter.                  ...        0 min,  0.269 sec
     gradient                   ...        0 min,  0.317 sec
 * total energy  :  -216.8685830 Eh     change       -0.7542557E-04 Eh
   gradient norm :     0.0025470 Eh/α   predicted    -0.3501778E-04 ( -53.57%)
   displ. norm   :     0.2298688 α      lambda       -0.6766002E-04
   maximum displ.:     0.1250505 α      in ANC's #8, #14, #18, ...

........................................................................
.............................. CYCLE   27 ..............................
........................................................................
   1   -220.4008195 -0.220401E+03  0.511E-04    1.17       0.0  T
   2   -220.4008196 -0.200382E-07  0.272E-04    1.17      31.1  T
   3   -220.4008196 -0.179881E-07  0.171E-04    1.17      49.4  T
   4   -220.4008196 -0.921972E-08  0.789E-05    1.17     107.1  T
     SCC iter.                  ...        0 min,  0.179 sec
     gradient                   ...        0 min,  0.314 sec
 * total energy  :  -216.8686440 Eh     change       -0.6101186E-04 Eh
   gradient norm :     0.0026323 Eh/α   predicted    -0.3561807E-04 ( -41.62%)
   displ. norm   :     0.4055061 α      lambda       -0.1178611E-03
   maximum displ.:     0.2196412 α      in ANC's #8, #14, #18, ...

........................................................................
.............................. CYCLE   28 ..............................
........................................................................
   1   -220.4005694 -0.220401E+03  0.660E-04    1.17       0.0  T
   2   -220.4005694 -0.174351E-07  0.431E-04    1.17      19.6  T
   3   -220.4005694 -0.386306E-07  0.249E-04    1.17      33.9  T
   4   -220.4005694 -0.140385E-07  0.139E-04    1.17      60.8  T
   5   -220.4005695 -0.477203E-08  0.404E-05    1.17     209.3  T
     SCC iter.                  ...        0 min,  0.223 sec
     gradient                   ...        0 min,  0.338 sec
 * total energy  :  -216.8687444 Eh     change       -0.1003413E-03 Eh
   gradient norm :     0.0023099 Eh/α   predicted    -0.6862135E-04 ( -31.61%)
   displ. norm   :     0.4972880 α      lambda       -0.1242893E-03
   maximum displ.:     0.2720144 α      in ANC's #14, #8, #18, ...

........................................................................
.............................. CYCLE   29 ..............................
........................................................................
   1   -220.4002730 -0.220400E+03  0.749E-04    1.17       0.0  T
   2   -220.4002731 -0.345714E-07  0.450E-04    1.17      18.8  T
   3   -220.4002731 -0.998148E-08  0.256E-04    1.17      33.0  T
   4   -220.4002731 -0.197858E-08  0.190E-04    1.17      44.4  T
   5   -220.4002731 -0.113518E-07  0.406E-05    1.17     208.3  T
     SCC iter.                  ...        0 min,  0.224 sec
     gradient                   ...        0 min,  0.314 sec
 * total energy  :  -216.8688481 Eh     change       -0.1036987E-03 Eh
   gradient norm :     0.0021068 Eh/α   predicted    -0.7751311E-04 ( -25.25%)
   displ. norm   :     0.4790254 α      lambda       -0.1106490E-03
   maximum displ.:     0.2675782 α      in ANC's #14, #8, #18, ...

........................................................................
.............................. CYCLE   30 ..............................
........................................................................
   1   -220.4005387 -0.220401E+03  0.745E-04    1.17       0.0  T
   2   -220.4005388 -0.313379E-07  0.451E-04    1.17      18.8  T
   3   -220.4005388 -0.193567E-07  0.264E-04    1.17      32.0  T
   4   -220.4005388 -0.781574E-08  0.177E-04    1.17      47.7  T
   5   -220.4005388 -0.118837E-07  0.507E-05    1.17     166.7  T
     SCC iter.                  ...        0 min,  0.224 sec
     gradient                   ...        0 min,  0.312 sec
 * total energy  :  -216.8689422 Eh     change       -0.9416487E-04 Eh
   gradient norm :     0.0021060 Eh/α   predicted    -0.6801973E-04 ( -27.77%)
   displ. norm   :     0.4494264 α      lambda       -0.1094272E-03
   maximum displ.:     0.2554396 α      in ANC's #14, #8, #10, ...

........................................................................
.............................. CYCLE   31 ..............................
........................................................................
   1   -220.4015295 -0.220402E+03  0.902E-04    1.17       0.0  T
   2   -220.4015295 -0.763899E-08  0.634E-04    1.17      13.3  T
   3   -220.4015296 -0.116900E-06  0.316E-04    1.17      26.8  T
   4   -220.4015296 -0.259801E-07  0.184E-04    1.17      46.0  T
   5   -220.4015296 -0.921312E-08  0.574E-05    1.17     147.2  T
     SCC iter.                  ...        0 min,  0.224 sec
     gradient                   ...        0 min,  0.315 sec
 * total energy  :  -216.8690349 Eh     change       -0.9269960E-04 Eh
   gradient norm :     0.0018987 Eh/α   predicted    -0.6576599E-04 ( -29.05%)
   displ. norm   :     0.6241429 α      lambda       -0.1005040E-03
   maximum displ.:     0.3606778 α      in ANC's #14, #8, #10, ...

........................................................................
.............................. CYCLE   32 ..............................
........................................................................
   1   -220.4024368 -0.220402E+03  0.151E-03    1.17       0.0  T
   2   -220.4024367  0.693796E-07  0.112E-03    1.17       7.5  T
   3   -220.4024372 -0.478725E-06  0.496E-04    1.17      17.0  T
   4   -220.4024373 -0.802990E-07  0.265E-04    1.17      31.9  T
   5   -220.4024373 -0.152241E-07  0.902E-05    1.17      93.7  T
   6   -220.4024373 -0.197812E-08  0.253E-05    1.17     333.9  T
     SCC iter.                  ...        0 min,  0.269 sec
     gradient                   ...        0 min,  0.314 sec
 * total energy  :  -216.8691424 Eh     change       -0.1074849E-03 Eh
   gradient norm :     0.0017183 Eh/α   predicted    -0.5895565E-04 ( -45.15%)
   displ. norm   :     0.3270928 α      lambda       -0.4013848E-04
   maximum displ.:     0.1964144 α      in ANC's #14, #8, #10, ...

........................................................................
.............................. CYCLE   33 ..............................
........................................................................
   1   -220.4018155 -0.220402E+03  0.812E-04    1.17       0.0  T
   2   -220.4018155  0.350164E-08  0.458E-04    1.17      18.4  T
   3   -220.4018155 -0.470095E-07  0.303E-04    1.17      27.9  T
   4   -220.4018156 -0.349959E-07  0.129E-04    1.17      65.4  T
   5   -220.4018156 -0.324511E-08  0.407E-05    1.17     207.8  T
     SCC iter.                  ...        0 min,  0.223 sec
     gradient                   ...        0 min,  0.339 sec
 * total energy  :  -216.8691906 Eh     change       -0.4824221E-04 Eh
   gradient norm :     0.0012934 Eh/α   predicted    -0.2102711E-04 ( -56.41%)
   displ. norm   :     0.2327306 α      lambda       -0.3628738E-04
   maximum displ.:     0.1404828 α      in ANC's #14, #10, #8, ...

........................................................................
.............................. CYCLE   34 ..............................
........................................................................
   1   -220.4018026 -0.220402E+03  0.749E-04    1.17       0.0  T
   2   -220.4018026 -0.351582E-07  0.354E-04    1.17      23.8  T
   3   -220.4018026 -0.575369E-08  0.203E-04    1.17      41.6  T
   4   -220.4018026 -0.306869E-09  0.171E-04    1.17      49.4  T
   5   -220.4018026 -0.112396E-07  0.393E-05    1.17     215.2  T
     SCC iter.                  ...        0 min,  0.223 sec
     gradient                   ...        0 min,  0.316 sec
 * total energy  :  -216.8692353 Eh     change       -0.4469121E-04 Eh
   gradient norm :     0.0011772 Eh/α   predicted    -0.1858264E-04 ( -58.42%)
   displ. norm   :     0.2860954 α      lambda       -0.4271628E-04
   maximum displ.:     0.1720772 α      in ANC's #14, #10, #9, ...

........................................................................
.............................. CYCLE   35 ..............................
........................................................................
   1   -220.3993664 -0.220399E+03  0.108E-03    1.17       0.0  T
   2   -220.3993665 -0.743891E-07  0.502E-04    1.17      16.8  T
   3   -220.3993665 -0.701669E-08  0.329E-04    1.17      25.7  T
   4   -220.3993665  0.338341E-08  0.205E-04    1.17      41.2  T
   5   -220.3993665 -0.177863E-07  0.668E-05    1.17     126.6  T
   6   -220.3993665 -0.221354E-08  0.123E-05    1.17     687.9  T
     SCC iter.                  ...        0 min,  0.268 sec
     gradient                   ...        0 min,  0.317 sec
 * total energy  :  -216.8692865 Eh     change       -0.5114031E-04 Eh
   gradient norm :     0.0014521 Eh/α   predicted    -0.2213647E-04 ( -56.71%)
   displ. norm   :     0.3085149 α      lambda       -0.4195938E-04
   maximum displ.:     0.1793958 α      in ANC's #14, #10, #9, ...

........................................................................
.............................. CYCLE   36 ..............................
........................................................................
   1   -220.3984712 -0.220398E+03  0.928E-04    1.17       0.0  T
   2   -220.3984712 -0.517493E-07  0.422E-04    1.17      20.0  T
   3   -220.3984713 -0.193530E-07  0.331E-04    1.17      25.6  T
   4   -220.3984713 -0.269338E-07  0.140E-04    1.17      60.2  T
   5   -220.3984713 -0.319829E-08  0.647E-05    1.17     130.6  T
     SCC iter.                  ...        0 min,  0.225 sec
     gradient                   ...        0 min,  0.337 sec
 * total energy  :  -216.8693371 Eh     change       -0.5057691E-04 Eh
   gradient norm :     0.0014949 Eh/α   predicted    -0.2186854E-04 ( -56.76%)
   displ. norm   :     0.3654079 α      lambda       -0.4621428E-04
   maximum displ.:     0.2106493 α      in ANC's #14, #10, #9, ...

........................................................................
.............................. CYCLE   37 ..............................
........................................................................
   1   -220.3967380 -0.220397E+03  0.101E-03    1.17       0.0  T
   2   -220.3967380 -0.306597E-07  0.505E-04    1.17      16.7  T
   3   -220.3967381 -0.204894E-07  0.407E-04    1.17      20.8  T
   4   -220.3967381 -0.514860E-07  0.164E-04    1.17      51.6  T
   5   -220.3967381 -0.438948E-08  0.554E-05    1.17     152.5  T
     SCC iter.                  ...        0 min,  0.223 sec
     gradient                   ...        0 min,  0.339 sec
 * total energy  :  -216.8693938 Eh     change       -0.5675165E-04 Eh
   gradient norm :     0.0016670 Eh/α   predicted    -0.2448054E-04 ( -56.86%)
   displ. norm   :     0.4781992 α      lambda       -0.5999610E-04
   maximum displ.:     0.2660042 α      in ANC's #14, #10, #9, ...

........................................................................
.............................. CYCLE   38 ..............................
........................................................................
   1   -220.3961861 -0.220396E+03  0.989E-04    1.17       0.0  T
   2   -220.3961861 -0.255880E-07  0.438E-04    1.17      19.3  T
   3   -220.3961861 -0.158562E-07  0.387E-04    1.17      21.8  T
   4   -220.3961862 -0.589150E-07  0.136E-04    1.17      62.2  T
   5   -220.3961862 -0.869107E-09  0.436E-05    1.17     193.9  T
     SCC iter.                  ...        0 min,  0.223 sec
     gradient                   ...        0 min,  0.317 sec
 * total energy  :  -216.8694643 Eh     change       -0.7052054E-04 Eh
   gradient norm :     0.0016873 Eh/α   predicted    -0.3305060E-04 ( -53.13%)
   displ. norm   :     0.5180098 α      lambda       -0.6049212E-04
   maximum displ.:     0.2807349 α      in ANC's #14, #10, #9, ...

........................................................................
.............................. CYCLE   39 ..............................
........................................................................
   1   -220.3962766 -0.220396E+03  0.834E-04    1.16       0.0  T
   2   -220.3962766 -0.356149E-07  0.401E-04    1.16      21.1  T
   3   -220.3962766  0.272556E-08  0.326E-04    1.16      26.0  T
   4   -220.3962767 -0.304305E-07  0.152E-04    1.16      55.7  T
   5   -220.3962767 -0.462552E-08  0.324E-05    1.16     261.2  T
     SCC iter.                  ...        0 min,  0.224 sec
     gradient                   ...        0 min,  0.312 sec
 * total energy  :  -216.8695307 Eh     change       -0.6642182E-04 Eh
   gradient norm :     0.0023808 Eh/α   predicted    -0.3385427E-04 ( -49.03%)
   displ. norm   :     0.2945982 α      lambda       -0.5373476E-04
   maximum displ.:     0.1498761 α      in ANC's #14, #10, #9, ...

........................................................................
.............................. CYCLE   40 ..............................
........................................................................
   1   -220.3978835 -0.220398E+03  0.811E-04    1.16       0.0  T
   2   -220.3978836 -0.570190E-07  0.386E-04    1.16      21.9  T
   3   -220.3978836 -0.709230E-08  0.252E-04    1.16      33.5  T
   4   -220.3978836  0.386535E-11  0.133E-04    1.16      63.5  T
   5   -220.3978836 -0.295012E-08  0.772E-05    1.16     109.5  T
     SCC iter.                  ...        0 min,  0.224 sec
     gradient                   ...        0 min,  0.338 sec
 * total energy  :  -216.8695727 Eh     change       -0.4199897E-04 Eh
   gradient norm :     0.0018512 Eh/α   predicted    -0.2920442E-04 ( -30.46%)
   displ. norm   :     0.5595320 α      lambda       -0.6229907E-04
   maximum displ.:     0.2760126 α      in ANC's #14, #10, #9, ...

........................................................................
.............................. CYCLE   41 ..............................
........................................................................
   1   -220.4008214 -0.220401E+03  0.175E-03    1.16       0.0  T
   2   -220.4008217 -0.227996E-06  0.731E-04    1.16      11.6  T
   3   -220.4008217 -0.505824E-07  0.560E-04    1.16      15.1  T
   4   -220.4008218 -0.393021E-07  0.252E-04    1.16      33.6  T
   5   -220.4008218 -0.123138E-07  0.149E-04    1.16      56.5  T
   6   -220.4008218 -0.101624E-07  0.194E-05    1.16     436.0  T
     SCC iter.                  ...        0 min,  0.269 sec
     gradient                   ...        0 min,  0.317 sec
 * total energy  :  -216.8696288 Eh     change       -0.5609527E-04 Eh
   gradient norm :     0.0016239 Eh/α   predicted    -0.3548860E-04 ( -36.74%)
   displ. norm   :     0.2001465 α      lambda       -0.2640544E-04
   maximum displ.:     0.0959262 α      in ANC's #10, #14, #9, ...

........................................................................
.............................. CYCLE   42 ..............................
........................................................................
   1   -220.4018417 -0.220402E+03  0.927E-04    1.16       0.0  T
   2   -220.4018417 -0.402576E-07  0.419E-04    1.16      20.1  T
   3   -220.4018417 -0.119697E-07  0.352E-04    1.16      24.0  T
   4   -220.4018418 -0.278890E-07  0.141E-04    1.16      60.1  T
   5   -220.4018418 -0.310575E-08  0.737E-05    1.16     114.7  T
     SCC iter.                  ...        0 min,  0.223 sec
     gradient                   ...        0 min,  0.315 sec
 * total energy  :  -216.8696608 Eh     change       -0.3194837E-04 Eh
   gradient norm :     0.0013839 Eh/α   predicted    -0.1344251E-04 ( -57.92%)
   displ. norm   :     0.4095499 α      lambda       -0.5861631E-04
   maximum displ.:     0.1923507 α      in ANC's #10, #9, #14, ...
 * RMSD in coord.:     0.5115329 α      energy gain  -0.1467334E-02 Eh

generating ANC from model Hessian ...
Using Lindh-Hessian (1995)
 Shifting diagonal of input Hessian by    1.0012458828673295E-002
 Lowest  eigenvalues of input Hessian
    0.010000    0.010009    0.010011    0.000000    0.000000    0.000000
    0.000000    0.000000    0.000000    0.010049    0.010086    0.010111
    0.010205    0.010281    0.010323    0.010324    0.010412    0.010414
 Highest eigenvalues
    2.081848    2.083276    2.126310    2.126636    2.360486    2.884156


........................................................................
.............................. CYCLE   43 ..............................
........................................................................
   1   -220.4019987 -0.220402E+03  0.143E-03    1.16       0.0  T
   2   -220.4019989 -0.114237E-06  0.535E-04    1.16      15.8  T
   3   -220.4019989 -0.273050E-07  0.481E-04    1.16      17.6  T
   4   -220.4019989 -0.494186E-07  0.180E-04    1.16      47.0  T
   5   -220.4019989 -0.248352E-08  0.108E-04    1.16      77.9  T
     SCC iter.                  ...        0 min,  0.225 sec
     gradient                   ...        0 min,  0.316 sec
 * total energy  :  -216.8697241 Eh     change       -0.6331004E-04 Eh
   gradient norm :     0.0018773 Eh/α   predicted     0.0000000E+00 (-100.00%)
   displ. norm   :     0.0506872 α      lambda       -0.1976503E-04
   maximum displ.:     0.0241566 α      in ANC's #19, #21, #8, ...

........................................................................
.............................. CYCLE   44 ..............................
........................................................................
   1   -220.4011435 -0.220401E+03  0.858E-04    1.16       0.0  T
   2   -220.4011436 -0.331270E-07  0.413E-04    1.16      20.5  T
   3   -220.4011436 -0.111867E-07  0.310E-04    1.16      27.2  T
   4   -220.4011436 -0.213383E-07  0.149E-04    1.16      56.8  T
   5   -220.4011436 -0.524795E-08  0.516E-05    1.16     163.9  T
     SCC iter.                  ...        0 min,  0.223 sec
     gradient                   ...        0 min,  0.316 sec
 * total energy  :  -216.8697469 Eh     change       -0.2275423E-04 Eh
   gradient norm :     0.0010188 Eh/α   predicted    -0.1001296E-04 ( -56.00%)
   displ. norm   :     0.1863589 α      lambda       -0.5269040E-04
   maximum displ.:     0.0923650 α      in ANC's #19, #21, #8, ...

........................................................................
.............................. CYCLE   45 ..............................
........................................................................
   1   -220.3985062 -0.220399E+03  0.238E-03    1.16       0.0  T
   2   -220.3985065 -0.267874E-06  0.109E-03    1.16       7.8  T
   3   -220.3985066 -0.139186E-06  0.882E-04    1.16       9.6  T
   4   -220.3985068 -0.239163E-06  0.363E-04    1.16      23.3  T
   5   -220.3985068 -0.103712E-07  0.148E-04    1.16      57.2  T
   6   -220.3985069 -0.782188E-08  0.307E-05    1.16     275.5  T
     SCC iter.                  ...        0 min,  0.267 sec
     gradient                   ...        0 min,  0.313 sec
 * total energy  :  -216.8697376 Eh     change        0.9238299E-05 Eh
   gradient norm :     0.0038091 Eh/α   predicted    -0.2675194E-04 (-389.58%)
   displ. norm   :     0.0514436 α      lambda       -0.7356748E-04
   maximum displ.:     0.0226034 α      in ANC's #19, #8, #20, ...

........................................................................
.............................. CYCLE   46 ..............................
........................................................................
   1   -220.3985527 -0.220399E+03  0.524E-04    1.16       0.0  T
   2   -220.3985527 -0.935808E-08  0.297E-04    1.16      28.5  T
   3   -220.3985527 -0.114355E-08  0.196E-04    1.16      43.1  T
   4   -220.3985527 -0.159739E-08  0.119E-04    1.16      71.2  T
     SCC iter.                  ...        0 min,  0.181 sec
     gradient                   ...        0 min,  0.316 sec
 * total energy  :  -216.8697850 Eh     change       -0.4737683E-04 Eh
   gradient norm :     0.0021999 Eh/α   predicted    -0.3688395E-04 ( -22.15%)
   displ. norm   :     0.0332783 α      lambda       -0.2110907E-04
   maximum displ.:     0.0148140 α      in ANC's #8, #19, #38, ...

........................................................................
.............................. CYCLE   47 ..............................
........................................................................
   1   -220.3990849 -0.220399E+03  0.646E-04    1.16       0.0  T
   2   -220.3990849 -0.195317E-07  0.291E-04    1.16      29.0  T
   3   -220.3990849 -0.403418E-09  0.203E-04    1.16      41.6  T
   4   -220.3990849 -0.107886E-08  0.120E-04    1.16      70.6  T
   5   -220.3990849 -0.472127E-08  0.387E-05    1.16     218.2  T
     SCC iter.                  ...        0 min,  0.223 sec
     gradient                   ...        0 min,  0.340 sec
 * total energy  :  -216.8697993 Eh     change       -0.1430529E-04 Eh
   gradient norm :     0.0010203 Eh/α   predicted    -0.1056827E-04 ( -26.12%)
   displ. norm   :     0.0782456 α      lambda       -0.1307150E-04
   maximum displ.:     0.0387457 α      in ANC's #8, #19, #2, ...

........................................................................
.............................. CYCLE   48 ..............................
........................................................................
   1   -220.3996661 -0.220400E+03  0.763E-04    1.16       0.0  T
   2   -220.3996661 -0.343852E-07  0.285E-04    1.16      29.6  T
   3   -220.3996661 -0.227988E-08  0.222E-04    1.16      38.0  T
   4   -220.3996662 -0.610208E-08  0.117E-04    1.16      72.0  T
   5   -220.3996662 -0.325613E-08  0.451E-05    1.16     187.6  T
     SCC iter.                  ...        0 min,  0.224 sec
     gradient                   ...        0 min,  0.337 sec
 * total energy  :  -216.8698132 Eh     change       -0.1390677E-04 Eh
   gradient norm :     0.0009901 Eh/α   predicted    -0.6555070E-05 ( -52.86%)
   displ. norm   :     0.1227037 α      lambda       -0.1501065E-04
   maximum displ.:     0.0609166 α      in ANC's #8, #19, #2, ...

........................................................................
.............................. CYCLE   49 ..............................
........................................................................
   1   -220.3999610 -0.220400E+03  0.498E-04    1.16       0.0  T
   2   -220.3999610 -0.176080E-07  0.182E-04    1.16      46.4  T
   3   -220.3999610 -0.229704E-08  0.125E-04    1.16      67.5  T
     SCC iter.                  ...        0 min,  0.136 sec
     gradient                   ...        0 min,  0.315 sec
 * total energy  :  -216.8698317 Eh     change       -0.1849015E-04 Eh
   gradient norm :     0.0011859 Eh/α   predicted    -0.7555808E-05 ( -59.14%)
   displ. norm   :     0.2142843 α      lambda       -0.2013228E-04
   maximum displ.:     0.1061398 α      in ANC's #8, #19, #2, ...

........................................................................
.............................. CYCLE   50 ..............................
........................................................................
   1   -220.4000402 -0.220400E+03  0.487E-04    1.16       0.0  T
   2   -220.4000402 -0.107136E-07  0.273E-04    1.16      31.0  T
   3   -220.4000402 -0.115108E-09  0.164E-04    1.16      51.5  T
   4   -220.4000402 -0.638096E-09  0.120E-04    1.16      70.6  T
     SCC iter.                  ...        0 min,  0.180 sec
     gradient                   ...        0 min,  0.339 sec
 * total energy  :  -216.8698544 Eh     change       -0.2271993E-04 Eh
   gradient norm :     0.0009598 Eh/α   predicted    -0.1027230E-04 ( -54.79%)
   displ. norm   :     0.2014037 α      lambda       -0.1292837E-04
   maximum displ.:     0.1018078 α      in ANC's #8, #19, #2, ...

........................................................................
.............................. CYCLE   51 ..............................
........................................................................
   1   -220.4002974 -0.220400E+03  0.393E-04    1.16       0.0  T
   2   -220.4002974 -0.854789E-08  0.215E-04    1.16      39.3  T
   3   -220.4002974  0.560931E-09  0.132E-04    1.16      63.9  T
   4   -220.4002974 -0.127048E-08  0.105E-04    1.16      80.9  T
     SCC iter.                  ...        0 min,  0.179 sec
     gradient                   ...        0 min,  0.315 sec
 * total energy  :  -216.8698688 Eh     change       -0.1443615E-04 Eh
   gradient norm :     0.0006594 Eh/α   predicted    -0.6585556E-05 ( -54.38%)
   displ. norm   :     0.1546913 α      lambda       -0.8843782E-05
   maximum displ.:     0.0796260 α      in ANC's #8, #2, #19, ...

........................................................................
.............................. CYCLE   52 ..............................
........................................................................
   1   -220.4006609 -0.220401E+03  0.361E-04    1.16       0.0  T
   2   -220.4006609 -0.788188E-08  0.170E-04    1.16      49.9  T
   3   -220.4006609 -0.242551E-09  0.118E-04    1.16      71.5  T
     SCC iter.                  ...        0 min,  0.135 sec
     gradient                   ...        0 min,  0.313 sec
 * total energy  :  -216.8698794 Eh     change       -0.1054340E-04 Eh
   gradient norm :     0.0004923 Eh/α   predicted    -0.4469257E-05 ( -57.61%)
   displ. norm   :     0.1709923 α      lambda       -0.1017984E-04
   maximum displ.:     0.0871641 α      in ANC's #8, #2, #10, ...

........................................................................
.............................. CYCLE   53 ..............................
........................................................................
   1   -220.4010254 -0.220401E+03  0.438E-04    1.16       0.0  T
   2   -220.4010254 -0.120384E-07  0.187E-04    1.16      45.3  T
   3   -220.4010254 -0.210872E-08  0.123E-04    1.16      68.7  T
     SCC iter.                  ...        0 min,  0.136 sec
     gradient                   ...        0 min,  0.317 sec
 * total energy  :  -216.8698912 Eh     change       -0.1181456E-04 Eh
   gradient norm :     0.0005454 Eh/α   predicted    -0.5156444E-05 ( -56.36%)
   displ. norm   :     0.1780539 α      lambda       -0.1011061E-04
   maximum displ.:     0.0877243 α      in ANC's #8, #2, #10, ...

........................................................................
.............................. CYCLE   54 ..............................
........................................................................
   1   -220.4011468 -0.220401E+03  0.374E-04    1.16       0.0  T
   2   -220.4011468 -0.713027E-08  0.178E-04    1.16      47.5  T
   3   -220.4011468 -0.283870E-08  0.122E-04    1.16      69.3  T
     SCC iter.                  ...        0 min,  0.134 sec
     gradient                   ...        0 min,  0.315 sec
 * total energy  :  -216.8699026 Eh     change       -0.1137291E-04 Eh
   gradient norm :     0.0006896 Eh/α   predicted    -0.5127536E-05 ( -54.91%)
   displ. norm   :     0.1823820 α      lambda       -0.9022631E-05
   maximum displ.:     0.0856441 α      in ANC's #8, #2, #10, ...

........................................................................
.............................. CYCLE   55 ..............................
........................................................................
   1   -220.4011506 -0.220401E+03  0.336E-04    1.16       0.0  T
   2   -220.4011506 -0.410486E-08  0.212E-04    1.16      39.9  T
   3   -220.4011506 -0.836107E-08  0.105E-04    1.16      80.6  T
   4   -220.4011506 -0.587079E-09  0.816E-05    1.16     103.6  T
     SCC iter.                  ...        0 min,  0.178 sec
     gradient                   ...        0 min,  0.308 sec
 * total energy  :  -216.8699128 Eh     change       -0.1025184E-04 Eh
   gradient norm :     0.0006268 Eh/α   predicted    -0.4580050E-05 ( -55.32%)
   displ. norm   :     0.1750621 α      lambda       -0.8144416E-05
   maximum displ.:     0.0828287 α      in ANC's #2, #8, #3, ...

........................................................................
.............................. CYCLE   56 ..............................
........................................................................
   1   -220.4010042 -0.220401E+03  0.309E-04    1.16       0.0  T
   2   -220.4010042  0.812975E-09  0.208E-04    1.16      40.7  T
   3   -220.4010042 -0.143107E-07  0.100E-04    1.16      84.1  T
   4   -220.4010042 -0.400846E-08  0.565E-05    1.16     149.5  T
     SCC iter.                  ...        0 min,  0.179 sec
     gradient                   ...        0 min,  0.312 sec
 * total energy  :  -216.8699228 Eh     change       -0.9983913E-05 Eh
   gradient norm :     0.0005152 Eh/α   predicted    -0.4129714E-05 ( -58.64%)
   displ. norm   :     0.2004145 α      lambda       -0.1011761E-04
   maximum displ.:     0.0971656 α      in ANC's #2, #8, #3, ...

........................................................................
.............................. CYCLE   57 ..............................
........................................................................
   1   -220.4007976 -0.220401E+03  0.407E-04    1.16       0.0  T
   2   -220.4007976  0.211264E-08  0.251E-04    1.16      33.7  T
   3   -220.4007976 -0.236387E-07  0.142E-04    1.16      59.3  T
   4   -220.4007976 -0.996903E-08  0.492E-05    1.16     171.9  T
     SCC iter.                  ...        0 min,  0.179 sec
     gradient                   ...        0 min,  0.316 sec
 * total energy  :  -216.8699354 Eh     change       -0.1254609E-04 Eh
   gradient norm :     0.0005474 Eh/α   predicted    -0.5152892E-05 ( -58.93%)
   displ. norm   :     0.2409215 α      lambda       -0.1237194E-04
   maximum displ.:     0.1184822 α      in ANC's #2, #3, #10, ...

........................................................................
.............................. CYCLE   58 ..............................
........................................................................
   1   -220.4006690 -0.220401E+03  0.447E-04    1.16       0.0  T
   2   -220.4006690  0.695479E-09  0.250E-04    1.16      33.8  T
   3   -220.4006690 -0.218958E-07  0.171E-04    1.16      49.3  T
   4   -220.4006690 -0.136022E-07  0.524E-05    1.16     161.3  T
     SCC iter.                  ...        0 min,  0.179 sec
     gradient                   ...        0 min,  0.316 sec
 * total energy  :  -216.8699499 Eh     change       -0.1448918E-04 Eh
   gradient norm :     0.0008774 Eh/α   predicted    -0.6347146E-05 ( -56.19%)
   displ. norm   :     0.2427112 α      lambda       -0.1101598E-04
   maximum displ.:     0.1209728 α      in ANC's #2, #3, #10, ...

........................................................................
.............................. CYCLE   59 ..............................
........................................................................
   1   -220.4007073 -0.220401E+03  0.335E-04    1.16       0.0  T
   2   -220.4007073 -0.326764E-08  0.188E-04    1.16      44.9  T
   3   -220.4007073 -0.724356E-08  0.134E-04    1.16      63.2  T
     SCC iter.                  ...        0 min,  0.136 sec
     gradient                   ...        0 min,  0.315 sec
 * total energy  :  -216.8699621 Eh     change       -0.1222473E-04 Eh
   gradient norm :     0.0010364 Eh/α   predicted    -0.5653482E-05 ( -53.75%)
   displ. norm   :     0.1881629 α      lambda       -0.7830949E-05
   maximum displ.:     0.0956514 α      in ANC's #2, #3, #10, ...

........................................................................
.............................. CYCLE   60 ..............................
........................................................................
   1   -220.4010432 -0.220401E+03  0.310E-04    1.16       0.0  T
   2   -220.4010433 -0.549409E-08  0.192E-04    1.16      44.0  T
   3   -220.4010433 -0.517957E-08  0.112E-04    1.16      75.5  T
     SCC iter.                  ...        0 min,  0.134 sec
     gradient                   ...        0 min,  0.313 sec
 * total energy  :  -216.8699708 Eh     change       -0.8759626E-05 Eh
   gradient norm :     0.0007679 Eh/α   predicted    -0.3978427E-05 ( -54.58%)
   displ. norm   :     0.1304690 α      lambda       -0.5765251E-05
   maximum displ.:     0.0679944 α      in ANC's #2, #3, #14, ...

........................................................................
.............................. CYCLE   61 ..............................
........................................................................
   1   -220.4013800 -0.220401E+03  0.391E-04    1.16       0.0  T
   2   -220.4013800 -0.966099E-08  0.197E-04    1.16      42.9  T
   3   -220.4013800 -0.603936E-08  0.125E-04    1.16      67.8  T
     SCC iter.                  ...        0 min,  0.134 sec
     gradient                   ...        0 min,  0.337 sec
 * total energy  :  -216.8699774 Eh     change       -0.6603206E-05 Eh
   gradient norm :     0.0004351 Eh/α   predicted    -0.2905562E-05 ( -56.00%)
   displ. norm   :     0.1036089 α      lambda       -0.4683421E-05
   maximum displ.:     0.0552576 α      in ANC's #2, #14, #3, ...

........................................................................
.............................. CYCLE   62 ..............................
........................................................................
   1   -220.4013825 -0.220401E+03  0.393E-04    1.16       0.0  T
   2   -220.4013825 -0.533092E-08  0.204E-04    1.16      41.4  T
   3   -220.4013825 -0.115803E-07  0.137E-04    1.16      61.5  T
   4   -220.4013825 -0.913138E-08  0.482E-05    1.16     175.2  T
     SCC iter.                  ...        0 min,  0.178 sec
     gradient                   ...        0 min,  0.314 sec
 * total energy  :  -216.8699828 Eh     change       -0.5347994E-05 Eh
   gradient norm :     0.0003190 Eh/α   predicted    -0.2354799E-05 ( -55.97%)
   displ. norm   :     0.0881094 α      lambda       -0.3883953E-05
   maximum displ.:     0.0475585 α      in ANC's #2, #14, #3, ...

........................................................................
.............................. CYCLE   63 ..............................
........................................................................
   1   -220.4013078 -0.220401E+03  0.312E-04    1.16       0.0  T
   2   -220.4013078  0.506699E-08  0.199E-04    1.16      42.5  T
   3   -220.4013078 -0.210433E-07  0.118E-04    1.16      71.6  T
     SCC iter.                  ...        0 min,  0.136 sec
     gradient                   ...        0 min,  0.335 sec
 * total energy  :  -216.8699873 Eh     change       -0.4531970E-05 Eh
   gradient norm :     0.0004617 Eh/α   predicted    -0.1952643E-05 ( -56.91%)
   displ. norm   :     0.0889288 α      lambda       -0.3982946E-05
   maximum displ.:     0.0478095 α      in ANC's #2, #14, #3, ...

   *** GEOMETRY OPTIMIZATION CONVERGED AFTER 63 ITERATIONS ***

------------------------------------------------------------------------
 total energy gain   :        -1.0824319 Eh     -679.2362 kcal/mol
 total RMSD          :         0.9557669 a0        0.5058 Å
 total power (kW/mol):       -45.1099121 (step)  -63.8558 (real)
------------------------------------------------------------------------

 ANCopt (total)                0 d,  0 h,  0 min, 44.505 sec
 optimizer setup                ...        0 min,  0.000 sec (  0.001%)
 model hessian                  ...        0 min,  0.149 sec (  0.335%)
 ANC generation                 ...        0 min,  0.079 sec (  0.177%)
 coordinate transformation      ...        0 min,  0.007 sec (  0.016%)
 single point calculation       ...        0 min, 44.198 sec ( 99.310%)
 optimization log               ...        0 min,  0.034 sec (  0.077%)
 hessian update                 ...        0 min,  0.007 sec (  0.017%)
 rational function              ...        0 min,  0.025 sec (  0.055%)

================
 final structure:
================
140
 xtb: 6.5.1 (b24c23e)
Zn          15.47029583171391        0.01202338236789       -0.02024886377623
C           12.07090952897078        0.16793181554914       -0.26726980558323
C           12.71953965914184        1.34213493440918        0.09652636209282
C           12.06777489266545        2.58575367081837        0.39946774406798
C           13.03902245516245        3.47280344390051        0.73152450125287
C           14.29801355584128        2.78375641218466        0.62748963216987
N           14.06826956954329        1.49436311191517        0.24449946458121
C           15.55279708185426        3.33698817034287        0.90754223408416
C           16.77587653901935        2.66124899820059        0.84080333643640
C           18.06346073730242        3.25175837615480        1.08207640379219
C           18.99232656563287        2.28200318929680        0.88396033844970
N           16.94794547576873        1.34739719094000        0.49556442873963
C           18.28391016862323        1.09190983270913        0.51393261902110
C           18.89518973603385       -0.13555294094691        0.19081891274154
C           18.22522404479928       -1.31380867238739       -0.19174784374608
C           18.87218023100417       -2.54909593279316       -0.52444571355259
C           17.89422423949047       -3.43993598249520       -0.82939597857389
C           16.63820704793465       -2.75738083452089       -0.68240878040856
C           15.38032361149275       -3.32078939101314       -0.92183303199406
C           15.34340053082641       -4.75877723179851       -1.29273892158640
C           14.86768357905522       -5.15534745178147       -2.54055688582797
C           14.83811659136406       -6.50221279045651       -2.89071633935231
C           14.31301069776739       -6.91812162206590       -4.23860585086905
C           15.28141103484264       -7.45361255154564       -1.97870861291659
C           15.75598781585894       -7.07321455780543       -0.72557364640474
C           16.24560245236978       -8.11471308410606        0.24429815970126
C           15.78795905834343       -5.72513952641141       -0.39013726519378
C           14.15562207104634       -2.64819076737753       -0.84030834937356
C           12.86158902707802       -3.23932654625620       -1.05611794235595
C           11.93896475087095       -2.26083249056652       -0.87794864514621
[...]
    32   7 N    3.294 --    28 C    1.243    31 C    1.234     1 Zn   0.460
    33   7 N    3.298 --    15 C    1.261    18 C    1.226     1 Zn   0.457
    34   6 C    3.988 --    41 C    1.398    35 C    1.396     8 C    1.024
                            38 C    0.103
    35   6 C    3.986 --    36 C    1.418    34 C    1.396    60 H    0.972
                            39 C    0.103
    36   6 C    3.988 --    35 C    1.418    38 C    1.414    37 C    1.020
                            41 C    0.104
    37   6 C    3.996 --    36 C    1.020    62 H    0.984    61 H    0.982
                            63 H    0.971
    38   6 C    3.988 --    39 C    1.417    36 C    1.414    64 H    0.972
                            34 C    0.103
    39   6 C    3.988 --    38 C    1.417    41 C    1.416    40 C    1.020
                            35 C    0.103
    40   6 C    3.996 --    39 C    1.020    67 H    0.983    66 H    0.983
                            65 H    0.971
    41   6 C    3.987 --    39 C    1.416    34 C    1.398    68 H    0.972
                            36 C    0.104
    42   1 H    1.002 --     2 C    0.972
    43   1 H    0.998 --     4 C    0.976
    44   1 H    1.005 --     5 C    0.974
    45   1 H    1.006 --    10 C    0.973
    46   1 H    1.003 --    11 C    0.974
    47   1 H    1.002 --    16 C    0.974
    48   1 H    1.005 --    17 C    0.974
    49   1 H    1.003 --    21 C    0.972
    50   1 H    1.004 --    23 C    0.985
    51   1 H    1.006 --    23 C    0.972
    52   1 H    1.005 --    23 C    0.981
    53   1 H    1.000 --    24 C    0.972
    54   1 H    1.004 --    26 C    0.985
    55   1 H    1.005 --    26 C    0.980
    56   1 H    1.006 --    26 C    0.972
    57   1 H    1.003 --    27 C    0.972
    58   1 H    1.005 --    29 C    0.973
    59   1 H    0.998 --    30 C    0.976
    60   1 H    1.003 --    35 C    0.972
    61   1 H    1.005 --    37 C    0.982
    62   1 H    1.004 --    37 C    0.984
    63   1 H    1.006 --    37 C    0.971
    64   1 H    1.000 --    38 C    0.972
    65   1 H    1.006 --    40 C    0.971
    66   1 H    1.004 --    40 C    0.983
    67   1 H    1.004 --    40 C    0.983
    68   1 H    1.003 --    41 C    0.972
    69  30 Zn   2.000 --    75 N    0.460   100 N    0.460    80 N    0.457
                           101 N    0.457
    70   6 C    3.928 --    71 C    1.357    99 C    1.357   110 H    0.972
    71   6 C    3.923 --    70 C    1.357    75 N    1.233    72 C    1.171
    72   6 C    3.960 --    73 C    1.658    71 C    1.171   111 H    0.976
    73   6 C    3.963 --    72 C    1.658    74 C    1.173   112 H    0.974
    74   6 C    3.918 --    76 C    1.316    75 N    1.243    73 C    1.173
    75   7 N    3.295 --    74 C    1.243    71 C    1.233    69 Zn   0.460
    76   6 C    3.934 --    77 C    1.324    74 C    1.316   102 C    1.024
    77   6 C    3.913 --    76 C    1.324    80 N    1.226    78 C    1.179
    78   6 C    3.961 --    79 C    1.647    77 C    1.179   113 H    0.973
    79   6 C    3.962 --    78 C    1.647    81 C    1.186   114 H    0.974
    80   7 N    3.298 --    81 C    1.261    77 C    1.226    69 Zn   0.457
    81   6 C    3.905 --    80 N    1.261    82 C    1.258    79 C    1.186
    82   6 C    3.939 --    83 C    1.258    81 C    1.258   140 C    1.182
    83   6 C    3.905 --   101 N    1.261    82 C    1.258    84 C    1.186
    84   6 C    3.962 --    85 C    1.646    83 C    1.186   115 H    0.974
    85   6 C    3.961 --    84 C    1.646    86 C    1.179   116 H    0.974
    86   6 C    3.914 --    87 C    1.323   101 N    1.226    85 C    1.179
    87   6 C    3.934 --    86 C    1.323    96 C    1.316    88 C    1.024
    88   6 C    3.988 --    89 C    1.403    95 C    1.392    87 C    1.024
                            92 C    0.103
    89   6 C    3.986 --    90 C    1.412    88 C    1.403   117 H    0.972
                            93 C    0.104
    90   6 C    3.988 --    92 C    1.422    89 C    1.412    91 C    1.019
                            95 C    0.103
    91   6 C    3.996 --    90 C    1.019   118 H    0.985   120 H    0.981
                           119 H    0.972
    92   6 C    3.988 --    90 C    1.422    93 C    1.409   121 H    0.972
                            88 C    0.103
    93   6 C    3.988 --    95 C    1.423    92 C    1.409    94 C    1.020
                            89 C    0.104
    94   6 C    3.996 --    93 C    1.020   122 H    0.985   123 H    0.980
                           124 H    0.972
    95   6 C    3.987 --    93 C    1.423    88 C    1.392   125 H    0.972
                            90 C    0.103
    96   6 C    3.918 --    87 C    1.316   100 N    1.243    97 C    1.173
    97   6 C    3.963 --    98 C    1.658    96 C    1.173   126 H    0.973
    98   6 C    3.960 --    97 C    1.658    99 C    1.171   127 H    0.976
    99   6 C    3.923 --    70 C    1.357   100 N    1.234    98 C    1.171
   100   7 N    3.294 --    96 C    1.243    99 C    1.234    69 Zn   0.460
   101   7 N    3.298 --    83 C    1.261    86 C    1.226    69 Zn   0.457
   102   6 C    3.988 --   109 C    1.398   103 C    1.396    76 C    1.024
                           106 C    0.103
   103   6 C    3.986 --   104 C    1.418   102 C    1.396   128 H    0.972
                           107 C    0.103
   104   6 C    3.988 --   103 C    1.418   106 C    1.414   105 C    1.020
                           109 C    0.104
   105   6 C    3.996 --   104 C    1.020   130 H    0.984   129 H    0.982
                           131 H    0.971
   106   6 C    3.988 --   107 C    1.417   104 C    1.414   132 H    0.972
                           102 C    0.103
   107   6 C    3.988 --   106 C    1.417   109 C    1.416   108 C    1.020
                           103 C    0.103
   108   6 C    3.996 --   107 C    1.020   135 H    0.983   134 H    0.983
                           133 H    0.971
   109   6 C    3.987 --   107 C    1.416   102 C    1.398   136 H    0.972
                           104 C    0.104
   110   1 H    1.002 --    70 C    0.972
   111   1 H    0.998 --    72 C    0.976
   112   1 H    1.005 --    73 C    0.974
   113   1 H    1.006 --    78 C    0.973
   114   1 H    1.003 --    79 C    0.974
   115   1 H    1.003 --    84 C    0.974
   116   1 H    1.005 --    85 C    0.974
   117   1 H    1.003 --    89 C    0.972
   118   1 H    1.004 --    91 C    0.985
   119   1 H    1.006 --    91 C    0.972
   120   1 H    1.005 --    91 C    0.981
   121   1 H    1.000 --    92 C    0.972
   122   1 H    1.004 --    94 C    0.985
   123   1 H    1.005 --    94 C    0.980
   124   1 H    1.006 --    94 C    0.972
   125   1 H    1.003 --    95 C    0.972
   126   1 H    1.005 --    97 C    0.973
   127   1 H    0.998 --    98 C    0.976
   128   1 H    1.003 --   103 C    0.972
   129   1 H    1.005 --   105 C    0.982
   130   1 H    1.004 --   105 C    0.984
   131   1 H    1.006 --   105 C    0.971
   132   1 H    1.000 --   106 C    0.972
   133   1 H    1.006 --   108 C    0.971
   134   1 H    1.004 --   108 C    0.983
   135   1 H    1.004 --   108 C    0.983
   136   1 H    1.003 --   109 C    0.972
   137   6 C    3.933 --   138 C    2.483   139 C    1.301
   138   6 C    3.922 --   137 C    2.483    14 C    1.182   140 C    0.198
   139   6 C    3.933 --   140 C    2.483   137 C    1.301
   140   6 C    3.922 --   139 C    2.483    82 C    1.182   138 C    0.198
 ---------------------------------------------------------------------------

Topologies differ in total number of bonds
Writing topology from bond orders to xtbtopo.mol

 dipole moment from electron density (au)
     X       Y       Z   
  -0.0004   0.0369  -0.0490  total (Debye):    0.156

           -------------------------------------------------
          |                Geometry Summary                 |
           -------------------------------------------------

      molecular mass/u    :     1210.0539196
   center of mass at/Å    :       22.1984037      -0.0009511       0.0016019
  moments of inertia/u·Å² :        0.2442521E+05   0.6076113E+05   0.7701246E+05
rotational constants/cm⁻¹ :        0.6901736E-03   0.2774411E-03   0.2188949E-03

 * 136 selected distances

     #   Z          #   Z                                           value/Å
     2   6 C        3   6 C                                       1.3899000
     3   6 C        4   6 C                                       1.4363700
     4   6 C        5   6 C                                       1.3566286
     5   6 C        6   6 C                                       1.4389816
     3   6 C        7   7 N                                       1.3653359
     6   6 C        7   7 N                                       1.3645509
     6   6 C        8   6 C                                       1.3996346
     8   6 C        9   6 C                                       1.3989286
     9   6 C       10   6 C                                       1.4369368
    10   6 C       11   6 C                                       1.3573751
     9   6 C       12   7 N                                       1.3693081
    11   6 C       13   6 C                                       1.4335609
    12   7 N       13   6 C                                       1.3602989
    13   6 C       14   6 C                                       1.4088046
    14   6 C       15   6 C                                       1.4083672
    15   6 C       16   6 C                                       1.4335882
    16   6 C       17   6 C                                       1.3575673
    17   6 C       18   6 C                                       1.4370339
    18   6 C       19   6 C                                       1.3989368
    20   6 C       21   6 C                                       1.3930630
    21   6 C       22   6 C                                       1.3919527
    22   6 C       24   6 C                                       1.3904783
    24   6 C       25   6 C                                       1.3929370
    20   6 C       27   6 C                                       1.3950550
    25   6 C       27   6 C                                       1.3895490
    19   6 C       28   6 C                                       1.3996176
    28   6 C       29   6 C                                       1.4389361
    29   6 C       30   6 C                                       1.3566248
     2   6 C       31   6 C                                       1.3900060
    30   6 C       31   6 C                                       1.4363299
    28   6 C       32   7 N                                       1.3646700
    31   6 C       32   7 N                                       1.3651996
    15   6 C       33   7 N                                       1.3603186
    18   6 C       33   7 N                                       1.3690954
    34   6 C       35   6 C                                       1.3942320
    35   6 C       36   6 C                                       1.3904991
    36   6 C       38   6 C                                       1.3919825
    38   6 C       39   6 C                                       1.3914747
    34   6 C       41   6 C                                       1.3939147
    39   6 C       41   6 C                                       1.3908939
     2   6 C       42   1 H                                       1.0857080
     4   6 C       43   1 H                                       1.0789162
     5   6 C       44   1 H                                       1.0783847
    10   6 C       45   1 H                                       1.0781251 (min)
    11   6 C       46   1 H                                       1.0784449
    16   6 C       47   1 H                                       1.0785379
    17   6 C       48   1 H                                       1.0782112
    21   6 C       49   1 H                                       1.0846411
    23   6 C       50   1 H                                       1.0900344
    23   6 C       51   1 H                                       1.0923906
    23   6 C       52   1 H                                       1.0905611
    24   6 C       53   1 H                                       1.0852343
    26   6 C       54   1 H                                       1.0899602
    26   6 C       55   1 H                                       1.0906824
    26   6 C       56   1 H                                       1.0922677
    27   6 C       57   1 H                                       1.0846430
    29   6 C       58   1 H                                       1.0783590
    30   6 C       59   1 H                                       1.0788845
    35   6 C       60   1 H                                       1.0846128
    37   6 C       61   1 H                                       1.0904032
    37   6 C       62   1 H                                       1.0900977
    37   6 C       63   1 H                                       1.0924661
    38   6 C       64   1 H                                       1.0852388
    40   6 C       65   1 H                                       1.0924642
    40   6 C       66   1 H                                       1.0902411
    40   6 C       67   1 H                                       1.0902262
    41   6 C       68   1 H                                       1.0846088
    70   6 C       71   6 C                                       1.3898767
    71   6 C       72   6 C                                       1.4363950
    72   6 C       73   6 C                                       1.3566126
    73   6 C       74   6 C                                       1.4390014 (max)
    71   6 C       75   7 N                                       1.3653281
    74   6 C       75   7 N                                       1.3645356
    74   6 C       76   6 C                                       1.3996038
    76   6 C       77   6 C                                       1.3989257
    77   6 C       78   6 C                                       1.4369626
    78   6 C       79   6 C                                       1.3573495
    77   6 C       80   7 N                                       1.3692970
    79   6 C       81   6 C                                       1.4336287
    80   7 N       81   6 C                                       1.3602890
    81   6 C       82   6 C                                       1.4087191
    82   6 C       83   6 C                                       1.4084564
    83   6 C       84   6 C                                       1.4335051
    84   6 C       85   6 C                                       1.3575812
    85   6 C       86   6 C                                       1.4369855
    86   6 C       87   6 C                                       1.3989588
    88   6 C       89   6 C                                       1.3930754
    89   6 C       90   6 C                                       1.3919322
    90   6 C       92   6 C                                       1.3904629
    92   6 C       93   6 C                                       1.3929493
    88   6 C       95   6 C                                       1.3950866
    93   6 C       95   6 C                                       1.3895481
    87   6 C       96   6 C                                       1.3996739
    96   6 C       97   6 C                                       1.4389577
    97   6 C       98   6 C                                       1.3566135
    70   6 C       99   6 C                                       1.3900232
    98   6 C       99   6 C                                       1.4363102
    96   6 C      100   7 N                                       1.3646802
    99   6 C      100   7 N                                       1.3651843
    83   6 C      101   7 N                                       1.3602964
    86   6 C      101   7 N                                       1.3691111
   102   6 C      103   6 C                                       1.3942123
   103   6 C      104   6 C                                       1.3904992
   104   6 C      106   6 C                                       1.3919952
   106   6 C      107   6 C                                       1.3914624
   102   6 C      109   6 C                                       1.3939116
   107   6 C      109   6 C                                       1.3908975
    70   6 C      110   1 H                                       1.0857074
    72   6 C      111   1 H                                       1.0789121
    73   6 C      112   1 H                                       1.0783864
    78   6 C      113   1 H                                       1.0781313
    79   6 C      114   1 H                                       1.0784501
    84   6 C      115   1 H                                       1.0785116
    85   6 C      116   1 H                                       1.0781980
    89   6 C      117   1 H                                       1.0846355
    91   6 C      118   1 H                                       1.0900193
    91   6 C      119   1 H                                       1.0923839
    91   6 C      120   1 H                                       1.0905655
    92   6 C      121   1 H                                       1.0852337
    94   6 C      122   1 H                                       1.0899553
    94   6 C      123   1 H                                       1.0906962
    94   6 C      124   1 H                                       1.0922717
    95   6 C      125   1 H                                       1.0846454
    97   6 C      126   1 H                                       1.0783516
    98   6 C      127   1 H                                       1.0788819
   103   6 C      128   1 H                                       1.0846129
   105   6 C      129   1 H                                       1.0904057
   105   6 C      130   1 H                                       1.0900896
   105   6 C      131   1 H                                       1.0924689
   106   6 C      132   1 H                                       1.0852334
   108   6 C      133   1 H                                       1.0924631
   108   6 C      134   1 H                                       1.0902382
   108   6 C      135   1 H                                       1.0902269
   109   6 C      136   1 H                                       1.0846087
   137   6 C      138   6 C                                       1.2215763
   139   6 C      140   6 C                                       1.2215597

 * 3 distinct bonds (by element types)

   Z      Z             #   av. dist./Å        max./Å        min./Å
   1 H    6 C          54     1.0857154     1.0924689     1.0781251
   6 C    6 C          66     1.3952041     1.4390014     1.2215597
   6 C    7 N          16     1.3648437     1.3693081     1.3602890


optimized geometry written to: xtbopt.xyz


           -------------------------------------------------
          | TOTAL ENERGY             -216.869987325086 Eh   |
          | GRADIENT NORM               0.000460764227 Eh/α |
          | HOMO-LUMO GAP               1.157001172948 eV   |
           -------------------------------------------------

------------------------------------------------------------------------
 * finished run on 2022/07/30 at 09:33:51.485     
------------------------------------------------------------------------
 total:
 * wall-time:     0 d,  0 h,  0 min, 46.451 sec
 *  cpu-time:     0 d,  0 h,  0 min, 46.244 sec
 * ratio c/w:     0.996 speedup
 SCF:
 * wall-time:     0 d,  0 h,  0 min,  1.221 sec
 *  cpu-time:     0 d,  0 h,  0 min,  1.216 sec
 * ratio c/w:     0.996 speedup
 ANC optimizer:
 * wall-time:     0 d,  0 h,  0 min, 45.098 sec
 *  cpu-time:     0 d,  0 h,  0 min, 44.902 sec
 * ratio c/w:     0.996 speedup

