140
 energy: -215.787555458469 gnorm: 3.368082665126 xtb: 6.5.1 (b24c23e)
Zn          15.69796200000000       -0.00506400000000       -0.00639600000000
C           12.33927400000000        0.19819600000000       -0.24170700000000
C           13.00359300000000        1.29903300000000        0.11976900000000
C           12.35394400000000        2.54252200000000        0.51721400000000
C           13.29665900000000        3.41836100000000        0.80736700000000
C           14.60238000000000        2.77759400000000        0.60005500000000
N           14.42321400000000        1.42903700000000        0.16698300000000
C           15.79755200000000        3.37310100000000        0.78632800000000
C           17.09286900000000        2.68164000000000        0.55850700000000
C           18.38963900000000        3.36828300000000        0.55940400000000
C           19.32282300000000        2.46531500000000        0.34233700000000
N           17.22573900000000        1.40739200000000        0.34656100000000
C           18.62919600000000        1.19031100000000        0.19904400000000
C           19.22078500000000        0.00020000000000        0.00005700000000
C           18.46221700000000       -1.26627500000000       -0.14105200000000
C           19.01940600000000       -2.47079900000000       -0.12473700000000
C           17.97217000000000       -3.43638200000000       -0.38471200000000
C           16.83800100000000       -2.76205100000000       -0.53951500000000
C           15.53604800000000       -3.38660000000000       -0.89814800000000
C           15.51098200000000       -4.82839400000000       -1.23271400000000
C           15.44450500000000       -5.24144600000000       -2.57097300000000
C           15.43986400000000       -6.60735600000000       -2.89047800000000
C           15.33408200000000       -7.04722600000000       -4.32080400000000
C           15.46767000000000       -7.55939300000000       -1.85952300000000
C           15.52473300000000       -7.15430100000000       -0.51768200000000
C           15.59147800000000       -8.18488800000000        0.57084900000000
C           15.55627100000000       -5.78590500000000       -0.20921200000000
C           14.38290400000000       -2.69220100000000       -0.91200600000000
C           13.06223300000000       -3.23264200000000       -1.23052900000000
C           12.20698000000000       -2.24813700000000       -1.04109100000000
C           12.97066200000000       -1.08019800000000       -0.60548500000000
N           14.24088100000000       -1.32719000000000       -0.52631800000000
N           17.05822000000000       -1.35683600000000       -0.39253200000000
C           15.84708500000000        4.78336600000000        1.23102900000000
C           15.53160200000000        5.81885700000000        0.33924900000000
C           15.57458700000000        7.15513300000000        0.76253600000000
C           15.25444200000000        8.26414900000000       -0.19600600000000
C           15.97522300000000        7.45324400000000        2.07356400000000
C           16.31625100000000        6.42468600000000        2.96460900000000
C           16.69858300000000        6.74545700000000        4.37927000000000
C           16.23513600000000        5.08980000000000        2.54259100000000
H           11.25632300000000        0.23517600000000       -0.25998500000000
H           11.28933000000000        2.72907500000000        0.57659100000000
H           13.11072500000000        4.43104600000000        1.13999700000000
H           18.56956400000000        4.42519200000000        0.70586700000000
H           20.38506000000000        2.66282800000000        0.28759500000000
H           20.06504500000000       -2.70226200000000        0.02544700000000
H           18.10773200000000       -4.50606800000000       -0.47115700000000
H           15.40042100000000       -4.50003800000000       -3.36077900000000
H           15.83658000000000       -8.02698900000000       -4.46836100000000
H           14.26376100000000       -7.14368100000000       -4.59833000000000
H           15.81860600000000       -6.30857100000000       -4.99493600000000
H           15.44653300000000       -8.61585800000000       -2.10101800000000
H           15.42291500000000       -7.72966800000000        1.57116500000000
H           14.81270800000000       -8.95982400000000        0.40737200000000
H           16.59065600000000       -8.66892800000000        0.56167300000000
H           15.61303800000000       -5.46218900000000        0.82421000000000
H           12.80838300000000       -4.23599600000000       -1.54562700000000
H           11.13538000000000       -2.30964900000000       -1.17826000000000
H           15.24757600000000        5.58335400000000       -0.67978500000000
H           14.76554000000000        9.10800200000000        0.33602700000000
H           14.56325100000000        7.91226100000000       -0.99094900000000
H           16.19172300000000        8.62781500000000       -0.66594100000000
H           16.02103900000000        8.48606000000000        2.39964100000000
H           15.78912100000000        6.75268800000000        5.01428300000000
H           17.18871100000000        7.74034500000000        4.43782000000000
H           17.40990499999999        5.98825100000000        4.77408300000000
H           16.47719800000000        4.28885600000000        3.23150500000000
Zn          28.69966200000000        0.00786400000000        0.00331700000000
C           32.05835100000000        0.17729300000000       -0.25741200000000
C           31.39403100000000       -0.47632800000000       -1.21411700000000
C           32.04368100000000       -1.20420600000000       -2.29782400000000
C           31.10096600000000       -1.72669200000000       -3.05827900000000
C           29.79524500000000       -1.34920800000000       -2.50054600000000
N           29.97441000000000       -0.55786400000000       -1.32584100000000
C           28.60007200000000       -1.69388600000000       -3.02066500000000
C           27.30475600000000       -1.28259200000000       -2.41995000000000
C           26.00798500000000       -1.47458900000000       -3.07920400000000
C           25.07480200000000       -1.01474800000000       -2.27234800000000
N           27.17188500000000       -0.72431900000000       -1.25506300000000
C           25.76842800000000       -0.52220600000000       -1.08762600000000
C           25.17683900000000        0.00020000000000        0.00005700000000
C           25.93540800000000        0.48827200000000        1.17719600000000
C           25.37821900000000        0.80789700000000        2.33865400000000
C           26.42545500000000        1.32638000000000        3.19370600000000
C           27.55962400000000        1.28735500000000        2.50293500000000
C           28.86157700000000        1.80566500000000        3.00297000000000
C           28.88664300000000        2.52834900000000        4.29464700000000
C           28.95311900000000        3.92869400000000        4.31885200000000
C           28.95776100000000        4.61578900000000        5.54183700000000
C           29.06354300000000        6.11202700000000        5.56617100000000
C           28.92995500000000        3.89059400000000        6.74322500000000
C           28.87289200000000        2.48902600000000        6.72766300000000
C           28.80614700000000        1.73039500000000        8.02052400000000
C           28.84135400000000        1.81183600000000        5.49921900000000
C           30.01472100000000        1.62568000000000        2.33215800000000
C           31.33539100000000        2.08205200000000        2.76257400000000
C           32.19064500000000        1.62605200000000        1.86971300000000
C           31.42696200000000        0.88255200000000        0.86919300000000
N           30.15674400000000        0.87526700000000        1.12846000000000
N           27.33940399999999        0.75502200000000        1.19417500000000
C           28.55054000000000       -2.51357600000000       -4.25140200000000
C           28.86602299999999       -1.94528500000000       -5.49420500000000
C           28.82303800000000       -2.72381300000000       -6.65983800000000
C           29.14318200000000       -2.11186500000000       -7.99184300000000
C           28.42240100000000       -4.06600600000000       -6.58122400000000
C           28.08137300000000       -4.63552200000000       -5.34528500000000
C           27.69904200000000       -6.08356000000000       -5.25958800000000
C           28.16248900000000       -3.85860000000000       -4.18063400000000
H           33.14130200000000        0.18455600000000       -0.29801800000000
H           33.10829500000000       -1.31316500000000       -2.46047500000000
H           31.28689900000000       -2.32806900000000       -3.93834700000000
H           25.82806100000000       -1.90946800000000       -4.05357000000000
H           24.01256400000000       -1.01715100000000       -2.47729300000000
H           24.33258000000000        0.72808000000000        2.60277400000000
H           26.28989300000000        1.70716800000000        4.19705000000000
H           28.99720400000000        4.48090300000000        3.38689400000000
H           28.56104400000000        6.52648100000000        6.46613600000000
H           30.13386400000000        6.40543300000000        5.58156100000000
H           28.57901900000000        6.55389900000000        4.66905800000000
H           28.95109100000000        4.41662500000000        7.69071100000000
H           28.97471000000000        0.64289900000000        7.86174800000000
H           29.58491700000000        2.10312400000000        8.71932600000000
H           27.80696800000000        1.87394700000000        8.48287800000000
H           28.78458700000000        0.72914900000000        5.47596400000000
H           31.58924200000000        2.66399300000000        3.63856000000000
H           33.26224500000000        1.77492200000000        1.89061100000000
H           29.15004900000000       -0.90097200000000       -5.55167100000000
H           29.63208500000000       -2.85776800000000       -8.65424600000000
H           29.83437400000000       -1.25038900000000       -7.87514600000000
H           28.20590100000000       -1.76173500000000       -8.47194900000000
H           28.37658500000000       -4.66669400000000       -7.48245100000000
H           28.60850300000000       -6.69548700000000       -5.08976900000000
H           27.20891400000000       -6.41673600000000       -6.19885600000000
H           26.98772000000000       -6.25199000000000       -4.42240900000000
H           27.92042600000000       -4.29733200000000       -3.21957800000000
C           21.46332100000000        0.01237100000000        0.00242300000000
C           20.21105100000000       -0.00681000000000       -0.00192500000000
C           22.77698900000000        0.01160500000000        0.00435600000000
C           24.28012300000000       -0.00681000000000       -0.00192500000000
140
 energy: -216.668535875001 gnorm: 0.552930722995 xtb: 6.5.1 (b24c23e)
Zn          15.69896742955055       -0.00475741045989       -0.00694290106664
C           12.33964830252573        0.18954671824883       -0.24448211582553
C           13.00841911891811        1.30124615811191        0.12063976546629
C           12.35266190105409        2.53940628634254        0.51613514892990
C           13.30111068447207        3.42004378350533        0.80782551078419
C           14.60009159436839        2.77404966554882        0.59913976876136
N           14.41389197411277        1.43737771790032        0.16985502207601
C           15.80489495029050        3.37163444792890        0.78574532746400
C           17.08908544267322        2.69298459390708        0.56104187648239
C           18.38186093480410        3.37377001215792        0.56112137091230
C           19.32285977648682        2.45867071366965        0.34105152908931
N           17.22910913110491        1.40775854060714        0.34497683983314
C           18.60435627897919        1.20728357426180        0.20273981495109
C           19.11316327864515       -0.00643803682622        0.00055998959848
C           18.44001090982800       -1.26730825885064       -0.14333775708595
C           19.01955693714654       -2.48114431122898       -0.12580085647688
C           17.98257556425206       -3.43817479528864       -0.38350834537869
C           16.82976906681631       -2.75662257940744       -0.54104214754251
C           15.54198067567372       -3.38329306910610       -0.89649566227754
C           15.51233971396423       -4.82949889052290       -1.23291577719130
C           15.44460280777332       -5.24286967581178       -2.56959543672616
C           15.43914930438720       -6.60692803781876       -2.88861258554182
C           15.33479685005141       -7.04762548079525       -4.32227148418511
C           15.46780726627720       -7.55701484637152       -1.85909548047208
C           15.52502369253988       -7.15280860691393       -0.51878137971598
C           15.59102560478048       -8.18574639455037        0.57211162334851
C           15.55640202529295       -5.78676994488054       -0.21097104122085
C           14.38143080681868       -2.69128105486923       -0.91186994731790
C           13.06626806807541       -3.23411213653968       -1.23042100590549
C           12.20299775772795       -2.24307444968109       -1.04003783810581
C           12.96163594348363       -1.07508782941052       -0.60424375580739
N           14.24172345848427       -1.33268023434538       -0.52832090942434
N           17.06011470770724       -1.36320868606788       -0.39225870030742
C           15.84825433718599        4.78493052304720        1.23119899978221
C           15.53160879297772        5.81959629674003        0.34120862889839
C           15.57550796155413        7.15385120627878        0.76348141992732
C           15.25342918613812        8.26518994668184       -0.19674073812126
C           15.97510938608670        7.45103608882431        2.07289337328169
C           16.31504785502719        6.42433505734805        2.96314334551843
C           16.69977993529138        6.74578481893482        4.38044901062193
C           16.23516738389857        5.09152907076662        2.54147027710105
H           11.25641503207347        0.23422275578365       -0.26042403911821
H           11.28929184529464        2.72734215975994        0.57599436399039
H           13.11286240261745        4.43126569445497        1.14005592220580
H           18.56787792786267        4.42594400944016        0.70624163143768
H           20.38476144617848        2.66012135936282        0.28715043726758
H           20.06509972435235       -2.70255546407070        0.02558808193426
H           18.10867251820349       -4.50613227858042       -0.47081470722839
H           15.40060921042339       -4.50029997401911       -3.36042029611341
H           15.83497449751370       -8.02484077921623       -4.46816719715907
H           14.26637251215357       -7.14361376738469       -4.59823018110743
H           15.81702127697278       -6.31029178452958       -4.99355842986264
H           15.44660819215164       -8.61545376145035       -2.10095076979384
H           15.42357541297086       -7.73083892759628        1.56865173218568
H           14.81486575856156       -8.95845456942123        0.40791953269183
H           16.58814829829679       -8.66820762888357        0.56202706697857
H           15.61294839118137       -5.46235094214195        0.82376098841157
H           12.81042122274570       -4.23606560510133       -1.54550427821048
H           11.13483127469739       -2.30817708352812       -1.17794125574880
H           15.24761508301727        5.58334716163611       -0.67938545423456
H           14.76702186548590        9.10633977553418        0.33457453356306
H           14.56518899659868        7.91319620197962       -0.98936764101648
H           16.18930465238847        8.62738605463592       -0.66517217353175
H           16.02105093232863        8.48567383672345        2.39953123822212
H           15.79145672365581        6.75278688711023        5.01333407421298
H           17.18725335887898        7.73815653801175        4.43798604313849
H           17.40790078630729        5.98998895139221        4.77349387253565
H           16.47719678490110        4.28910225080439        3.23119909486930
Zn          28.69893298393325        0.00825007495720        0.00278303055217
C           32.05800533127638        0.18242029516155       -0.24979553411291
C           31.38914346184406       -0.47781674539630       -1.21601822604953
C           32.04495107942330       -1.20229419219140       -2.29512019536170
C           31.09648173820677       -1.72762211177604       -3.05975639387039
C           29.79748233184185       -1.34743881675250       -2.49757053410499
N           29.98376216174694       -0.56283660788299       -1.33294162996038
C           28.59291098842321       -1.69289038487130       -3.01949842526468
C           27.30826731147875       -1.28856802564312       -2.43083845926931
C           26.01635634159025       -1.47793135779294       -3.08412481672755
C           25.07486859512758       -1.01135401143672       -2.26543703101444
N           27.16932826804549       -0.72350581508971       -1.25595682712555
C           25.79958882329039       -0.53170662460556       -1.10670164357979
C           25.33003268188814        0.00349180429759        0.00700578142226
C           25.96359520008467        0.49175585081699        1.18094678576115
C           25.37801474276923        0.81165985499038        2.34781648714597
C           26.41532559272504        1.32577109574592        3.19576178261315
C           27.56763089457284        1.28739514326616        2.49750823151839
C           28.85595469169648        1.80321832411865        3.00027597109154
C           28.88527555339816        2.52885516740761        4.29567563676132
C           28.95301953357679        3.92776967236768        4.32059551244009
C           28.95848060888102        4.61388997227924        5.54195208041193
C           29.06282611709121        6.11354554899627        5.56614460328570
C           28.92981741382719        3.88951943493948        6.74105580075658
C           28.87260054121863        2.48966567093811        6.72593983213131
C           28.80660083386352        1.72941973926276        8.02169694300409
C           28.84121642316252        1.81375849650918        5.49956400331648
C           30.01606551220873        1.62531150473108        2.33140827583732
C           31.33143841686869        2.08236670831072        2.76400573825646
C           32.19460294343256        1.62367311043826        1.86521339760214
C           31.43597813086110        0.87987516887293        0.86455097235533
N           30.15582826018296        0.87866828933768        1.13308727364945
N           27.33844163942255        0.75700226871966        1.20064684682366
C           28.54936543009572       -2.51416490610621       -4.25287284500069
C           28.86601938154459       -1.94736659335364       -5.49436974018496
C           28.82211680303922       -2.72436434987224       -6.65835365016322
C           29.14419590689848       -2.11144879773820       -7.99304490831385
C           28.42251510342600       -4.06474469751212       -6.57928588126471
C           28.08258006089537       -4.63402631335577       -5.34535805558833
C           27.69784370177073       -6.08478095488341       -5.25957321651221
C           28.16245244264737       -3.85799933405473       -4.18259599073998
H           33.14120729318086        0.18525208279343       -0.29722115794186
H           33.10832562633269       -1.31210359728568       -2.45897342237432
H           31.28475964914697       -2.32818365660227       -3.93853770112348
H           25.82974959283950       -1.90999137710748       -4.05417499738054
H           24.01285197760707       -1.01583344773687       -2.47454862743674
H           24.33247231742644        0.72794097600591        2.60284853954247
H           26.28892907694877        1.70682466888528        4.19716957461815
H           28.99701620294450        4.48063141044610        3.38724360851147
H           28.56265116415948        6.52569288504329        6.46412410611786
H           30.13125012262482        6.40531503218991        5.58152436122708
H           28.58060447730859        6.55305384708997        4.67109476650882
H           28.95101515723339        4.41644501040968        7.69033628299086
H           28.97404931268427        0.64563980792414        7.86217285110115
H           29.58275676039647        2.10221763516030        8.71815917500695
H           27.80947854494809        1.87340806814302        8.48228131746778
H           28.78467829642126        0.72962266744221        5.47599591085444
H           31.58720810424337        2.66389404770592        3.63865911513289
H           33.26278369759708        1.77420736453116        1.88929127728710
H           29.15000913863842       -0.90135233871616       -5.55155362429173
H           29.63060120996571       -2.85590959706452       -8.65305069542737
H           29.83243529221926       -1.25216849226295       -7.87560368323183
H           28.20832060499118       -1.76235594902485       -8.47131999237612
H           28.37657246097045       -4.66647814999456       -7.48210654243236
H           28.60616666033325       -6.69460019149740       -5.09012858756791
H           27.21037372914250       -6.41628291697553       -6.19670542775930
H           26.98972516554608       -6.25190713426721       -4.42424297884491
H           27.92042650784071       -4.29710748702651       -3.21989768463626
C           21.50584810628857        0.01119820699884        0.00178960557433
C           20.31883668367733       -0.01371976644441       -0.00436640289111
C           22.77232920332588        0.01252840958981        0.00490813573912
C           24.07403095969975       -0.00387613627373        0.00442194785685
140
 energy: -216.773122030178 gnorm: 0.295803174110 xtb: 6.5.1 (b24c23e)
Zn          15.69489597912385        0.00147777288868       -0.01385478379659
C           12.33916829939803        0.17278456425490       -0.25017248951243
C           13.00956350485207        1.30102924943551        0.12197853788360
C           12.35298288211618        2.53310763983831        0.51382351015898
C           13.31074627516112        3.42229745377371        0.80843699406846
C           14.59760189754813        2.77366253680937        0.60074075523688
N           14.38893674470178        1.46011821647610        0.18077099158927
C           15.81552667513261        3.37642694799228        0.78528811922641
C           17.07385136522466        2.72735151725669        0.57057803360636
C           18.36361952360440        3.39250535551169        0.56866265611228
C           19.30449903905726        2.45608641229203        0.34184519984930
N           17.21917205706583        1.43123538335900        0.34206516975953
C           18.56975130201306        1.22185587802356        0.20463721545090
C           19.06948174018335       -0.02734626641500        0.00021581256405
C           18.40325539785472       -1.27408352714030       -0.14904918153756
C           19.01284103293487       -2.50825173694680       -0.13394666080269
C           18.00250092848381       -3.44732694595072       -0.38596545540864
C           16.81886471590932       -2.75650202276843       -0.54561938826717
C           15.55712703052965       -3.37486967367922       -0.89330126426392
C           15.52459820842616       -4.82812878493404       -1.23188144785267
C           15.44629328240519       -5.24444970715120       -2.56399519402031
C           15.43433001272375       -6.60419735109843       -2.88315384622819
C           15.33688575399169       -7.04661700984103       -4.32037381067860
C           15.46830897270893       -7.54967473901695       -1.85729091680040
C           15.52709423083844       -7.14795714943727       -0.52120364008000
C           15.58934097506973       -8.18409178783841        0.57112534055032
C           15.55991070224907       -5.78681501363611       -0.21542171304865
C           14.37935756949844       -2.68896971735246       -0.91131482539270
C           13.07168932798729       -3.23003027683252       -1.22790057515642
C           12.19041870007069       -2.23281183305995       -1.03740250993887
C           12.93826455217244       -1.06970677102688       -0.60184129819433
N           14.23285639060751       -1.34410297153777       -0.53625568278352
N           17.04801589288592       -1.38624576902637       -0.38918500601902
C           15.85496938127084        4.79144752597519        1.23058988578051
C           15.53068937977298        5.82226248421556        0.34641537746074
C           15.57882765560012        7.15158106575482        0.76522244275575
C           15.25176155589980        8.26446376597490       -0.19542112338524
C           15.97453884059314        7.44543097929504        2.07119787058924
C           16.30986042524444        6.42385143840236        2.96081148463775
C           16.70145875236161        6.74580648736470        4.37891259308996
C           16.23748991350621        5.09671357319065        2.53785416944230
H           11.25645762152463        0.22480669176349       -0.26527311346348
H           11.28927342994009        2.71412860940655        0.57110537209911
H           13.13020370120909        4.43372597658946        1.14052843978186
H           18.55555621098969        4.44021541064130        0.71052917735123
H           20.37149963750644        2.64049975415851        0.28429100665414
H           20.06151388108667       -2.70957085855215        0.02544571579416
H           18.11966457410392       -4.51335854802968       -0.46796357539508
H           15.40277224479804       -4.50266314918946       -3.35627066896449
H           15.82788738793594       -8.01710628560773       -4.46708943268960
H           14.27831144979149       -7.14375240661081       -4.59966737564502
H           15.81006624366718       -6.31610331218844       -4.98868997848632
H           15.44742404191416       -8.60942474457206       -2.09967483482806
H           15.42660286568479       -7.73471145370807        1.55901950867025
H           14.82388772011963       -8.95434716946934        0.41022708954620
H           16.57678577871226       -8.66632083097780        0.56450769020900
H           15.61262174369875       -5.46361263989104        0.81995365697415
H           12.82665716827940       -4.23415718520155       -1.54400992283457
H           11.12516656385220       -2.29758585917079       -1.17625347756193
H           15.24776467172014        5.58407862084906       -0.67479866066741
H           14.77339930520847        9.10131340250965        0.32889445274060
H           14.57319180759731        7.91663615703786       -0.98425322736181
H           16.17787404681210        8.62693893035167       -0.66289977775042
H           16.02108663824062        8.48090956975466        2.39807336039092
H           15.80271946564997        6.75362743525332        5.01100373999403
H           17.18096542858277        7.73071905745404        4.43915379464547
H           17.39971820452832        5.99596189083117        4.77201409872146
H           16.47755740368592        4.29256930787870        3.22759977450910
Zn          28.70020860761104        0.01338190814574       -0.00536939206748
C           32.05836897232888        0.19253252735533       -0.23527864233826
C           31.38774581545370       -0.47898222286898       -1.21530582753949
C           32.04435261941953       -1.19828333160075       -2.28961874021437
C           31.08642147213630       -1.72870935530064       -3.06160734844413
C           29.79938251866690       -1.34865583318236       -2.49624506451915
N           30.00822929255773       -0.57955404778906       -1.35127707419287
C           28.58088606657719       -1.69335302096625       -3.02301858125557
C           27.32077978191572       -1.30602893574857       -2.45929983614053
C           26.03268962461848       -1.49024960134357       -3.10001037800469
C           25.08796661790723       -1.01315074276858       -2.26634209036511
N           27.16841351936294       -0.72417042251066       -1.27829829831440
C           25.81104958388950       -0.53715702599409       -1.11784421389874
C           25.32160241011500        0.01117713456325        0.02800610829094
C           25.98342454474220        0.50088221104758        1.18277743297322
C           25.38071153331586        0.82775777515806        2.37422652302433
C           26.39430237352024        1.33051049386363        3.20363652104002
C           27.57720133706566        1.29116560045195        2.49468461389138
C           28.83989275210574        1.79747086844740        2.99249518633513
C           28.87282464325719        2.52732018597541        4.29437392015009
C           28.95130247557645        3.92273030801766        4.32361406574273
C           28.96328600415472        4.60782495374351        5.54080595015466
C           29.06073736421576        6.11141030145969        5.56570425982212
C           28.92930731243858        3.88571985286174        6.73448853895885
C           28.87051647667554        2.49061979672761        6.72053835323768
C           28.80827741388110        1.72990578682324        8.01981751155659
C           28.83767787606950        1.81802340204018        5.49826185376052
C           30.01783321706218        1.62393040158410        2.32903998523659
C           31.32572645995810        2.07868953190055        2.76072136160807
C           32.20701587189520        1.61817701676018        1.85601422174642
C           31.45913708945968        0.87599079111446        0.86000431271102
N           30.16431969543853        0.88928832902312        1.14159302557573
N           27.34292962871420        0.75870143847091        1.22265705529131