140
 energy: -216.869987325086 gnorm: 0.000460764227 xtb: 6.5.1 (b24c23e)
Zn          15.47029583171391        0.01202338236789       -0.02024886377623
C           12.07090952897078        0.16793181554914       -0.26726980558323
C           12.71953965914184        1.34213493440918        0.09652636209282
C           12.06777489266545        2.58575367081837        0.39946774406798
C           13.03902245516245        3.47280344390051        0.73152450125287
C           14.29801355584128        2.78375641218466        0.62748963216987
N           14.06826956954329        1.49436311191517        0.24449946458121
C           15.55279708185426        3.33698817034287        0.90754223408416
C           16.77587653901935        2.66124899820059        0.84080333643640
C           18.06346073730242        3.25175837615480        1.08207640379219
C           18.99232656563287        2.28200318929680        0.88396033844970
N           16.94794547576873        1.34739719094000        0.49556442873963
C           18.28391016862323        1.09190983270913        0.51393261902110
C           18.89518973603385       -0.13555294094691        0.19081891274154
C           18.22522404479928       -1.31380867238739       -0.19174784374608
C           18.87218023100417       -2.54909593279316       -0.52444571355259
C           17.89422423949047       -3.43993598249520       -0.82939597857389
C           16.63820704793465       -2.75738083452089       -0.68240878040856
C           15.38032361149275       -3.32078939101314       -0.92183303199406
C           15.34340053082641       -4.75877723179851       -1.29273892158640
C           14.86768357905522       -5.15534745178147       -2.54055688582797
C           14.83811659136406       -6.50221279045651       -2.89071633935231
C           14.31301069776739       -6.91812162206590       -4.23860585086905
C           15.28141103484264       -7.45361255154564       -1.97870861291659
C           15.75598781585894       -7.07321455780543       -0.72557364640474
C           16.24560245236978       -8.11471308410606        0.24429815970126
C           15.78795905834343       -5.72513952641141       -0.39013726519378
C           14.15562207104634       -2.64819076737753       -0.84030834937356
C           12.86158902707802       -3.23932654625620       -1.05611794235595
C           11.93896475087095       -2.26083249056652       -0.87794864514621
C           12.65611282368387       -1.06272974832341       -0.54136023537662
N           13.99459071395487       -1.33085300235221       -0.52248149719492
N           16.87768706515342       -1.46453838071942       -0.30079416669564
C           15.59326626772042        4.76785623086097        1.30429665671043
C           15.18060324969235        5.75679875208191        0.41234128707323
C           15.22830024484869        7.09871258960282        0.77356098323899
C           14.81034682333092        8.16496106469009       -0.20301260533053
C           15.68979970039439        7.44873500527336        2.03930874636468
C           16.10228311099062        6.47327508005169        2.94182564259336
C           16.57882139778407        6.85957965154292        4.31618970850318
C           16.05250542873442        5.13439549195847        2.56831646407987
H           10.98820439925793        0.21393346054669       -0.33356476076697
H           11.00140368211452        2.74632895959400        0.36588285685211
H           12.91818591270751        4.50143279709453        1.03191334989773
H           18.23409703064783        4.28077993978468        1.35475081980472
H           20.06431601611455        2.35985180639558        0.97239900022631
H           19.93925884030434       -2.70589304306479       -0.52571817572254
H           18.01082349995017       -4.46598631411166       -1.13950006206172
H           14.53540788710398       -4.40406855459421       -3.24880749894967
H           14.65536506721374       -7.91971844940934       -4.49893631209473
H           13.22068282508082       -6.92166036706994       -4.22745751162326
H           14.63978754537190       -6.22153665142547       -5.01146387870081
H           15.25863385405029       -8.50534976878544       -2.24528565339500
H           16.31481088145933       -7.70685463701279        1.25270020200189
H           15.57510241329908       -8.97485903074835        0.25720126083730
H           17.23676200878114       -8.46413222910107       -0.05328805778198
H           16.14586311794739       -5.41612286270668        0.58601007952871
H           12.68636363826646       -4.27451106383662       -1.30218109377841
H           10.86550277744444       -2.33418683258864       -0.95725833074202
H           14.83737487163412        5.47264030082696       -0.57651310079975
H           14.33090974502501        8.99709139824664        0.31339636072607
H           14.11943609220444        7.76419498443962       -0.94486276069902
H           15.68701163968950        8.55201983506347       -0.72753735313770
H           15.72942865940408        8.49498041188748        2.32486642284288
H           15.73301383261539        6.89349881219462        5.00679593647704
H           17.04545398048718        7.84482232481334        4.30290694212811
H           17.29765780157587        6.13319950415440        4.69597776654472
H           16.36049417642662        4.36439978309892        3.26733408767729
Zn          28.92666222639158        0.01649399966439       -0.01715215928547
C           32.32575814223897        0.21506863491506       -0.23547402053976
C           31.67823937296254       -0.46357859014758       -1.26110270748895
C           32.33107503085167       -1.10148844762734       -2.37020446586041
C           31.36067233227697       -1.66903793334635       -3.12954861648712
C           30.10111253441248       -1.37731057580882       -2.49778210263101
N           30.32973780572306       -0.64952266938835       -1.36640579275042
C           28.84678596783327       -1.80021508206970       -2.95243251135187
C           27.62304064337804       -1.54738054326898       -2.32353288847820
C           26.33579619494389       -1.94234636995457       -2.82539428262266
C           25.40617868526869       -1.48220069526955       -1.94990902764074
N           27.45001953360267       -0.85069233622859       -1.15748698095675
C           26.11382046651464       -0.79682050655306       -0.90837741230197
C           25.50166420372541       -0.14640325872959        0.18098531613475
C           26.17086184331654        0.54782707102530        1.20761462743581
C           25.52301978487365        1.20943198223489        2.30192546890898
C           26.50026599888546        1.75048915943498        3.07346504690761
C           27.75671736091426        1.42107790581007        2.45885530875008
C           29.01403858050073        1.80958434932735        2.93350409271522
C           29.05014648914411        2.56619919247111        4.21126803655066
C           29.52795248974332        3.87434088455650        4.24481454891215
C           29.55818977005352        4.58578764249737        5.44080953733964
C           30.08655087384745        5.99493479806088        5.46495999525173
C           29.11280996081662        3.97582634381089        6.60827289542539
C           28.63557602235962        2.66728501003430        6.59169967385595
C           28.14361584291778        2.02721146325898        7.86190365254109
C           28.60347518164772        1.96944500162091        5.39052008151558
C           30.23913858516389        1.54646020707793        2.30981969490495
C           31.53264030638588        1.92095714320692        2.81697283214155
C           32.45580152302844        1.47955562476244        1.92627764118782
C           31.73960372761835        0.82087874972118        0.86977769311502
N           30.40112831366535        0.87461563251277        1.13307169619208
N           27.51822997645342        0.69537338185464        1.32265921057049
C           28.80710392503043       -2.57978843180731       -4.21625127009861
C           29.21886284173272       -1.99820549789173       -5.41460154447580
C           29.17004657705376       -2.71851285097617       -6.60298781512443
C           29.58563993823345       -2.07692412224333       -7.89948536713999
C           28.70902622301817       -4.03184505649292       -6.58658795604061
C           28.29800971433756       -4.62750915584374       -5.39813643969099
C           27.82200576708487       -6.05525448385919       -5.38615733818017
C           28.34836058355307       -3.89604973818507       -4.21617727881958
H           33.40836395310216        0.26782437530087       -0.29825780105141
H           33.39754869434419       -1.11317858073274       -2.53314126049043
H           31.48227045406107       -2.24488777814262       -4.03316790083509
H           26.16597558569751       -2.48987641242161       -3.73848727021458
H           24.33414459774688       -1.58780337824295       -2.00134149742705
H           24.45588774970848        1.25323651041929        2.45191688546646
H           26.38281674691874        2.33311671634038        3.97305467976848
H           29.86156943414490        4.34463386864484        3.32614253396494
H           29.74835178287859        6.52357137936069        6.35619883462484
H           31.17886257991497        5.98269947118033        5.46774780572140
H           29.75810817888621        6.54504509636258        4.58244261128030
H           29.13611399855444        4.52475099495294        7.54415246745998
H           28.07156724870306        0.94529763221436        7.75111602374033
H           28.81435661754672        2.25267253895519        8.69189883943275
H           27.15337442611988        2.41301867425030        8.11415727930462
H           28.24393155981868        0.94643057104591        5.36551519991460
H           31.70728304464368        2.44574426620858        3.74268356442532
H           33.52904942720360        1.57876544216783        1.97405106711002
H           29.56197747324575       -0.96929800554893       -5.41716571577674
H           30.06668268197278       -2.80361407474861       -8.55485089391032
H           30.27433514617308       -1.25079432388716       -7.72199312773125
H           28.70754090013093       -1.68367975082664       -8.41696862715175
H           28.66851555391942       -4.59711886684121       -7.51209087901555
H           28.66795962562742       -6.72760852679738       -5.22560384976688
H           27.35600993061301       -6.31745548126003       -6.33627182808487
H           27.10277440038776       -6.21764184561783       -4.58308136262754
H           28.04094840681482       -4.35311790738391       -3.28185279113075
C           21.52290334227866       -0.18998580475672        0.25404666084676
C           20.30156994029882       -0.17738089217051        0.23321157376055
C           22.87398185747918       -0.19177622357465        0.25192233430162
C           24.09529571541418       -0.17625891934627        0.23295919198842
