      -----------------------------------------------------------      
     |                   =====================                   |     
     |                           x T B                           |     
     |                   =====================                   |     
     |                         S. Grimme                         |     
     |          Mulliken Center for Theoretical Chemistry        |     
     |                    University of Bonn                     |     
      -----------------------------------------------------------      

   * xtb version 6.5.1 (b24c23e) compiled by 'conda@728c89f4b128' on 2022-07-12

   xtb is free software: you can redistribute it and/or modify it under
   the terms of the GNU Lesser General Public License as published by
   the Free Software Foundation, either version 3 of the License, or
   (at your option) any later version.
   
   xtb is distributed in the hope that it will be useful,
   but WITHOUT ANY WARRANTY; without even the implied warranty of
   MERCHANTABILITY or FITNESS FOR A PARTICULAR PURPOSE.  See the
   GNU Lesser General Public License for more details.
   
   Cite this work as:
   * C. Bannwarth, E. Caldeweyher, S. Ehlert, A. Hansen, P. Pracht,
     J. Seibert, S. Spicher, S. Grimme, WIREs Comput. Mol. Sci., 2020, 11,
     e01493. DOI: 10.1002/wcms.1493
   
   for GFN2-xTB:
   * C. Bannwarth, S. Ehlert and S. Grimme., J. Chem. Theory Comput., 2019,
     15, 1652-1671. DOI: 10.1021/acs.jctc.8b01176
   for GFN1-xTB:
   * S. Grimme, C. Bannwarth, P. Shushkov, J. Chem. Theory Comput., 2017,
     13, 1989-2009. DOI: 10.1021/acs.jctc.7b00118
   for GFN0-xTB:
   * P. Pracht, E. Caldeweyher, S. Ehlert, S. Grimme, ChemRxiv, 2019, preprint.
     DOI: 10.26434/chemrxiv.8326202.v1
   for GFN-FF:
   * S. Spicher and S. Grimme, Angew. Chem. Int. Ed., 2020, 59, 15665-15673.
     DOI: 10.1002/anie.202004239
   
   for ALPB and GBSA implicit solvation:
   * S. Ehlert, M. Stahn, S. Spicher, S. Grimme, J. Chem. Theory Comput.,
     2021, 17, 4250-4261. DOI: 10.1021/acs.jctc.1c00471
   
   for DFT-D4:
   * E. Caldeweyher, C. Bannwarth and S. Grimme, J. Chem. Phys., 2017,
     147, 034112. DOI: 10.1063/1.4993215
   * E. Caldeweyher, S. Ehlert, A. Hansen, H. Neugebauer, S. Spicher,
     C. Bannwarth and S. Grimme, J. Chem. Phys., 2019, 150, 154122.
     DOI: 10.1063/1.5090222
   * E. Caldeweyher, J.-M. Mewes, S. Ehlert and S. Grimme, Phys. Chem. Chem. Phys.
     2020, 22, 8499-8512. DOI: 10.1039/D0CP00502A
   
   for sTDA-xTB:
   * S. Grimme and C. Bannwarth, J. Chem. Phys., 2016, 145, 054103.
     DOI: 10.1063/1.4959605
   
   in the mass-spec context:
   * V. Asgeirsson, C. Bauer and S. Grimme, Chem. Sci., 2017, 8, 4879.
     DOI: 10.1039/c7sc00601b
   * J. Koopman and S. Grimme, ACS Omega 2019, 4, 12, 15120-15133.
     DOI: 10.1021/acsomega.9b02011
   
   for metadynamics refer to:
   * S. Grimme, J. Chem. Theory Comput., 2019, 155, 2847-2862
     DOI: 10.1021/acs.jctc.9b00143
   
   for SPH calculations refer to:
   * S. Spicher and S. Grimme, J. Chem. Theory Comput., 2021, 17, 1701-1714
     DOI: 10.1021/acs.jctc.0c01306
   
   with help from (in alphabetical order)
   P. Atkinson, C. Bannwarth, F. Bohle, G. Brandenburg, E. Caldeweyher
   M. Checinski, S. Dohm, S. Ehlert, S. Ehrlich, I. Gerasimov, C. Hölzer
   A. Katbashev, J. Koopman, C. Lavigne, S. Lehtola, F. März, M. Müller,
   F. Musil, H. Neugebauer, J. Pisarek, C. Plett, P. Pracht, F. Pultar,
   J. Seibert, P. Shushkov, S. Spicher, M. Stahn, M. Steiner, T. Strunk,
   J. Stückrath, T. Rose, and J. Unsleber
   
 * started run on 2022/07/27 at 03:59:17.368     

           -------------------------------------------------
          |                Calculation Setup                |
           -------------------------------------------------

          program call               : xtb Py_C2_8.xyz --gfn 1 --opt -T 48
          hostname                   : cx3-6-14.cx3.hpc.ic.ac.uk
          coordinate file            : Py_C2_8.xyz
          omp threads                :                     1

   ID    Z sym.   atoms
    1    6 C      1-5, 7-10, 12-16, 18-23, 25-28, 30-35, 56-60, 62-65, 67-71,
                  73-78, 80-83, 85-90, 111-129, 131-134, 136-140, 142-147,
                  149-152, 154-159, 179-183, 185-188, 190-194, 196-201,
                  203-206, 208-213, 233-237, 239-242, 244-248, 250-255,
                  257-260, 262-267, 287-291, 293-296, 298-302, 304-309,
                  311-314, 316-321, 341-345, 347-350, 352-356, 358-363,
                  365-368, 370-375, 395-399, 401-404, 406-410, 412-417,
                  419-422, 424-429
    2    7 N      6, 11, 17, 24, 29, 36, 61, 66, 72, 79, 84, 91, 130, 135,
                  141, 148, 153, 160, 184, 189, 195, 202, 207, 214, 238, 243,
                  249, 256, 261, 268, 292, 297, 303, 310, 315, 322, 346, 351,
                  357, 364, 369, 376, 400, 405, 411, 418, 423, 430
    3    1 H      37-55, 92-110, 161-178, 215-232, 269-286, 323-340, 377-394,
                  431-448

molecular fragmentation (1/2 indicates fragments):
111111111111111111111111111111111111111111111111111111122222222222222222
222222222222222222222222222222222222222222222222222222222222222222222222
222222222222222222222222222222222222222222222222222222222222222222222222
222222222222222222222222222222222222222222222222222222222222222222222222
222222222222222222222222222222222222222222222222222222222222222222222222
222222222222222222222222222222222222222222222222222222222222222222222222
2222222222222222
# atoms in fragment 1/2:    55   393
 fragment masses (1/2) :      463.51     3406.69
CMA distance (Bohr)    :  86.855
constraining FC (au)   :  0.0500
########################################################################
[WARNING] Please study the warnings concerning your input carefully
-1- prog_main_parseArguments: Unknown option '-T' provided
########################################################################

           -------------------------------------------------
          |                 G F N 1 - x T B                 |
           -------------------------------------------------

        Reference                      10.1021/acs.jctc.7b00118
      * Hamiltonian:
        H0-scaling (s, p, d)           1.850000    2.250000    2.000000
        zeta-weighting                 0.000000
      * Dispersion:
        s8                             2.400000
        a1                             0.630000
        a2                             5.000000
        s9                             0.000000
      * Repulsion:
        kExp                           1.500000
        rExp                           1.000000
      * Coulomb:
        alpha                          2.000000
        third order                    atomic
        anisotropic                    false
      * Halogen bond correction:
        rad-scale                      1.300000
        damping                        0.440000


          ...................................................
          :                      SETUP                      :
          :.................................................:
          :  # basis functions                1500          :
          :  # atomic orbitals                1500          :
          :  # shells                          896          :
          :  # electrons                      1402          :
          :  # halogen bonds                     0          :
          :  max. iterations                   250          :
          :  Hamiltonian                  GFN1-xTB          :
          :  restarted?                      false          :
          :  GBSA solvation                  false          :
          :  PC potential                    false          :
          :  electronic temp.          300.0000000     K    :
          :  accuracy                    1.0000000          :
          :  -> integral cutoff          0.2500000E+02      :
          :  -> integral neglect         0.1000000E-07      :
          :  -> SCF convergence          0.1000000E-05 Eh   :
          :  -> wf. convergence          0.2000000E-04 e    :
          :  Broyden damping             0.4000000          :
          ...................................................

 iter      E             dE          RMSdq      gap      omega  full diag
   1   -777.8672669 -0.777867E+03  0.103E+01    0.11       0.0  T
   2   -778.4585359 -0.591269E+00  0.615E+00    0.14       1.0  T
   3   -771.7676810  0.669085E+01  0.234E+00    0.10       1.0  T
   4   -770.2100040  0.155768E+01  0.156E+00    0.10       1.0  T
   5   -749.8326154  0.203774E+02  0.259E+00    0.06       1.0  T
   6   -777.3450352 -0.275124E+02  0.819E-01    0.06       1.0  T
   7   -777.9600867 -0.615051E+00  0.575E-01    0.12       1.0  T
   8   -778.5247436 -0.564657E+00  0.319E-01    0.11       1.0  T
   9   -778.6864801 -0.161736E+00  0.202E-01    0.11       1.0  T
  10   -778.6454521  0.410280E-01  0.190E-01    0.08       1.0  T
  11   -778.5991892  0.462630E-01  0.214E-01    0.04       1.0  T
  12   -778.7306990 -0.131510E+00  0.695E-02    0.14       1.0  T
  13   -778.7359752 -0.527622E-02  0.444E-02    0.14       1.0  T
  14   -778.7371368 -0.116158E-02  0.335E-02    0.14       1.0  T
  15   -778.7365947  0.542074E-03  0.320E-02    0.14       1.0  T
  16   -778.7380338 -0.143908E-02  0.225E-02    0.14       1.0  T
  17   -778.7385689 -0.535134E-03  0.173E-02    0.14       1.0  T
  18   -778.7387277 -0.158781E-03  0.150E-02    0.14       1.0  T
  19   -778.7388554 -0.127651E-03  0.132E-02    0.14       1.0  T
  20   -778.7389144 -0.589958E-04  0.122E-02    0.14       1.0  T
  21   -778.7390409 -0.126559E-03  0.947E-03    0.14       1.0  T
  22   -778.7391564 -0.115452E-03  0.716E-03    0.14       1.0  T
  23   -778.7392198 -0.634714E-04  0.447E-03    0.14       1.1  T
  24   -778.7392379 -0.180579E-04  0.337E-03    0.14       1.4  T
  25   -778.7392356  0.228677E-05  0.300E-03    0.14       1.6  T
  26   -778.7392376 -0.201324E-05  0.269E-03    0.14       1.8  T
  27   -778.7392507 -0.130375E-04  0.128E-03    0.14       3.7  T
  28   -778.7392527 -0.199808E-05  0.533E-04    0.14       8.9  T
  29   -778.7392531 -0.458018E-06  0.428E-04    0.14      11.0  T
  30   -778.7392532 -0.124434E-06  0.278E-04    0.14      17.0  T
  31   -778.7392534 -0.161844E-06  0.104E-04    0.14      45.3  T
  32   -778.7392534 -0.623857E-08  0.859E-05    0.14      55.0  T

   *** convergence criteria satisfied after 32 iterations ***

         #    Occupation            Energy/Eh            Energy/eV
      -------------------------------------------------------------
         1        2.0000           -0.8103643             -22.0511
       ...           ...                  ...                  ...
       695        2.0000           -0.3906511             -10.6302
       696        2.0000           -0.3896938             -10.6041
       697        2.0000           -0.3896163             -10.6020
       698        2.0000           -0.3871142             -10.5339
       699        2.0000           -0.3829125             -10.4196
       700        1.9988           -0.3782509             -10.2927
       701        1.8424           -0.3735177             -10.1639 (HOMO)
       702        0.1177           -0.3685483             -10.0287 (LUMO)
       703        0.0192           -0.3667763              -9.9805
       704        0.0187           -0.3667509              -9.9798
       705        0.0015           -0.3643453              -9.9143
       706        0.0010           -0.3639749              -9.9043
       ...           ...                  ...                  ...
      1500                          1.2520958              34.0713
      -------------------------------------------------------------
                  HL-Gap            0.0049695 Eh            0.1352 eV
             Fermi-level           -0.3711817 Eh          -10.1004 eV

 SCC (total)                   0 d,  0 h,  0 min, 33.843 sec
 SCC setup                      ...        0 min,  0.052 sec (  0.152%)
 Dispersion                     ...        0 min,  0.026 sec (  0.076%)
 classical contributions        ...        0 min,  0.007 sec (  0.020%)
 integral evaluation            ...        0 min,  0.682 sec (  2.014%)
 iterations                     ...        0 min, 31.584 sec ( 93.323%)
 molecular gradient             ...        0 min,  1.275 sec (  3.768%)
 printout                       ...        0 min,  0.219 sec (  0.646%)

         :::::::::::::::::::::::::::::::::::::::::::::::::::::
         ::                     SUMMARY                     ::
         :::::::::::::::::::::::::::::::::::::::::::::::::::::
         :: total energy            -766.859829881735 Eh    ::
         :: gradient norm              0.723956826891 Eh/a0 ::
         :: HOMO-LUMO gap              0.135225846679 eV    ::
         ::.................................................::
         :: SCC energy              -778.739253416917 Eh    ::
         :: -> electrostatic           0.709866149969 Eh    ::
         :: repulsion energy          12.273030696845 Eh    ::
         :: dispersion energy         -0.393607161663 Eh    ::
         :: halogen bond corr.         0.000000000000 Eh    ::
         :: add. restraining           0.000000000000 Eh    ::
         :: total charge               0.000000000000 e     ::
         :::::::::::::::::::::::::::::::::::::::::::::::::::::

      ----------------------------------------------------------- 
     |                   =====================                   |
     |                        A N C O P T                        |
     |                   =====================                   |
     |               Approximate Normal Coordinate               |
     |                Rational Function Optimizer                |
      ----------------------------------------------------------- 

          ...................................................
          :                      SETUP                      :
          :.................................................:
          :   optimization level            normal          :
          :   max. optcycles                  1344          :
          :   ANC micro-cycles                  20          :
          :   degrees of freedom              1338          :
          :.................................................:
          :   RF solver                   davidson          :
          :   write xtbopt.log                true          :
          :   linear?                        false          :
          :   energy convergence         0.5000000E-05 Eh   :
          :   grad. convergence          0.1000000E-02 Eh/α :
          :   maximium RF displ.         1.0000000          :
          :   Hlow (freq-cutoff)         0.1000000E-01      :
          :   Hmax (freq-cutoff)         5.0000000          :
          :   S6 in model hess.         20.0000000          :
          ...................................................

generating ANC from model Hessian ...
Using Lindh-Hessian (1995)
 Shifting diagonal of input Hessian by    1.0002563180086634E-002
 Lowest  eigenvalues of input Hessian
    0.010000    0.010002    0.010002    0.010002    0.010002    0.000000
    0.000000    0.000000    0.000000    0.000000    0.000000    0.010003
    0.010003    0.010003    0.010004    0.010005    0.010006    0.010006
 Highest eigenvalues
    2.259987    2.486337    2.486338    2.486340    2.486342    2.486343


........................................................................
.............................. CYCLE    1 ..............................
........................................................................
   1   -778.7392534 -0.778739E+03  0.493E-05    0.14       0.0  T
   2   -778.7392533  0.828578E-07  0.202E-04    0.14      23.4  T
   3   -778.7392534 -0.869695E-07  0.519E-05    0.14      91.0  T
   4   -778.7392534  0.229625E-08  0.550E-05    0.14      86.0  T
     SCC iter.                  ...        0 min,  3.984 sec
     gradient                   ...        0 min,  1.272 sec
 * total energy  :  -766.8598299 Eh     change       -0.6877031E-08 Eh
   gradient norm :     0.7239573 Eh/α   predicted     0.0000000E+00 (-100.00%)
   displ. norm   :     0.5461677 α      lambda       -0.3359542E+00
   maximum displ.:     0.1292704 α      in ANC's #791, #1036, #1035, ...

........................................................................
.............................. CYCLE    2 ..............................
........................................................................
   1   -778.7370259 -0.778737E+03  0.706E-02    0.20       0.0  T
   2   -778.7377525 -0.726582E-03  0.649E-02    0.18       1.0  T
   3   -778.7382153 -0.462829E-03  0.479E-02    0.19       1.0  T
   4   -778.7394285 -0.121321E-02  0.328E-02    0.19       1.0  T
   5   -778.7377043  0.172427E-02  0.391E-02    0.16       1.0  T
   6   -778.7403906 -0.268634E-02  0.133E-02    0.19       1.0  T
   7   -778.7406414 -0.250818E-03  0.544E-03    0.19       1.0  T
   8   -778.7406751 -0.336953E-04  0.352E-03    0.19       1.3  T
   9   -778.7406957 -0.205506E-04  0.140E-03    0.19       3.4  T
  10   -778.7406973 -0.163033E-05  0.886E-04    0.19       5.3  T
  11   -778.7406973 -0.762304E-08  0.739E-04    0.19       6.4  T
  12   -778.7406978 -0.533711E-06  0.448E-04    0.19      10.5  T
  13   -778.7406982 -0.333800E-06  0.152E-04    0.19      31.1  T
  14   -778.7406982 -0.168169E-07  0.113E-04    0.19      41.7  T
     SCC iter.                  ...        0 min, 13.902 sec
     gradient                   ...        0 min,  1.264 sec
 * total energy  :  -767.1399936 Eh     change       -0.2801637E+00 Eh
   gradient norm :     0.4686276 Eh/α   predicted    -0.2181124E+00 ( -22.15%)
   displ. norm   :     0.6545458 α      lambda       -0.2757445E+00
   maximum displ.:     0.1635085 α      in ANC's #1195, #1036, #1035, ...

........................................................................
.............................. CYCLE    3 ..............................
........................................................................
   1   -778.7734121 -0.778773E+03  0.901E-02    0.29       0.0  T
   2   -778.7763558 -0.294370E-02  0.726E-02    0.26       1.0  T
   3   -778.7784877 -0.213185E-02  0.404E-02    0.27       1.0  T
   4   -778.7790853 -0.597606E-03  0.303E-02    0.27       1.0  T
   5   -778.7797112 -0.625930E-03  0.105E-02    0.26       1.0  T
   6   -778.7797901 -0.788651E-04  0.533E-03    0.28       1.0  T
   7   -778.7798284 -0.383385E-04  0.154E-03    0.27       3.1  T
   8   -778.7798313 -0.285049E-05  0.556E-04    0.27       8.5  T
   9   -778.7798316 -0.305764E-06  0.265E-04    0.27      17.8  T
  10   -778.7798316 -0.464738E-07  0.148E-04    0.27      32.0  T
  11   -778.7798317 -0.198042E-07  0.856E-05    0.27      55.2  T
     SCC iter.                  ...        0 min, 11.157 sec
     gradient                   ...        0 min,  1.297 sec
 * total energy  :  -767.3305903 Eh     change       -0.1905967E+00 Eh
   gradient norm :     0.1666349 Eh/α   predicted    -0.1969641E+00 (   3.34%)
   displ. norm   :     0.7217586 α      lambda       -0.9111323E-01
   maximum displ.:     0.2775614 α      in ANC's #140, #128, #241, ...

........................................................................
.............................. CYCLE    4 ..............................
........................................................................
   1   -778.8859894 -0.778886E+03  0.379E-02    0.42       0.0  T
   2   -778.8867245 -0.735139E-03  0.314E-02    0.40       1.0  T
   3   -778.8872636 -0.539052E-03  0.133E-02    0.41       1.0  T
   4   -778.8872102  0.533791E-04  0.140E-02    0.41       1.0  T
   5   -778.8873599 -0.149738E-03  0.402E-03    0.41       1.2  T
   6   -778.8873703 -0.103928E-04  0.153E-03    0.41       3.1  T
   7   -778.8873730 -0.268374E-05  0.556E-04    0.41       8.5  T
   8   -778.8873734 -0.350880E-06  0.304E-04    0.41      15.5  T
   9   -778.8873735 -0.104002E-06  0.144E-04    0.41      32.7  T
  10   -778.8873735 -0.233013E-07  0.578E-05    0.41      81.7  T
     SCC iter.                  ...        0 min, 10.116 sec
     gradient                   ...        0 min,  1.273 sec
 * total energy  :  -767.4009637 Eh     change       -0.7037339E-01 Eh
   gradient norm :     0.0901151 Eh/α   predicted    -0.6928873E-01 (  -1.54%)
   displ. norm   :     0.8399167 α      lambda       -0.6023242E-01
   maximum displ.:     0.3793345 α      in ANC's #140, #128, #127, ...

........................................................................
.............................. CYCLE    5 ..............................
........................................................................
   1   -778.9947997 -0.778995E+03  0.235E-02    0.47       0.0  T
   2   -778.9950212 -0.221578E-03  0.226E-02    0.47       1.0  T
   3   -778.9952743 -0.253089E-03  0.794E-03    0.47       1.0  T
   4   -778.9952584  0.159326E-04  0.579E-03    0.47       1.0  T
   5   -778.9952757 -0.173039E-04  0.343E-03    0.47       1.4  T
   6   -778.9952846 -0.886535E-05  0.633E-04    0.47       7.5  T
   7   -778.9952850 -0.408035E-06  0.310E-04    0.47      15.2  T
   8   -778.9952851 -0.740616E-07  0.150E-04    0.47      31.4  T
   9   -778.9952851 -0.214229E-07  0.811E-05    0.47      58.3  T
     SCC iter.                  ...        0 min,  8.917 sec
     gradient                   ...        0 min,  1.263 sec
 * total energy  :  -767.4559494 Eh     change       -0.5498570E-01 Eh
   gradient norm :     0.0750411 Eh/α   predicted    -0.5136200E-01 (  -6.59%)
   displ. norm   :     0.9241459 α      lambda       -0.5739100E-01
   maximum displ.:     0.4057901 α      in ANC's #140, #128, #127, ...

........................................................................
.............................. CYCLE    6 ..............................
........................................................................
   1   -779.0811765 -0.779081E+03  0.315E-02    0.51       0.0  T
   2   -779.0815643 -0.387791E-03  0.308E-02    0.51       1.0  T
   3   -779.0819494 -0.385123E-03  0.106E-02    0.51       1.0  T
   4   -779.0819076  0.418145E-04  0.691E-03    0.51       1.0  T
   5   -779.0819454 -0.378206E-04  0.426E-03    0.51       1.1  T
   6   -779.0819605 -0.151195E-04  0.712E-04    0.51       6.6  T
   7   -779.0819608 -0.317448E-06  0.459E-04    0.51      10.3  T
   8   -779.0819612 -0.352977E-06  0.171E-04    0.51      27.6  T
   9   -779.0819612 -0.204900E-07  0.770E-05    0.51      61.4  T
     SCC iter.                  ...        0 min,  8.858 sec
     gradient                   ...        0 min,  1.271 sec
 * total energy  :  -767.5112315 Eh     change       -0.5528210E-01 Eh
   gradient norm :     0.0697020 Eh/α   predicted    -0.5320282E-01 (  -3.76%)
   displ. norm   :     0.9645843 α      lambda       -0.5804778E-01
   maximum displ.:     0.3948392 α      in ANC's #140, #128, #127, ...

........................................................................
.............................. CYCLE    7 ..............................
........................................................................
   1   -779.1527356 -0.779153E+03  0.353E-02    0.54       0.0  T
   2   -779.1532919 -0.556325E-03  0.321E-02    0.54       1.0  T
   3   -779.1535678 -0.275912E-03  0.133E-02    0.54       1.0  T
   4   -779.1534229  0.144895E-03  0.107E-02    0.54       1.0  T
   5   -779.1535725 -0.149516E-03  0.335E-03    0.54       1.4  T
   6   -779.1535788 -0.632025E-05  0.129E-03    0.54       3.7  T
   7   -779.1535816 -0.277282E-05  0.471E-04    0.54      10.0  T
   8   -779.1535819 -0.341837E-06  0.190E-04    0.54      24.9  T
   9   -779.1535819 -0.186567E-07  0.824E-05    0.54      57.3  T
     SCC iter.                  ...        0 min,  8.842 sec
     gradient                   ...        0 min,  1.276 sec
 * total energy  :  -767.5681957 Eh     change       -0.5696425E-01 Eh
   gradient norm :     0.0736332 Eh/α   predicted    -0.5602842E-01 (  -1.64%)
   displ. norm   :     0.9680192 α      lambda       -0.5891893E-01
   maximum displ.:     0.3742989 α      in ANC's #140, #128, #127, ...

........................................................................
.............................. CYCLE    8 ..............................
........................................................................
   1   -779.2093965 -0.779209E+03  0.377E-02    0.56       0.0  T
   2   -779.2098346 -0.438063E-03  0.363E-02    0.56       1.0  T
   3   -779.2100916 -0.257020E-03  0.175E-02    0.56       1.0  T
   4   -779.2097983  0.293333E-03  0.157E-02    0.56       1.0  T
   5   -779.2100961 -0.297878E-03  0.380E-03    0.56       1.2  T
   6   -779.2101022 -0.606117E-05  0.158E-03    0.56       3.0  T
   7   -779.2101069 -0.466524E-05  0.450E-04    0.56      10.5  T
   8   -779.2101071 -0.259172E-06  0.165E-04    0.56      28.6  T
   9   -779.2101071 -0.127458E-07  0.945E-05    0.56      50.0  T
     SCC iter.                  ...        0 min,  8.847 sec
     gradient                   ...        0 min,  1.273 sec
 * total energy  :  -767.6238565 Eh     change       -0.5566081E-01 Eh
   gradient norm :     0.0723832 Eh/α   predicted    -0.5706479E-01 (   2.52%)
   displ. norm   :     0.9307689 α      lambda       -0.5107492E-01
   maximum displ.:     0.3681015 α      in ANC's #140, #128, #127, ...

........................................................................
.............................. CYCLE    9 ..............................
........................................................................
   1   -779.2750436 -0.779275E+03  0.287E-02    0.57       0.0  T
   2   -779.2751481 -0.104476E-03  0.306E-02    0.57       1.0  T
   3   -779.2753501 -0.202052E-03  0.160E-02    0.57       1.0  T
   4   -779.2751882  0.161923E-03  0.121E-02    0.57       1.0  T
   5   -779.2753474 -0.159221E-03  0.243E-03    0.57       1.9  T
   6   -779.2753533 -0.591584E-05  0.101E-03    0.57       4.7  T
   7   -779.2753554 -0.206245E-05  0.286E-04    0.57      16.5  T
   8   -779.2753555 -0.106959E-06  0.825E-05    0.57      57.2  T
   9   -779.2753555 -0.396949E-08  0.499E-05    0.57      94.6  T
     SCC iter.                  ...        0 min,  8.841 sec
     gradient                   ...        0 min,  1.275 sec
 * total energy  :  -767.6688178 Eh     change       -0.4496122E-01 Eh
   gradient norm :     0.0677378 Eh/α   predicted    -0.4766134E-01 (   6.01%)
   displ. norm   :     0.8834848 α      lambda       -0.4256788E-01
   maximum displ.:     0.3733450 α      in ANC's #140, #128, #127, ...

........................................................................
.............................. CYCLE   10 ..............................
........................................................................
   1   -779.3566479 -0.779357E+03  0.134E-02    0.58       0.0  T
   2   -779.3566451  0.284127E-05  0.115E-02    0.58       1.0  T
   3   -779.3566966 -0.514656E-04  0.469E-03    0.58       1.0  T
   4   -779.3566845  0.120558E-04  0.509E-03    0.58       1.0  T
   5   -779.3567067 -0.222391E-04  0.159E-03    0.58       3.0  T
   6   -779.3567097 -0.297747E-05  0.455E-04    0.58      10.4  T
   7   -779.3567101 -0.349168E-06  0.119E-04    0.58      39.5  T
   8   -779.3567101 -0.166503E-07  0.539E-05    0.58      87.7  T
     SCC iter.                  ...        0 min,  7.910 sec
     gradient                   ...        0 min,  1.283 sec
 * total energy  :  -767.7081744 Eh     change       -0.3935663E-01 Eh
   gradient norm :     0.0563100 Eh/α   predicted    -0.3789705E-01 (  -3.71%)
   displ. norm   :     0.9213560 α      lambda       -0.4213022E-01
   maximum displ.:     0.3678784 α      in ANC's #140, #128, #127, ...

........................................................................
.............................. CYCLE   11 ..............................
........................................................................
   1   -779.4435652 -0.779444E+03  0.158E-02    0.55       0.0  T
   2   -779.4436134 -0.481599E-04  0.114E-02    0.55       1.0  T
   3   -779.4436628 -0.494170E-04  0.537E-03    0.55       1.0  T
   4   -779.4436486  0.142006E-04  0.644E-03    0.55       1.0  T
   5   -779.4436952 -0.465788E-04  0.175E-03    0.55       2.7  T
   6   -779.4436972 -0.195744E-05  0.801E-04    0.55       5.9  T
   7   -779.4436982 -0.108132E-05  0.150E-04    0.55      31.6  T
   8   -779.4436983 -0.176898E-07  0.786E-05    0.55      60.1  T
   9   -779.4436983 -0.576654E-08  0.400E-05    0.55     118.2  T
     SCC iter.                  ...        0 min,  9.182 sec
     gradient                   ...        0 min,  1.276 sec
 * total energy  :  -767.7447103 Eh     change       -0.3653590E-01 Eh
   gradient norm :     0.0540525 Eh/α   predicted    -0.3894721E-01 (   6.60%)
   displ. norm   :     0.9275654 α      lambda       -0.3804811E-01
   maximum displ.:     0.3551006 α      in ANC's #128, #140, #127, ...

........................................................................
.............................. CYCLE   12 ..............................
........................................................................
   1   -779.5286604 -0.779529E+03  0.131E-02    0.54       0.0  T
   2   -779.5286600  0.314307E-06  0.989E-03    0.54       1.0  T
   3   -779.5286648 -0.476467E-05  0.543E-03    0.54       1.0  T
   4   -779.5286804 -0.155834E-04  0.500E-03    0.54       1.0  T
   5   -779.5287073 -0.269231E-04  0.142E-03    0.54       3.3  T
   6   -779.5287104 -0.310999E-05  0.329E-04    0.54      14.3  T
   7   -779.5287106 -0.153260E-06  0.122E-04    0.54      38.6  T
   8   -779.5287106 -0.133126E-07  0.632E-05    0.54      74.8  T
     SCC iter.                  ...        0 min,  7.930 sec
     gradient                   ...        0 min,  1.278 sec
 * total energy  :  -767.7781728 Eh     change       -0.3346253E-01 Eh
   gradient norm :     0.0509141 Eh/α   predicted    -0.3539192E-01 (   5.77%)
   displ. norm   :     0.9274381 α      lambda       -0.3309723E-01
   maximum displ.:     0.3474172 α      in ANC's #128, #140, #127, ...

........................................................................
.............................. CYCLE   13 ..............................
........................................................................
   1   -779.5946977 -0.779595E+03  0.129E-02    0.55       0.0  T
   2   -779.5947283 -0.305688E-04  0.988E-03    0.55       1.0  T
   3   -779.5947392 -0.109642E-04  0.500E-03    0.55       1.0  T
   4   -779.5947150  0.242514E-04  0.444E-03    0.55       1.1  T
   5   -779.5947418 -0.268327E-04  0.126E-03    0.55       3.7  T
   6   -779.5947448 -0.300888E-05  0.366E-04    0.55      12.9  T
   7   -779.5947450 -0.174180E-06  0.127E-04    0.55      37.1  T
   8   -779.5947450 -0.130872E-07  0.659E-05    0.55      71.7  T
     SCC iter.                  ...        0 min,  7.872 sec
     gradient                   ...        0 min,  1.286 sec
 * total energy  :  -767.8081264 Eh     change       -0.2995353E-01 Eh
   gradient norm :     0.0376499 Eh/α   predicted    -0.3078280E-01 (   2.77%)
   displ. norm   :     0.9238044 α      lambda       -0.2909639E-01
   maximum displ.:     0.3233057 α      in ANC's #128, #140, #36, ...

........................................................................
.............................. CYCLE   14 ..............................
........................................................................
   1   -779.6737707 -0.779674E+03  0.125E-02    0.55       0.0  T
   2   -779.6737807 -0.998820E-05  0.118E-02    0.55       1.0  T
   3   -779.6738370 -0.562960E-04  0.496E-03    0.55       1.0  T
   4   -779.6737972  0.398164E-04  0.561E-03    0.55       1.0  T
   5   -779.6738388 -0.416085E-04  0.134E-03    0.55       3.5  T
   6   -779.6738411 -0.232492E-05  0.408E-04    0.55      11.6  T
   7   -779.6738414 -0.254354E-06  0.130E-04    0.55      36.4  T
   8   -779.6738414 -0.137921E-07  0.618E-05    0.55      76.5  T
     SCC iter.                  ...        0 min,  7.861 sec
     gradient                   ...        0 min,  1.282 sec
 * total energy  :  -767.8342691 Eh     change       -0.2614269E-01 Eh
   gradient norm :     0.0318678 Eh/α   predicted    -0.2696383E-01 (   3.14%)
   displ. norm   :     0.9234271 α      lambda       -0.2498534E-01
   maximum displ.:     0.3109055 α      in ANC's #128, #140, #36, ...

........................................................................
.............................. CYCLE   15 ..............................
........................................................................
   1   -779.7446510 -0.779745E+03  0.105E-02    0.54       0.0  T
   2   -779.7446637 -0.126353E-04  0.751E-03    0.54       1.0  T
   3   -779.7446761 -0.124526E-04  0.416E-03    0.54       1.1  T
   4   -779.7446697  0.641266E-05  0.335E-03    0.54       1.4  T
   5   -779.7446833 -0.135925E-04  0.119E-03    0.54       4.0  T
   6   -779.7446861 -0.284142E-05  0.283E-04    0.54      16.7  T
   7   -779.7446863 -0.101185E-06  0.110E-04    0.54      42.8  T
   8   -779.7446863 -0.122541E-07  0.492E-05    0.54      96.1  T
     SCC iter.                  ...        0 min,  7.879 sec
     gradient                   ...        0 min,  1.281 sec
 * total energy  :  -767.8563247 Eh     change       -0.2205565E-01 Eh
   gradient norm :     0.0324674 Eh/α   predicted    -0.2314539E-01 (   4.94%)
   displ. norm   :     0.9240735 α      lambda       -0.2209577E-01
   maximum displ.:     0.3066379 α      in ANC's #128, #36, #140, ...

........................................................................
.............................. CYCLE   16 ..............................
........................................................................
   1   -779.8139786 -0.779814E+03  0.952E-03    0.55       0.0  T
   2   -779.8139895 -0.109641E-04  0.672E-03    0.55       1.0  T
   3   -779.8139976 -0.809939E-05  0.381E-03    0.55       1.2  T
   4   -779.8139957  0.198415E-05  0.292E-03    0.55       1.6  T
   5   -779.8140062 -0.105459E-04  0.887E-04    0.55       5.3  T
   6   -779.8140076 -0.139604E-05  0.396E-04    0.55      11.9  T
   7   -779.8140078 -0.252481E-06  0.116E-04    0.55      40.6  T
   8   -779.8140079 -0.100567E-07  0.576E-05    0.55      82.1  T
     SCC iter.                  ...        0 min,  7.877 sec
     gradient                   ...        0 min,  1.286 sec
 * total energy  :  -767.8748635 Eh     change       -0.1853877E-01 Eh
   gradient norm :     0.0315285 Eh/α   predicted    -0.2048179E-01 (  10.48%)
   displ. norm   :     0.8938593 α      lambda       -0.1939918E-01
   maximum displ.:     0.2847677 α      in ANC's #36, #140, #128, ...

........................................................................
.............................. CYCLE   17 ..............................
........................................................................
   1   -779.8792354 -0.779879E+03  0.122E-02    0.57       0.0  T
   2   -779.8792618 -0.264206E-04  0.924E-03    0.57       1.0  T
   3   -779.8792997 -0.378851E-04  0.403E-03    0.57       1.2  T
   4   -779.8792804  0.192402E-04  0.464E-03    0.57       1.0  T
   5   -779.8793114 -0.310018E-04  0.119E-03    0.57       4.0  T
   6   -779.8793123 -0.846479E-06  0.466E-04    0.57      10.1  T
   7   -779.8793126 -0.338466E-06  0.154E-04    0.57      30.7  T
   8   -779.8793126 -0.258822E-07  0.742E-05    0.57      63.7  T
     SCC iter.                  ...        0 min,  7.865 sec
     gradient                   ...        0 min,  1.281 sec
 * total energy  :  -767.8903699 Eh     change       -0.1550642E-01 Eh
   gradient norm :     0.0375368 Eh/α   predicted    -0.1744940E-01 (  12.53%)
   displ. norm   :     0.8588743 α      lambda       -0.1604353E-01
   maximum displ.:     0.2983847 α      in ANC's #36, #140, #128, ...

........................................................................
.............................. CYCLE   18 ..............................
........................................................................
   1   -779.9335562 -0.779934E+03  0.108E-02    0.56       0.0  T
   2   -779.9335754 -0.192861E-04  0.866E-03    0.56       1.0  T
   3   -779.9336111 -0.356159E-04  0.381E-03    0.56       1.2  T
   4   -779.9335945  0.165775E-04  0.424E-03    0.56       1.1  T
   5   -779.9336166 -0.221296E-04  0.125E-03    0.56       3.8  T
   6   -779.9336184 -0.181244E-05  0.393E-04    0.56      12.0  T
   7   -779.9336187 -0.262998E-06  0.135E-04    0.56      35.0  T
   8   -779.9336187 -0.226852E-07  0.524E-05    0.56      90.2  T
     SCC iter.                  ...        0 min,  8.073 sec
     gradient                   ...        0 min,  1.351 sec
 * total energy  :  -767.9039368 Eh     change       -0.1356693E-01 Eh
   gradient norm :     0.0201078 Eh/α   predicted    -0.1393914E-01 (   2.74%)
   displ. norm   :     0.8861858 α      lambda       -0.1257010E-01
   maximum displ.:     0.3349606 α      in ANC's #36, #41, #84, ...

........................................................................
.............................. CYCLE   19 ..............................
........................................................................
   1   -779.9857303 -0.779986E+03  0.686E-03    0.57       0.0  T
   2   -779.9857304 -0.137544E-07  0.534E-03    0.57       1.0  T
   3   -779.9857418 -0.113984E-04  0.274E-03    0.57       1.7  T
   4   -779.9857419 -0.944698E-07  0.243E-03    0.57       1.9  T
   5   -779.9857496 -0.774224E-05  0.627E-04    0.57       7.5  T
   6   -779.9857499 -0.343061E-06  0.293E-04    0.57      16.1  T
   7   -779.9857501 -0.150876E-06  0.982E-05    0.57      48.1  T
   8   -779.9857501 -0.847842E-08  0.461E-05    0.57     102.6  T
     SCC iter.                  ...        0 min,  8.073 sec
     gradient                   ...        0 min,  1.290 sec
 * total energy  :  -767.9152305 Eh     change       -0.1129363E-01 Eh
   gradient norm :     0.0169869 Eh/α   predicted    -0.1122086E-01 (  -0.64%)
   displ. norm   :     0.9067587 α      lambda       -0.1115965E-01
   maximum displ.:     0.3531791 α      in ANC's #36, #41, #23, ...

........................................................................
.............................. CYCLE   20 ..............................
........................................................................
   1   -780.0317087 -0.780032E+03  0.913E-03    0.57       0.0  T
   2   -780.0317200 -0.112758E-04  0.812E-03    0.57       1.0  T
   3   -780.0317513 -0.313280E-04  0.342E-03    0.57       1.4  T
   4   -780.0317352  0.161192E-04  0.368E-03    0.57       1.3  T
   5   -780.0317531 -0.178759E-04  0.962E-04    0.57       4.9  T
   6   -780.0317541 -0.105501E-05  0.292E-04    0.57      16.2  T
   7   -780.0317543 -0.161216E-06  0.933E-05    0.57      50.7  T
   8   -780.0317543 -0.998330E-08  0.373E-05    0.57     126.6  T
     SCC iter.                  ...        0 min,  7.863 sec
     gradient                   ...        0 min,  1.289 sec
 * total energy  :  -767.9244344 Eh     change       -0.9203967E-02 Eh
   gradient norm :     0.0292530 Eh/α   predicted    -0.1016762E-01 (  10.47%)
   displ. norm   :     0.8698611 α      lambda       -0.1073653E-01
   maximum displ.:     0.3454243 α      in ANC's #36, #84, #23, ...
 * RMSD in coord.:     0.7009758 α      energy gain  -0.1064605E+01 Eh

generating ANC from model Hessian ...
Using Lindh-Hessian (1995)
 Shifting diagonal of input Hessian by    1.0000568116431638E-002
 Lowest  eigenvalues of input Hessian
    0.010000    0.010000    0.010000    0.010000    0.000000    0.000000
    0.000000    0.000000    0.000000    0.000000    0.010001    0.010001
    0.010002    0.010003    0.010006    0.010007    0.010009    0.010010
 Highest eigenvalues
    2.526824    2.553836    2.554171    2.585551    2.585572    2.589587


........................................................................
.............................. CYCLE   21 ..............................
........................................................................
   1   -780.0704568 -0.780070E+03  0.109E-02    0.57       0.0  T
   2   -780.0704760 -0.191159E-04  0.101E-02    0.57       1.0  T
   3   -780.0705226 -0.466526E-04  0.414E-03    0.57       1.1  T
   4   -780.0704994  0.231843E-04  0.441E-03    0.57       1.1  T
   5   -780.0705236 -0.241539E-04  0.120E-03    0.57       3.9  T
   6   -780.0705253 -0.176587E-05  0.310E-04    0.57      15.2  T
   7   -780.0705255 -0.179384E-06  0.943E-05    0.57      50.1  T
   8   -780.0705255 -0.114391E-07  0.372E-05    0.57     126.9  T
     SCC iter.                  ...        0 min,  7.856 sec
     gradient                   ...        0 min,  1.291 sec
 * total energy  :  -767.9329402 Eh     change       -0.8505751E-02 Eh
   gradient norm :     0.0222696 Eh/α   predicted     0.0000000E+00 (-100.00%)
   displ. norm   :     0.5467092 α      lambda       -0.5617126E-02
   maximum displ.:     0.2173290 α      in ANC's #58, #97, #77, ...

........................................................................
.............................. CYCLE   22 ..............................
........................................................................
   1   -780.0852681 -0.780085E+03  0.315E-03    0.57       0.0  T
   2   -780.0852699 -0.179964E-05  0.276E-03    0.57       1.7  T
   3   -780.0852729 -0.298109E-05  0.118E-03    0.57       4.0  T
   4   -780.0852719  0.989864E-06  0.967E-04    0.57       4.9  T
   5   -780.0852729 -0.998906E-06  0.272E-04    0.57      17.4  T
   6   -780.0852730 -0.106677E-06  0.920E-05    0.57      51.4  T
   7   -780.0852730 -0.175714E-07  0.292E-05    0.57     161.7  T
     SCC iter.                  ...        0 min,  6.883 sec
     gradient                   ...        0 min,  1.285 sec
 * total energy  :  -767.9381906 Eh     change       -0.5250481E-02 Eh
   gradient norm :     0.0129058 Eh/α   predicted    -0.3648080E-02 ( -30.52%)
   displ. norm   :     0.9159751 α      lambda       -0.8390867E-02
   maximum displ.:     0.3549467 α      in ANC's #58, #86, #97, ...

........................................................................
.............................. CYCLE   23 ..............................
........................................................................
   1   -780.1017137 -0.780102E+03  0.450E-03    0.57       0.0  T
   2   -780.1017184 -0.468023E-05  0.376E-03    0.57       1.3  T
   3   -780.1017233 -0.499157E-05  0.159E-03    0.57       3.0  T
   4   -780.1017217  0.168387E-05  0.134E-03    0.57       3.5  T
   5   -780.1017234 -0.176240E-05  0.327E-04    0.57      14.4  T
   6   -780.1017236 -0.141872E-06  0.124E-04    0.57      38.0  T
   7   -780.1017236 -0.282284E-07  0.459E-05    0.57     102.9  T
     SCC iter.                  ...        0 min,  6.875 sec
     gradient                   ...        0 min,  1.293 sec
 * total energy  :  -767.9459360 Eh     change       -0.7745316E-02 Eh
   gradient norm :     0.0124728 Eh/α   predicted    -0.7715446E-02 (  -0.39%)
   displ. norm   :     0.9277948 α      lambda       -0.7555272E-02
   maximum displ.:     0.3649234 α      in ANC's #58, #86, #77, ...

........................................................................
.............................. CYCLE   24 ..............................
........................................................................
   1   -780.1111422 -0.780111E+03  0.262E-03    0.57       0.0  T
   2   -780.1111438 -0.160405E-05  0.152E-03    0.57       3.1  T
   3   -780.1111441 -0.370288E-06  0.851E-04    0.57       5.6  T
   4   -780.1111440  0.111603E-06  0.727E-04    0.57       6.5  T
   5   -780.1111446 -0.610914E-06  0.193E-04    0.57      24.5  T
   6   -780.1111447 -0.506775E-07  0.951E-05    0.57      49.7  T
     SCC iter.                  ...        0 min,  5.889 sec
     gradient                   ...        0 min,  1.289 sec
 * total energy  :  -767.9530475 Eh     change       -0.7111517E-02 Eh
   gradient norm :     0.0159984 Eh/α   predicted    -0.7029437E-02 (  -1.15%)
   displ. norm   :     0.9324434 α      lambda       -0.7019446E-02
   maximum displ.:     0.3712493 α      in ANC's #58, #86, #77, ...

........................................................................
.............................. CYCLE   25 ..............................
........................................................................
   1   -780.1231253 -0.780123E+03  0.256E-03    0.57       0.0  T
   2   -780.1231269 -0.165763E-05  0.164E-03    0.57       2.9  T
   3   -780.1231278 -0.846985E-06  0.808E-04    0.57       5.8  T
   4   -780.1231275  0.258859E-06  0.757E-04    0.57       6.2  T
   5   -780.1231282 -0.652522E-06  0.233E-04    0.57      20.3  T
   6   -780.1231282 -0.679045E-07  0.917E-05    0.57      51.5  T
   7   -780.1231282 -0.129362E-07  0.359E-05    0.57     131.5  T
     SCC iter.                  ...        0 min,  6.999 sec
     gradient                   ...        0 min,  1.301 sec
 * total energy  :  -767.9596883 Eh     change       -0.6640857E-02 Eh
   gradient norm :     0.0134337 Eh/α   predicted    -0.6561255E-02 (  -1.20%)
   displ. norm   :     0.9335082 α      lambda       -0.6444592E-02
   maximum displ.:     0.3785051 α      in ANC's #58, #86, #23, ...

........................................................................
.............................. CYCLE   26 ..............................
........................................................................
   1   -780.1370014 -0.780137E+03  0.272E-03    0.57       0.0  T
   2   -780.1370037 -0.228609E-05  0.179E-03    0.57       2.6  T
   3   -780.1370047 -0.100574E-05  0.831E-04    0.57       5.7  T
   4   -780.1370042  0.478209E-06  0.797E-04    0.57       5.9  T
   5   -780.1370049 -0.694507E-06  0.251E-04    0.57      18.8  T
   6   -780.1370050 -0.725590E-07  0.906E-05    0.57      52.1  T
   7   -780.1370050 -0.114512E-07  0.416E-05    0.57     113.6  T
     SCC iter.                  ...        0 min,  6.954 sec
     gradient                   ...        0 min,  1.294 sec
 * total energy  :  -767.9657625 Eh     change       -0.6074115E-02 Eh
   gradient norm :     0.0086872 Eh/α   predicted    -0.6030326E-02 (  -0.72%)
   displ. norm   :     0.9362435 α      lambda       -0.5809951E-02
   maximum displ.:     0.3833112 α      in ANC's #58, #86, #23, ...

........................................................................
.............................. CYCLE   27 ..............................
........................................................................
   1   -780.1485798 -0.780149E+03  0.231E-03    0.58       0.0  T
   2   -780.1485814 -0.158474E-05  0.130E-03    0.58       3.6  T
   3   -780.1485817 -0.320313E-06  0.712E-04    0.58       6.6  T
   4   -780.1485815  0.184243E-06  0.647E-04    0.58       7.3  T
   5   -780.1485820 -0.517152E-06  0.168E-04    0.58      28.1  T
   6   -780.1485820 -0.212875E-07  0.795E-05    0.58      59.4  T
     SCC iter.                  ...        0 min,  5.899 sec
     gradient                   ...        0 min,  1.291 sec
 * total energy  :  -767.9712493 Eh     change       -0.5486816E-02 Eh
   gradient norm :     0.0072820 Eh/α   predicted    -0.5451343E-02 (  -0.65%)
   displ. norm   :     0.9374415 α      lambda       -0.5268352E-02
   maximum displ.:     0.3860749 α      in ANC's #58, #86, #23, ...

........................................................................
.............................. CYCLE   28 ..............................
........................................................................
   1   -780.1595049 -0.780160E+03  0.205E-03    0.58       0.0  T
   2   -780.1595060 -0.104262E-05  0.110E-03    0.58       4.3  T
   3   -780.1595060 -0.745920E-07  0.697E-04    0.58       6.8  T
   4   -780.1595062 -0.105858E-06  0.552E-04    0.58       8.6  T
   5   -780.1595065 -0.366496E-06  0.135E-04    0.58      35.1  T
   6   -780.1595065 -0.116759E-07  0.792E-05    0.58      59.7  T
     SCC iter.                  ...        0 min,  5.894 sec
     gradient                   ...        0 min,  1.292 sec
 * total energy  :  -767.9762334 Eh     change       -0.4984140E-02 Eh
   gradient norm :     0.0069396 Eh/α   predicted    -0.4949092E-02 (  -0.70%)
   displ. norm   :     0.9382150 α      lambda       -0.4799279E-02
   maximum displ.:     0.3862939 α      in ANC's #58, #23, #86, ...

........................................................................
.............................. CYCLE   29 ..............................
........................................................................
   1   -780.1696509 -0.780170E+03  0.189E-03    0.58       0.0  T
   2   -780.1696517 -0.761582E-06  0.106E-03    0.58       4.4  T
   3   -780.1696518 -0.106428E-06  0.680E-04    0.58       6.9  T
   4   -780.1696520 -0.179336E-06  0.506E-04    0.58       9.3  T
   5   -780.1696523 -0.290185E-06  0.126E-04    0.58      37.4  T
   6   -780.1696523 -0.112730E-07  0.761E-05    0.58      62.1  T
     SCC iter.                  ...        0 min,  5.930 sec
     gradient                   ...        0 min,  1.295 sec
 * total energy  :  -767.9807761 Eh     change       -0.4542643E-02 Eh
   gradient norm :     0.0061714 Eh/α   predicted    -0.4511920E-02 (  -0.68%)
   displ. norm   :     0.9385001 α      lambda       -0.4369827E-02
   maximum displ.:     0.3849876 α      in ANC's #58, #23, #86, ...

........................................................................
.............................. CYCLE   30 ..............................
........................................................................
   1   -780.1795337 -0.780180E+03  0.182E-03    0.58       0.0  T
   2   -780.1795344 -0.621989E-06  0.106E-03    0.58       4.4  T
   3   -780.1795345 -0.138309E-06  0.681E-04    0.58       6.9  T
   4   -780.1795347 -0.209522E-06  0.485E-04    0.58       9.7  T
   5   -780.1795350 -0.264510E-06  0.125E-04    0.58      37.8  T
   6   -780.1795350 -0.121353E-07  0.715E-05    0.58      66.1  T
     SCC iter.                  ...        0 min,  5.926 sec
     gradient                   ...        0 min,  1.297 sec
 * total energy  :  -767.9849122 Eh     change       -0.4136114E-02 Eh
   gradient norm :     0.0051402 Eh/α   predicted    -0.4109346E-02 (  -0.65%)
   displ. norm   :     0.9377088 α      lambda       -0.3969104E-02
   maximum displ.:     0.3814752 α      in ANC's #58, #23, #86, ...

........................................................................
.............................. CYCLE   31 ..............................
........................................................................
   1   -780.1881904 -0.780188E+03  0.170E-03    0.58       0.0  T
   2   -780.1881909 -0.504520E-06  0.104E-03    0.58       4.5  T
   3   -780.1881912 -0.251391E-06  0.650E-04    0.58       7.3  T
   4   -780.1881914 -0.250380E-06  0.449E-04    0.58      10.5  T
   5   -780.1881916 -0.204583E-06  0.126E-04    0.58      37.6  T
   6   -780.1881916 -0.153543E-07  0.707E-05    0.58      66.8  T
     SCC iter.                  ...        0 min,  5.909 sec
     gradient                   ...        0 min,  1.294 sec
 * total energy  :  -767.9886693 Eh     change       -0.3757112E-02 Eh
   gradient norm :     0.0044992 Eh/α   predicted    -0.3729563E-02 (  -0.73%)
   displ. norm   :     0.9353933 α      lambda       -0.3602296E-02
   maximum displ.:     0.3749903 α      in ANC's #58, #23, #36, ...

........................................................................
.............................. CYCLE   32 ..............................
........................................................................
   1   -780.1959670 -0.780196E+03  0.163E-03    0.58       0.0  T
   2   -780.1959675 -0.466080E-06  0.101E-03    0.58       4.7  T
   3   -780.1959678 -0.282820E-06  0.625E-04    0.58       7.6  T
   4   -780.1959680 -0.221734E-06  0.435E-04    0.58      10.9  T
   5   -780.1959682 -0.192535E-06  0.127E-04    0.58      37.1  T
   6   -780.1959682 -0.167657E-07  0.663E-05    0.58      71.2  T
     SCC iter.                  ...        0 min,  5.896 sec
     gradient                   ...        0 min,  1.292 sec
 * total energy  :  -767.9920777 Eh     change       -0.3408399E-02 Eh
   gradient norm :     0.0042410 Eh/α   predicted    -0.3377081E-02 (  -0.92%)
   displ. norm   :     0.9315299 α      lambda       -0.3267652E-02
   maximum displ.:     0.3919341 α      in ANC's #23, #58, #36, ...

........................................................................
.............................. CYCLE   33 ..............................
........................................................................
   1   -780.2031883 -0.780203E+03  0.158E-03    0.58       0.0  T
   2   -780.2031888 -0.441427E-06  0.980E-04    0.58       4.8  T
   3   -780.2031890 -0.289488E-06  0.597E-04    0.58       7.9  T
   4   -780.2031893 -0.215296E-06  0.418E-04    0.58      11.3  T
   5   -780.2031894 -0.171500E-06  0.129E-04    0.58      36.6  T
   6   -780.2031895 -0.186138E-07  0.643E-05    0.58      73.5  T
     SCC iter.                  ...        0 min,  6.037 sec
     gradient                   ...        0 min,  1.309 sec
 * total energy  :  -767.9951659 Eh     change       -0.3088236E-02 Eh
   gradient norm :     0.0041235 Eh/α   predicted    -0.3051575E-02 (  -1.19%)
   displ. norm   :     0.9254174 α      lambda       -0.2958602E-02
   maximum displ.:     0.4127876 α      in ANC's #23, #58, #36, ...

........................................................................
.............................. CYCLE   34 ..............................
........................................................................
   1   -780.2094075 -0.780209E+03  0.150E-03    0.58       0.0  T
   2   -780.2094080 -0.415713E-06  0.931E-04    0.58       5.1  T
   3   -780.2094082 -0.254234E-06  0.564E-04    0.58       8.4  T
   4   -780.2094084 -0.171727E-06  0.406E-04    0.58      11.6  T
   5   -780.2094086 -0.169436E-06  0.120E-04    0.58      39.2  T
   6   -780.2094086 -0.155784E-07  0.623E-05    0.58      75.8  T
     SCC iter.                  ...        0 min,  6.025 sec
     gradient                   ...        0 min,  1.296 sec
 * total energy  :  -767.9979591 Eh     change       -0.2793228E-02 Eh
   gradient norm :     0.0037693 Eh/α   predicted    -0.2746171E-02 (  -1.68%)
   displ. norm   :     0.9170380 α      lambda       -0.2670491E-02
   maximum displ.:     0.4336090 α      in ANC's #23, #58, #36, ...

........................................................................
.............................. CYCLE   35 ..............................
........................................................................
   1   -780.2156961 -0.780216E+03  0.141E-03    0.58       0.0  T
   2   -780.2156965 -0.404396E-06  0.852E-04    0.58       5.5  T
   3   -780.2156967 -0.156417E-06  0.528E-04    0.58       8.9  T
   4   -780.2156968 -0.137847E-06  0.384E-04    0.58      12.3  T
   5   -780.2156970 -0.162431E-06  0.110E-04    0.58      42.8  T
   6   -780.2156970 -0.118619E-07  0.564E-05    0.58      83.8  T
     SCC iter.                  ...        0 min,  5.921 sec
     gradient                   ...        0 min,  1.294 sec
 * total energy  :  -768.0004814 Eh     change       -0.2522241E-02 Eh
   gradient norm :     0.0035330 Eh/α   predicted    -0.2458133E-02 (  -2.54%)
   displ. norm   :     0.9053769 α      lambda       -0.2402395E-02
   maximum displ.:     0.4518551 α      in ANC's #23, #58, #36, ...

........................................................................
.............................. CYCLE   36 ..............................
........................................................................
   1   -780.2211014 -0.780221E+03  0.131E-03    0.58       0.0  T
   2   -780.2211018 -0.357597E-06  0.791E-04    0.58       6.0  T
   3   -780.2211019 -0.126165E-06  0.481E-04    0.58       9.8  T
   4   -780.2211020 -0.103070E-06  0.366E-04    0.58      12.9  T
   5   -780.2211021 -0.152421E-06  0.976E-05    0.58      48.4  T
   6   -780.2211021 -0.860632E-08  0.546E-05    0.58      86.5  T
     SCC iter.                  ...        0 min,  5.913 sec
     gradient                   ...        0 min,  1.304 sec
 * total energy  :  -768.0027534 Eh     change       -0.2271988E-02 Eh
   gradient norm :     0.0031379 Eh/α   predicted    -0.2185830E-02 (  -3.79%)
   displ. norm   :     0.8914592 α      lambda       -0.2163430E-02
   maximum displ.:     0.4683334 α      in ANC's #23, #58, #36, ...

........................................................................
.............................. CYCLE   37 ..............................
........................................................................
   1   -780.2266442 -0.780227E+03  0.120E-03    0.58       0.0  T
   2   -780.2266445 -0.319110E-06  0.703E-04    0.58       6.7  T
   3   -780.2266446 -0.612838E-07  0.438E-04    0.58      10.8  T
   4   -780.2266447 -0.696492E-07  0.334E-04    0.58      14.1  T
   5   -780.2266448 -0.135644E-06  0.845E-05    0.58      55.9  T
   6   -780.2266448 -0.553030E-08  0.462E-05    0.58     102.2  T
     SCC iter.                  ...        0 min,  5.901 sec
     gradient                   ...        0 min,  1.380 sec
 * total energy  :  -768.0048010 Eh     change       -0.2047646E-02 Eh
   gradient norm :     0.0029114 Eh/α   predicted    -0.1941357E-02 (  -5.19%)
   displ. norm   :     0.8732022 α      lambda       -0.1946890E-02
   maximum displ.:     0.4808032 α      in ANC's #23, #36, #58, ...

........................................................................
.............................. CYCLE   38 ..............................
........................................................................
   1   -780.2316291 -0.780232E+03  0.110E-03    0.58       0.0  T
   2   -780.2316294 -0.294378E-06  0.655E-04    0.58       7.2  T
   3   -780.2316294 -0.626973E-07  0.388E-04    0.58      12.2  T
   4   -780.2316295 -0.294503E-07  0.320E-04    0.58      14.8  T
   5   -780.2316296 -0.124257E-06  0.765E-05    0.58      61.7  T
   6   -780.2316296 -0.464036E-08  0.435E-05    0.58     108.5  T
     SCC iter.                  ...        0 min,  5.931 sec
     gradient                   ...        0 min,  1.293 sec
 * total energy  :  -768.0066474 Eh     change       -0.1846365E-02 Eh
   gradient norm :     0.0027761 Eh/α   predicted    -0.1715682E-02 (  -7.08%)
   displ. norm   :     0.8532975 α      lambda       -0.1762824E-02
   maximum displ.:     0.4898059 α      in ANC's #23, #36, #58, ...

........................................................................
.............................. CYCLE   39 ..............................
........................................................................
   1   -780.2366611 -0.780237E+03  0.105E-03    0.58       0.0  T
   2   -780.2366613 -0.232011E-06  0.604E-04    0.58       7.8  T
   3   -780.2366614 -0.292945E-07  0.372E-04    0.58      12.7  T
   4   -780.2366614 -0.415439E-07  0.284E-04    0.58      16.6  T
   5   -780.2366615 -0.977118E-07  0.703E-05    0.58      67.3  T
   6   -780.2366615 -0.407692E-08  0.368E-05    0.58     128.4  T
     SCC iter.                  ...        0 min,  5.883 sec
     gradient                   ...        0 min,  1.297 sec
 * total energy  :  -768.0083211 Eh     change       -0.1673770E-02 Eh
   gradient norm :     0.0027441 Eh/α   predicted    -0.1523186E-02 (  -9.00%)
   displ. norm   :     0.8314190 α      lambda       -0.1606657E-02
   maximum displ.:     0.4953121 α      in ANC's #23, #36, #58, ...

........................................................................
.............................. CYCLE   40 ..............................
........................................................................
   1   -780.2413325 -0.780241E+03  0.977E-04    0.58       0.0  T
   2   -780.2413328 -0.242984E-06  0.590E-04    0.58       8.0  T
   3   -780.2413328 -0.562429E-07  0.346E-04    0.58      13.7  T
   4   -780.2413328 -0.346824E-08  0.277E-04    0.58      17.1  T
   5   -780.2413329 -0.919873E-07  0.683E-05    0.58      69.2  T
   6   -780.2413329 -0.442515E-08  0.342E-05    0.58     138.2  T
     SCC iter.                  ...        0 min,  5.984 sec
     gradient                   ...        0 min,  1.311 sec
 * total energy  :  -768.0098492 Eh     change       -0.1528033E-02 Eh
   gradient norm :     0.0027824 Eh/α   predicted    -0.1358641E-02 ( -11.09%)
   displ. norm   :     0.8091200 α      lambda       -0.1475453E-02
   maximum displ.:     0.4979804 α      in ANC's #23, #36, #24, ...

........................................................................
.............................. CYCLE   41 ..............................
........................................................................
   1   -780.2462784 -0.780246E+03  0.975E-04    0.58       0.0  T
   2   -780.2462785 -0.165252E-06  0.565E-04    0.58       8.4  T
   3   -780.2462785 -0.132152E-07  0.355E-04    0.58      13.3  T
   4   -780.2462786 -0.455697E-07  0.246E-04    0.58      19.2  T
   5   -780.2462787 -0.692090E-07  0.671E-05    0.58      70.5  T
   6   -780.2462787 -0.505679E-08  0.320E-05    0.58     147.8  T
     SCC iter.                  ...        0 min,  6.055 sec
     gradient                   ...        0 min,  1.301 sec
 * total energy  :  -768.0112575 Eh     change       -0.1408360E-02 Eh
   gradient norm :     0.0027526 Eh/α   predicted    -0.1220698E-02 ( -13.32%)
   displ. norm   :     0.7885801 α      lambda       -0.1370045E-02
   maximum displ.:     0.5000877 α      in ANC's #23, #36, #24, ...

........................................................................
.............................. CYCLE   42 ..............................
........................................................................
   1   -780.2505530 -0.780251E+03  0.921E-04    0.58       0.0  T
   2   -780.2505532 -0.181183E-06  0.552E-04    0.58       8.6  T
   3   -780.2505532 -0.433886E-07  0.339E-04    0.58      13.9  T
   4   -780.2505533 -0.241128E-07  0.231E-04    0.58      20.4  T
   5   -780.2505533 -0.613766E-07  0.623E-05    0.58      75.9  T
   6   -780.2505533 -0.403065E-08  0.271E-05    0.58     174.1  T
     SCC iter.                  ...        0 min,  5.893 sec
     gradient                   ...        0 min,  1.292 sec
 * total energy  :  -768.0125703 Eh     change       -0.1312789E-02 Eh
   gradient norm :     0.0027057 Eh/α   predicted    -0.1111009E-02 ( -15.37%)
   displ. norm   :     0.7708428 α      lambda       -0.1288201E-02
   maximum displ.:     0.5013899 α      in ANC's #23, #24, #36, ...
 * RMSD in coord.:     0.8587578 α      energy gain  -0.8813591E-01 Eh

generating ANC from model Hessian ...
Using Lindh-Hessian (1995)
 Shifting diagonal of input Hessian by    1.0007024290598115E-002
 Lowest  eigenvalues of input Hessian
    0.010000    0.010002    0.010004    0.010006    0.010006    0.010006
    0.010006    0.000000    0.000000    0.000000    0.000000    0.000000
    0.000000    0.010007    0.010008    0.010010    0.010011    0.010013
 Highest eigenvalues
    2.581537    2.581699    2.591064    2.591087    2.607664    2.609565


........................................................................
.............................. CYCLE   43 ..............................
........................................................................
   1   -780.2558083 -0.780256E+03  0.888E-04    0.58       0.0  T
   2   -780.2558084 -0.129086E-06  0.514E-04    0.58       9.2  T
   3   -780.2558084 -0.986336E-08  0.337E-04    0.58      14.0  T
   4   -780.2558084 -0.482745E-07  0.211E-04    0.58      22.4  T
   5   -780.2558085 -0.475846E-07  0.723E-05    0.58      65.4  T
   6   -780.2558085 -0.783712E-08  0.285E-05    0.58     165.9  T
     SCC iter.                  ...        0 min,  5.879 sec
     gradient                   ...        0 min,  1.297 sec
 * total energy  :  -768.0138078 Eh     change       -0.1237516E-02 Eh
   gradient norm :     0.0025777 Eh/α   predicted     0.0000000E+00 (-100.00%)
   displ. norm   :     0.1701572 α      lambda       -0.3132636E-03
   maximum displ.:     0.1564705 α      in ANC's #24, #81, #28, ...

........................................................................
.............................. CYCLE   44 ..............................
........................................................................
   1   -780.2566338 -0.780257E+03  0.401E-04    0.58       0.0  T
   2   -780.2566338 -0.249680E-07  0.197E-04    0.58      23.9  T
   3   -780.2566338 -0.143825E-08  0.130E-04    0.58      36.4  T
     SCC iter.                  ...        0 min,  2.958 sec
     gradient                   ...        0 min,  1.296 sec
 * total energy  :  -768.0141159 Eh     change       -0.3080435E-03 Eh
   gradient norm :     0.0019870 Eh/α   predicted    -0.1613394E-03 ( -47.62%)
   displ. norm   :     0.4000924 α      lambda       -0.4666763E-03
   maximum displ.:     0.3223376 α      in ANC's #24, #81, #28, ...

........................................................................
.............................. CYCLE   45 ..............................
........................................................................
   1   -780.2582367 -0.780258E+03  0.757E-04    0.58       0.0  T
   2   -780.2582368 -0.106057E-06  0.354E-04    0.58      13.3  T
   3   -780.2582368 -0.525745E-08  0.221E-04    0.58      21.4  T
   4   -780.2582368  0.106952E-07  0.142E-04    0.58      33.2  T
   5   -780.2582368 -0.270488E-07  0.435E-05    0.58     108.6  T
     SCC iter.                  ...        0 min,  4.905 sec
     gradient                   ...        0 min,  1.298 sec
 * total energy  :  -768.0147952 Eh     change       -0.6793422E-03 Eh
   gradient norm :     0.0024291 Eh/α   predicted    -0.2499389E-03 ( -63.21%)
   displ. norm   :     0.4089665 α      lambda       -0.6747619E-03
   maximum displ.:     0.3047425 α      in ANC's #24, #28, #30, ...

........................................................................
.............................. CYCLE   46 ..............................
........................................................................
   1   -780.2604472 -0.780260E+03  0.474E-04    0.58       0.0  T
   2   -780.2604473 -0.381046E-07  0.265E-04    0.58      17.8  T
   3   -780.2604473 -0.585146E-08  0.177E-04    0.58      26.7  T
   4   -780.2604473 -0.147672E-07  0.109E-04    0.58      43.2  T
     SCC iter.                  ...        0 min,  3.930 sec
     gradient                   ...        0 min,  1.289 sec
 * total energy  :  -768.0154484 Eh     change       -0.6531795E-03 Eh
   gradient norm :     0.0024211 Eh/α   predicted    -0.3938097E-03 ( -39.71%)
   displ. norm   :     0.5447512 α      lambda       -0.8533676E-03
   maximum displ.:     0.3936999 α      in ANC's #24, #28, #30, ...

........................................................................
.............................. CYCLE   47 ..............................
........................................................................
   1   -780.2638053 -0.780264E+03  0.681E-04    0.58       0.0  T
   2   -780.2638053 -0.627965E-07  0.399E-04    0.58      11.9  T
   3   -780.2638053  0.115979E-07  0.282E-04    0.58      16.7  T
   4   -780.2638054 -0.435468E-07  0.171E-04    0.58      27.7  T
   5   -780.2638054 -0.376971E-07  0.543E-05    0.58      86.9  T
     SCC iter.                  ...        0 min,  4.911 sec
     gradient                   ...        0 min,  1.300 sec
 * total energy  :  -768.0162755 Eh     change       -0.8270884E-03 Eh
   gradient norm :     0.0020696 Eh/α   predicted    -0.5533103E-03 ( -33.10%)
   displ. norm   :     0.6167378 α      lambda       -0.9144795E-03
   maximum displ.:     0.4434026 α      in ANC's #24, #28, #30, ...

........................................................................
.............................. CYCLE   48 ..............................
........................................................................
   1   -780.2673823 -0.780267E+03  0.688E-04    0.58       0.0  T
   2   -780.2673824 -0.849377E-07  0.421E-04    0.58      11.2  T
   3   -780.2673824 -0.327053E-07  0.271E-04    0.58      17.4  T
   4   -780.2673824 -0.334395E-07  0.168E-04    0.58      28.1  T
   5   -780.2673825 -0.272654E-07  0.604E-05    0.58      78.2  T
     SCC iter.                  ...        0 min,  4.911 sec
     gradient                   ...        0 min,  1.305 sec
 * total energy  :  -768.0171604 Eh     change       -0.8849446E-03 Eh
   gradient norm :     0.0021722 Eh/α   predicted    -0.6311610E-03 ( -28.68%)
   displ. norm   :     0.6287110 α      lambda       -0.8887130E-03
   maximum displ.:     0.4536394 α      in ANC's #24, #28, #30, ...

........................................................................
.............................. CYCLE   49 ..............................
........................................................................
   1   -780.2711626 -0.780271E+03  0.667E-04    0.58       0.0  T
   2   -780.2711627 -0.863485E-07  0.417E-04    0.58      11.3  T
   3   -780.2711628 -0.549658E-07  0.258E-04    0.58      18.3  T
   4   -780.2711628 -0.320443E-07  0.159E-04    0.58      29.7  T
   5   -780.2711628 -0.218932E-07  0.571E-05    0.58      82.7  T
     SCC iter.                  ...        0 min,  4.977 sec
     gradient                   ...        0 min,  1.307 sec
 * total energy  :  -768.0180219 Eh     change       -0.8614122E-03 Eh
   gradient norm :     0.0023608 Eh/α   predicted    -0.6200017E-03 ( -28.02%)
   displ. norm   :     0.6146653 α      lambda       -0.8363291E-03
   maximum displ.:     0.4465841 α      in ANC's #24, #28, #30, ...

........................................................................
.............................. CYCLE   50 ..............................
........................................................................
   1   -780.2748856 -0.780275E+03  0.617E-04    0.58       0.0  T
   2   -780.2748857 -0.639823E-07  0.394E-04    0.58      12.0  T
   3   -780.2748857 -0.602863E-07  0.242E-04    0.58      19.5  T
   4   -780.2748858 -0.349381E-07  0.139E-04    0.58      34.0  T
   5   -780.2748858 -0.144518E-07  0.509E-05    0.58      92.8  T
     SCC iter.                  ...        0 min,  5.041 sec
     gradient                   ...        0 min,  1.319 sec
 * total energy  :  -768.0188343 Eh     change       -0.8124511E-03 Eh
   gradient norm :     0.0022831 Eh/α   predicted    -0.5761538E-03 ( -29.08%)
   displ. norm   :     0.5947497 α      lambda       -0.7837558E-03
   maximum displ.:     0.4354121 α      in ANC's #24, #28, #30, ...

........................................................................
.............................. CYCLE   51 ..............................
........................................................................
   1   -780.2783972 -0.780278E+03  0.581E-04    0.58       0.0  T
   2   -780.2783973 -0.531375E-07  0.372E-04    0.58      12.7  T
   3   -780.2783973 -0.560225E-07  0.228E-04    0.58      20.7  T
   4   -780.2783973 -0.329582E-07  0.127E-04    0.58      37.2  T
   5   -780.2783974 -0.117311E-07  0.441E-05    0.58     107.1  T
     SCC iter.                  ...        0 min,  4.915 sec
     gradient                   ...        0 min,  1.296 sec
 * total energy  :  -768.0195969 Eh     change       -0.7626367E-03 Eh
   gradient norm :     0.0020420 Eh/α   predicted    -0.5305011E-03 ( -30.44%)
   displ. norm   :     0.5765302 α      lambda       -0.7386065E-03
   maximum displ.:     0.4251673 α      in ANC's #24, #28, #30, ...

........................................................................
.............................. CYCLE   52 ..............................
........................................................................
   1   -780.2817074 -0.780282E+03  0.543E-04    0.58       0.0  T
   2   -780.2817074 -0.435087E-07  0.341E-04    0.58      13.9  T
   3   -780.2817075 -0.419579E-07  0.215E-04    0.58      22.0  T
   4   -780.2817075 -0.308221E-07  0.115E-04    0.58      41.2  T
   5   -780.2817075 -0.977377E-08  0.351E-05    0.58     134.5  T
     SCC iter.                  ...        0 min,  4.915 sec
     gradient                   ...        0 min,  1.298 sec
 * total energy  :  -768.0203160 Eh     change       -0.7190876E-03 Eh
   gradient norm :     0.0017992 Eh/α   predicted    -0.4920610E-03 ( -31.57%)
   displ. norm   :     0.8408673 α      lambda       -0.7006974E-03
   maximum displ.:     0.6239152 α      in ANC's #24, #28, #30, ...

........................................................................
.............................. CYCLE   53 ..............................
........................................................................
   1   -780.2858657 -0.780286E+03  0.752E-04    0.58       0.0  T
   2   -780.2858658 -0.933683E-07  0.453E-04    0.58      10.4  T
   3   -780.2858659 -0.595587E-07  0.293E-04    0.58      16.1  T
   4   -780.2858660 -0.573779E-07  0.161E-04    0.58      29.4  T
   5   -780.2858660 -0.203177E-07  0.486E-05    0.58      97.3  T
     SCC iter.                  ...        0 min,  4.916 sec
     gradient                   ...        0 min,  1.296 sec
 * total energy  :  -768.0213232 Eh     change       -0.1007118E-02 Eh
   gradient norm :     0.0018065 Eh/α   predicted    -0.4604474E-03 ( -54.28%)
   displ. norm   :     0.8004123 α      lambda       -0.6492655E-03
   maximum displ.:     0.5985795 α      in ANC's #24, #28, #30, ...

........................................................................
.............................. CYCLE   54 ..............................
........................................................................
   1   -780.2898165 -0.780290E+03  0.672E-04    0.58       0.0  T
   2   -780.2898165 -0.804895E-07  0.396E-04    0.58      11.9  T
   3   -780.2898166 -0.357909E-07  0.260E-04    0.58      18.2  T
   4   -780.2898166 -0.407027E-07  0.146E-04    0.58      32.5  T
   5   -780.2898166 -0.179615E-07  0.441E-05    0.58     107.1  T
     SCC iter.                  ...        0 min,  4.904 sec
     gradient                   ...        0 min,  1.302 sec
 * total energy  :  -768.0222398 Eh     change       -0.9166310E-03 Eh
   gradient norm :     0.0020175 Eh/α   predicted    -0.4170691E-03 ( -54.50%)
   displ. norm   :     0.5027854 α      lambda       -0.5891932E-03
   maximum displ.:     0.3794875 α      in ANC's #24, #28, #30, ...

........................................................................
.............................. CYCLE   55 ..............................
........................................................................
   1   -780.2929299 -0.780293E+03  0.415E-04    0.58       0.0  T
   2   -780.2929300 -0.317557E-07  0.236E-04    0.58      20.0  T
   3   -780.2929300 -0.569548E-08  0.158E-04    0.58      29.8  T
   4   -780.2929300 -0.126207E-07  0.903E-05    0.58      52.3  T
     SCC iter.                  ...        0 min,  3.997 sec
     gradient                   ...        0 min,  1.314 sec
 * total energy  :  -768.0228139 Eh     change       -0.5741200E-03 Eh
   gradient norm :     0.0016127 Eh/α   predicted    -0.3690719E-03 ( -35.72%)
   displ. norm   :     0.7400097 α      lambda       -0.5628795E-03
   maximum displ.:     0.5606284 α      in ANC's #24, #28, #30, ...

........................................................................
.............................. CYCLE   56 ..............................
........................................................................
   1   -780.2968453 -0.780297E+03  0.588E-04    0.58       0.0  T
   2   -780.2968454 -0.777339E-07  0.312E-04    0.58      15.1  T
   3   -780.2968454 -0.448756E-08  0.213E-04    0.58      22.1  T
   4   -780.2968454 -0.139044E-07  0.134E-04    0.58      35.3  T
   5   -780.2968454 -0.200882E-07  0.399E-05    0.58     118.3  T
     SCC iter.                  ...        0 min,  5.263 sec
     gradient                   ...        0 min,  1.394 sec
 * total energy  :  -768.0236289 Eh     change       -0.8149545E-03 Eh
   gradient norm :     0.0015938 Eh/α   predicted    -0.3499397E-03 ( -57.06%)
   displ. norm   :     0.7077826 α      lambda       -0.5190409E-03
   maximum displ.:     0.5381603 α      in ANC's #24, #28, #30, ...

........................................................................
.............................. CYCLE   57 ..............................
........................................................................
   1   -780.2998341 -0.780300E+03  0.539E-04    0.58       0.0  T
   2   -780.2998342 -0.699728E-07  0.277E-04    0.58      17.1  T
   3   -780.2998342 -0.609555E-08  0.183E-04    0.58      25.8  T
   4   -780.2998342 -0.431021E-08  0.116E-04    0.58      40.8  T
     SCC iter.                  ...        0 min,  4.527 sec
     gradient                   ...        0 min,  1.423 sec
 * total energy  :  -768.0243841 Eh     change       -0.7552608E-03 Eh
   gradient norm :     0.0016551 Eh/α   predicted    -0.3173021E-03 ( -57.99%)
   displ. norm   :     0.6820475 α      lambda       -0.4900081E-03
   maximum displ.:     0.5204373 α      in ANC's #24, #28, #30, ...

........................................................................
.............................. CYCLE   58 ..............................
........................................................................
   1   -780.3030760 -0.780303E+03  0.525E-04    0.58       0.0  T
   2   -780.3030761 -0.637192E-07  0.265E-04    0.58      17.8  T
   3   -780.3030761  0.225145E-08  0.185E-04    0.58      25.6  T
   4   -780.3030761 -0.169905E-08  0.129E-04    0.58      36.7  T
     SCC iter.                  ...        0 min,  4.004 sec
     gradient                   ...        0 min,  1.306 sec
 * total energy  :  -768.0250929 Eh     change       -0.7087961E-03 Eh
   gradient norm :     0.0017109 Eh/α   predicted    -0.2956595E-03 ( -58.29%)
   displ. norm   :     0.6596809 α      lambda       -0.4596613E-03
   maximum displ.:     0.5051789 α      in ANC's #24, #28, #30, ...

........................................................................
.............................. CYCLE   59 ..............................
........................................................................
   1   -780.3058011 -0.780306E+03  0.510E-04    0.58       0.0  T
   2   -780.3058012 -0.671384E-07  0.259E-04    0.58      18.2  T
   3   -780.3058012 -0.958039E-09  0.175E-04    0.58      27.1  T
   4   -780.3058012  0.762373E-08  0.128E-04    0.58      36.9  T
     SCC iter.                  ...        0 min,  3.991 sec
     gradient                   ...        0 min,  1.347 sec
 * total energy  :  -768.0257602 Eh     change       -0.6672666E-03 Eh
   gradient norm :     0.0016259 Eh/α   predicted    -0.2742838E-03 ( -58.89%)
   displ. norm   :     0.6335803 α      lambda       -0.4268270E-03
   maximum displ.:     0.4876356 α      in ANC's #24, #28, #30, ...

........................................................................
.............................. CYCLE   60 ..............................
........................................................................
   1   -780.3084891 -0.780308E+03  0.555E-04    0.58       0.0  T
   2   -780.3084892 -0.684767E-07  0.269E-04    0.58      17.6  T
   3   -780.3084892  0.647981E-08  0.186E-04    0.58      25.4  T
[...]
   190   6 C      220   1 H                                       1.0860676
   191   6 C      221   1 H                                       1.0835630
   193   6 C      222   1 H                                       1.0778853
   194   6 C      223   1 H                                       1.0775756
   199   6 C      224   1 H                                       1.0772077
   200   6 C      225   1 H                                       1.0776735
   202   7 N      226   1 H                                       1.0144165
   205   6 C      227   1 H                                       1.0834629
   206   6 C      228   1 H                                       1.0860565
   208   6 C      229   1 H                                       1.0860821
   209   6 C      230   1 H                                       1.0835766
   211   6 C      231   1 H                                       1.0778847
   212   6 C      232   1 H                                       1.0777136
   233   6 C      234   6 C                                       1.4092646
   234   6 C      235   6 C                                       1.4177768
   235   6 C      236   6 C                                       1.3684370
   236   6 C      237   6 C                                       1.4208735
   234   6 C      238   7 N                                       1.3634870
   237   6 C      238   7 N                                       1.3689992
   237   6 C      239   6 C                                       1.4008734
   240   6 C      241   6 C                                       1.3946711
   241   6 C      242   6 C                                       1.3858638
   242   6 C      243   7 N                                       1.3291527
   243   7 N      244   6 C                                       1.3291078
   240   6 C      245   6 C                                       1.3948226
   244   6 C      245   6 C                                       1.3858720
   239   6 C      246   6 C                                       1.3956290
   246   6 C      247   6 C                                       1.4515006
   247   6 C      248   6 C                                       1.3492747
   246   6 C      249   7 N                                       1.3619468
   248   6 C      250   6 C                                       1.4485434
   249   7 N      250   6 C                                       1.3484808
   250   6 C      251   6 C                                       1.4105835
   251   6 C      252   6 C                                       1.4092917
   252   6 C      253   6 C                                       1.4177697
   253   6 C      254   6 C                                       1.3684118
   254   6 C      255   6 C                                       1.4208968
   252   6 C      256   7 N                                       1.3635005
   255   6 C      256   7 N                                       1.3690590
   255   6 C      257   6 C                                       1.4008573
   258   6 C      259   6 C                                       1.3947196
   259   6 C      260   6 C                                       1.3858462
   260   6 C      261   7 N                                       1.3291614
   261   7 N      262   6 C                                       1.3290940
   258   6 C      263   6 C                                       1.3948372
   262   6 C      263   6 C                                       1.3858897
   257   6 C      264   6 C                                       1.3957764
   264   6 C      265   6 C                                       1.4515015
   265   6 C      266   6 C                                       1.3493037
   233   6 C      267   6 C                                       1.4105188
   266   6 C      267   6 C                                       1.4485076
   264   6 C      268   7 N                                       1.3618373
   267   6 C      268   7 N                                       1.3486199
   235   6 C      269   1 H                                       1.0771707
   236   6 C      270   1 H                                       1.0776695
   238   7 N      271   1 H                                       1.0143989
   241   6 C      272   1 H                                       1.0834445
   242   6 C      273   1 H                                       1.0860520
   244   6 C      274   1 H                                       1.0860675
   245   6 C      275   1 H                                       1.0835758
   247   6 C      276   1 H                                       1.0778822
   248   6 C      277   1 H                                       1.0776129
   253   6 C      278   1 H                                       1.0771408
   254   6 C      279   1 H                                       1.0776673
   256   7 N      280   1 H                                       1.0143919 (min)
   259   6 C      281   1 H                                       1.0834398
   260   6 C      282   1 H                                       1.0860518
   262   6 C      283   1 H                                       1.0860613
   263   6 C      284   1 H                                       1.0835728
   265   6 C      285   1 H                                       1.0778828
   266   6 C      286   1 H                                       1.0776144
   287   6 C      288   6 C                                       1.4094148
   288   6 C      289   6 C                                       1.4177867
   289   6 C      290   6 C                                       1.3685005
   290   6 C      291   6 C                                       1.4209177
   288   6 C      292   7 N                                       1.3633748
   291   6 C      292   7 N                                       1.3691312
   291   6 C      293   6 C                                       1.4007409
   294   6 C      295   6 C                                       1.3948769
   295   6 C      296   6 C                                       1.3857161
   296   6 C      297   7 N                                       1.3292477
   297   7 N      298   6 C                                       1.3290276
   294   6 C      299   6 C                                       1.3947230
   298   6 C      299   6 C                                       1.3860159
   293   6 C      300   6 C                                       1.3959759
   300   6 C      301   6 C                                       1.4515010
   301   6 C      302   6 C                                       1.3492716
   300   6 C      303   7 N                                       1.3617441
   302   6 C      304   6 C                                       1.4484588
   303   7 N      304   6 C                                       1.3487727
   304   6 C      305   6 C                                       1.4104485
   305   6 C      306   6 C                                       1.4093169
   306   6 C      307   6 C                                       1.4177971
   307   6 C      308   6 C                                       1.3684776
   308   6 C      309   6 C                                       1.4208904
   306   6 C      310   7 N                                       1.3633645
   309   6 C      310   7 N                                       1.3690424
   309   6 C      311   6 C                                       1.4006844
   312   6 C      313   6 C                                       1.3947948
   313   6 C      314   6 C                                       1.3857484
   314   6 C      315   7 N                                       1.3292367
   315   7 N      316   6 C                                       1.3290266
   312   6 C      317   6 C                                       1.3946772
   316   6 C      317   6 C                                       1.3860006
   311   6 C      318   6 C                                       1.3957767
   318   6 C      319   6 C                                       1.4514777
   319   6 C      320   6 C                                       1.3492181
   287   6 C      321   6 C                                       1.4104531
   320   6 C      321   6 C                                       1.4484950
   318   6 C      322   7 N                                       1.3617989
   321   6 C      322   7 N                                       1.3486695
   289   6 C      323   1 H                                       1.0772150
   290   6 C      324   1 H                                       1.0776712
   292   7 N      325   1 H                                       1.0144134
   295   6 C      326   1 H                                       1.0834634
   296   6 C      327   1 H                                       1.0860565
   298   6 C      328   1 H                                       1.0860770
   299   6 C      329   1 H                                       1.0835663
   301   6 C      330   1 H                                       1.0778882
   302   6 C      331   1 H                                       1.0775600
   307   6 C      332   1 H                                       1.0772213
   308   6 C      333   1 H                                       1.0776680
   310   7 N      334   1 H                                       1.0144204
   313   6 C      335   1 H                                       1.0834598
   314   6 C      336   1 H                                       1.0860520
   316   6 C      337   1 H                                       1.0860721
   317   6 C      338   1 H                                       1.0835613
   319   6 C      339   1 H                                       1.0778812
   320   6 C      340   1 H                                       1.0775401
   341   6 C      342   6 C                                       1.4093094
   342   6 C      343   6 C                                       1.4178428
   343   6 C      344   6 C                                       1.3683471
   344   6 C      345   6 C                                       1.4208996
   342   6 C      346   7 N                                       1.3633808
   345   6 C      346   7 N                                       1.3691123
   345   6 C      347   6 C                                       1.4005974
   348   6 C      349   6 C                                       1.3946977
   349   6 C      350   6 C                                       1.3858239
   350   6 C      351   7 N                                       1.3291903
   351   7 N      352   6 C                                       1.3290671
   348   6 C      353   6 C                                       1.3947468
   352   6 C      353   6 C                                       1.3859256
   347   6 C      354   6 C                                       1.3957700
   354   6 C      355   6 C                                       1.4515192
   355   6 C      356   6 C                                       1.3492552
   354   6 C      357   7 N                                       1.3616276
   356   6 C      358   6 C                                       1.4486428
   357   7 N      358   6 C                                       1.3487033
   358   6 C      359   6 C                                       1.4101465
   359   6 C      360   6 C                                       1.4089566
   360   6 C      361   6 C                                       1.4179521
   361   6 C      362   6 C                                       1.3684613
   362   6 C      363   6 C                                       1.4210213
   360   6 C      364   7 N                                       1.3635224
   363   6 C      364   7 N                                       1.3689904
   363   6 C      365   6 C                                       1.4008523
   366   6 C      367   6 C                                       1.3948031
   367   6 C      368   6 C                                       1.3857739
   368   6 C      369   7 N                                       1.3292226
   369   7 N      370   6 C                                       1.3290628
   366   6 C      371   6 C                                       1.3947374
   370   6 C      371   6 C                                       1.3859857
   365   6 C      372   6 C                                       1.3958572
   372   6 C      373   6 C                                       1.4516006
   373   6 C      374   6 C                                       1.3492623
   341   6 C      375   6 C                                       1.4104358
   374   6 C      375   6 C                                       1.4485763
   372   6 C      376   7 N                                       1.3618484
   375   6 C      376   7 N                                       1.3486517
   343   6 C      377   1 H                                       1.0771421
   344   6 C      378   1 H                                       1.0776671
   346   7 N      379   1 H                                       1.0144073
   349   6 C      380   1 H                                       1.0834475
   350   6 C      381   1 H                                       1.0860469
   352   6 C      382   1 H                                       1.0860587
   353   6 C      383   1 H                                       1.0835716
   355   6 C      384   1 H                                       1.0778827
   356   6 C      385   1 H                                       1.0776743
   361   6 C      386   1 H                                       1.0773351
   362   6 C      387   1 H                                       1.0776786
   364   7 N      388   1 H                                       1.0144101
   367   6 C      389   1 H                                       1.0834654
   368   6 C      390   1 H                                       1.0860596
   370   6 C      391   1 H                                       1.0860817
   371   6 C      392   1 H                                       1.0835769
   373   6 C      393   1 H                                       1.0778933
   374   6 C      394   1 H                                       1.0776428
   395   6 C      396   6 C                                       1.4087620
   396   6 C      397   6 C                                       1.4183255
   397   6 C      398   6 C                                       1.3679661
   398   6 C      399   6 C                                       1.4212751
   396   6 C      400   7 N                                       1.3635118
   399   6 C      400   7 N                                       1.3692875
   399   6 C      401   6 C                                       1.4001267
   402   6 C      403   6 C                                       1.3943823
   403   6 C      404   6 C                                       1.3859720
   404   6 C      405   7 N                                       1.3291307
   405   7 N      406   6 C                                       1.3290357
   402   6 C      407   6 C                                       1.3945804
   406   6 C      407   6 C                                       1.3859799
   401   6 C      408   6 C                                       1.3958199
   408   6 C      409   6 C                                       1.4520482
   409   6 C      410   6 C                                       1.3487633
   408   6 C      411   7 N                                       1.3611077
   410   6 C      412   6 C                                       1.4492639
   411   7 N      412   6 C                                       1.3495700
   412   6 C      413   6 C                                       1.4081798
   413   6 C      414   6 C                                       1.4077341
   414   6 C      415   6 C                                       1.4185981
   415   6 C      416   6 C                                       1.3680378
   416   6 C      417   6 C                                       1.4212474
   414   6 C      418   7 N                                       1.3636254
   417   6 C      418   7 N                                       1.3689513
   417   6 C      419   6 C                                       1.4003422
   420   6 C      421   6 C                                       1.3944991
   421   6 C      422   6 C                                       1.3858540
   422   6 C      423   7 N                                       1.3291697
   423   7 N      424   6 C                                       1.3290109
   420   6 C      425   6 C                                       1.3944460
   424   6 C      425   6 C                                       1.3860298
   419   6 C      426   6 C                                       1.3953772
   426   6 C      427   6 C                                       1.4516674
   427   6 C      428   6 C                                       1.3489851
   395   6 C      429   6 C                                       1.4101072
   428   6 C      429   6 C                                       1.4489762
   426   6 C      430   7 N                                       1.3619004
   429   6 C      430   7 N                                       1.3485090
   397   6 C      431   1 H                                       1.0772675
   398   6 C      432   1 H                                       1.0776793
   400   7 N      433   1 H                                       1.0144390
   403   6 C      434   1 H                                       1.0834230
   404   6 C      435   1 H                                       1.0860560
   406   6 C      436   1 H                                       1.0860777
   407   6 C      437   1 H                                       1.0835696
   409   6 C      438   1 H                                       1.0778147
   410   6 C      439   1 H                                       1.0777404
   415   6 C      440   1 H                                       1.0776404
   416   6 C      441   1 H                                       1.0776563
   418   7 N      442   1 H                                       1.0145276
   421   6 C      443   1 H                                       1.0834487
   422   6 C      444   1 H                                       1.0860540
   424   6 C      445   1 H                                       1.0860699
   425   6 C      446   1 H                                       1.0835453
   427   6 C      447   1 H                                       1.0778742
   428   6 C      448   1 H                                       1.0777000

 * 4 distinct bonds (by element types)

   Z      Z             #   av. dist./Å        max./Å        min./Å
   1 H    6 C         130     1.0813207     1.0861165     1.0771408
   6 C    6 C         229     1.3960578     1.4525215     1.2170875
   1 H    7 N          16     1.0144703     1.0147280     1.0143919
   6 C    7 N          96     1.3501929     1.3698066     1.3290050


optimized geometry written to: xtbopt.xyz


           -------------------------------------------------
          | TOTAL ENERGY             -768.042104133084 Eh   |
          | GRADIENT NORM               0.000475394416 Eh/α |
          | HOMO-LUMO GAP               0.594742185903 eV   |
           -------------------------------------------------

------------------------------------------------------------------------
 * finished run on 2022/07/27 at 04:17:08.716     
------------------------------------------------------------------------
 total:
 * wall-time:     0 d,  0 h, 17 min, 51.349 sec
 *  cpu-time:     0 d,  0 h, 17 min, 46.750 sec
 * ratio c/w:     0.996 speedup
 SCF:
 * wall-time:     0 d,  0 h,  0 min, 33.847 sec
 *  cpu-time:     0 d,  0 h,  0 min, 33.697 sec
 * ratio c/w:     0.996 speedup
 ANC optimizer:
 * wall-time:     0 d,  0 h, 17 min, 16.951 sec
 *  cpu-time:     0 d,  0 h, 17 min, 12.515 sec
 * ratio c/w:     0.996 speedup

