      -----------------------------------------------------------      
     |                   =====================                   |     
     |                           x T B                           |     
     |                   =====================                   |     
     |                         S. Grimme                         |     
     |          Mulliken Center for Theoretical Chemistry        |     
     |                    University of Bonn                     |     
      -----------------------------------------------------------      

   * xtb version 6.5.1 (b24c23e) compiled by 'conda@728c89f4b128' on 2022-07-12

   xtb is free software: you can redistribute it and/or modify it under
   the terms of the GNU Lesser General Public License as published by
   the Free Software Foundation, either version 3 of the License, or
   (at your option) any later version.
   
   xtb is distributed in the hope that it will be useful,
   but WITHOUT ANY WARRANTY; without even the implied warranty of
   MERCHANTABILITY or FITNESS FOR A PARTICULAR PURPOSE.  See the
   GNU Lesser General Public License for more details.
   
   Cite this work as:
   * C. Bannwarth, E. Caldeweyher, S. Ehlert, A. Hansen, P. Pracht,
     J. Seibert, S. Spicher, S. Grimme, WIREs Comput. Mol. Sci., 2020, 11,
     e01493. DOI: 10.1002/wcms.1493
   
   for GFN2-xTB:
   * C. Bannwarth, S. Ehlert and S. Grimme., J. Chem. Theory Comput., 2019,
     15, 1652-1671. DOI: 10.1021/acs.jctc.8b01176
   for GFN1-xTB:
   * S. Grimme, C. Bannwarth, P. Shushkov, J. Chem. Theory Comput., 2017,
     13, 1989-2009. DOI: 10.1021/acs.jctc.7b00118
   for GFN0-xTB:
   * P. Pracht, E. Caldeweyher, S. Ehlert, S. Grimme, ChemRxiv, 2019, preprint.
     DOI: 10.26434/chemrxiv.8326202.v1
   for GFN-FF:
   * S. Spicher and S. Grimme, Angew. Chem. Int. Ed., 2020, 59, 15665-15673.
     DOI: 10.1002/anie.202004239
   
   for ALPB and GBSA implicit solvation:
   * S. Ehlert, M. Stahn, S. Spicher, S. Grimme, J. Chem. Theory Comput.,
     2021, 17, 4250-4261. DOI: 10.1021/acs.jctc.1c00471
   
   for DFT-D4:
   * E. Caldeweyher, C. Bannwarth and S. Grimme, J. Chem. Phys., 2017,
     147, 034112. DOI: 10.1063/1.4993215
   * E. Caldeweyher, S. Ehlert, A. Hansen, H. Neugebauer, S. Spicher,
     C. Bannwarth and S. Grimme, J. Chem. Phys., 2019, 150, 154122.
     DOI: 10.1063/1.5090222
   * E. Caldeweyher, J.-M. Mewes, S. Ehlert and S. Grimme, Phys. Chem. Chem. Phys.
     2020, 22, 8499-8512. DOI: 10.1039/D0CP00502A
   
   for sTDA-xTB:
   * S. Grimme and C. Bannwarth, J. Chem. Phys., 2016, 145, 054103.
     DOI: 10.1063/1.4959605
   
   in the mass-spec context:
   * V. Asgeirsson, C. Bauer and S. Grimme, Chem. Sci., 2017, 8, 4879.
     DOI: 10.1039/c7sc00601b
   * J. Koopman and S. Grimme, ACS Omega 2019, 4, 12, 15120-15133.
     DOI: 10.1021/acsomega.9b02011
   
   for metadynamics refer to:
   * S. Grimme, J. Chem. Theory Comput., 2019, 155, 2847-2862
     DOI: 10.1021/acs.jctc.9b00143
   
   for SPH calculations refer to:
   * S. Spicher and S. Grimme, J. Chem. Theory Comput., 2021, 17, 1701-1714
     DOI: 10.1021/acs.jctc.0c01306
   
   with help from (in alphabetical order)
   P. Atkinson, C. Bannwarth, F. Bohle, G. Brandenburg, E. Caldeweyher
   M. Checinski, S. Dohm, S. Ehlert, S. Ehrlich, I. Gerasimov, C. Hölzer
   A. Katbashev, J. Koopman, C. Lavigne, S. Lehtola, F. März, M. Müller,
   F. Musil, H. Neugebauer, J. Pisarek, C. Plett, P. Pracht, F. Pultar,
   J. Seibert, P. Shushkov, S. Spicher, M. Stahn, M. Steiner, T. Strunk,
   J. Stückrath, T. Rose, and J. Unsleber
   
 * started run on 2022/07/28 at 13:14:09.480     

           -------------------------------------------------
          |                Calculation Setup                |
           -------------------------------------------------

          program call               : xtb PhOH_C2_8.xyz --gfn 1 --opt -T 48
          hostname                   : cx3-5-14.cx3.hpc.ic.ac.uk
          coordinate file            : PhOH_C2_8.xyz
          omp threads                :                     1

   ID    Z sym.   atoms
    1    6 C      1-5, 7-11, 13-17, 19-24, 26-30, 32-37, 60-64, 66-70, 72-76,
                  78-83, 85-89, 91-96, 119-137, 139-143, 145-149, 151-156,
                  158-162, 164-169, 191-195, 197-201, 203-207, 209-214,
                  216-220, 222-227, 249-253, 255-259, 261-265, 267-272,
                  274-278, 280-285, 307-311, 313-317, 319-323, 325-330,
                  332-336, 338-343, 365-369, 371-375, 377-381, 383-388,
                  390-394, 396-401, 423-427, 429-433, 435-439, 441-446,
                  448-452, 454-459
    2    7 N      6, 18, 25, 38, 65, 77, 84, 97, 138, 150, 157, 170, 196,
                  208, 215, 228, 254, 266, 273, 286, 312, 324, 331, 344, 370,
                  382, 389, 402, 428, 440, 447, 460
    3    8 O      12, 31, 71, 90, 144, 163, 202, 221, 260, 279, 318, 337,
                  376, 395, 434, 453
    4    1 H      39-59, 98-118, 171-190, 229-248, 287-306, 345-364, 403-422,
                  461-480

molecular fragmentation (1/2 indicates fragments):
111111111111111111111111111111111111111111111111111111111112222222222222
222222222222222222222222222222222222222222222222222222222222222222222222
222222222222222222222222222222222222222222222222222222222222222222222222
222222222222222222222222222222222222222222222222222222222222222222222222
222222222222222222222222222222222222222222222222222222222222222222222222
222222222222222222222222222222222222222222222222222222222222222222222222
222222222222222222222222222222222222222222222222
# atoms in fragment 1/2:    59   421
 fragment masses (1/2) :      493.54     3616.85
CMA distance (Bohr)    :  86.122
constraining FC (au)   :  0.0500
########################################################################
[WARNING] Please study the warnings concerning your input carefully
-1- prog_main_parseArguments: Unknown option '-T' provided
########################################################################

           -------------------------------------------------
          |                 G F N 1 - x T B                 |
           -------------------------------------------------

        Reference                      10.1021/acs.jctc.7b00118
      * Hamiltonian:
        H0-scaling (s, p, d)           1.850000    2.250000    2.000000
        zeta-weighting                 0.000000
      * Dispersion:
        s8                             2.400000
        a1                             0.630000
        a2                             5.000000
        s9                             0.000000
      * Repulsion:
        kExp                           1.500000
        rExp                           1.000000
      * Coulomb:
        alpha                          2.000000
        third order                    atomic
        anisotropic                    false
      * Halogen bond correction:
        rad-scale                      1.300000
        damping                        0.440000


          ...................................................
          :                      SETUP                      :
          :.................................................:
          :  # basis functions                1596          :
          :  # atomic orbitals                1596          :
          :  # shells                          960          :
          :  # electrons                      1498          :
          :  # halogen bonds                     0          :
          :  max. iterations                   250          :
          :  Hamiltonian                  GFN1-xTB          :
          :  restarted?                      false          :
          :  GBSA solvation                  false          :
          :  PC potential                    false          :
          :  electronic temp.          300.0000000     K    :
          :  accuracy                    1.0000000          :
          :  -> integral cutoff          0.2500000E+02      :
          :  -> integral neglect         0.1000000E-07      :
          :  -> SCF convergence          0.1000000E-05 Eh   :
          :  -> wf. convergence          0.2000000E-04 e    :
          :  Broyden damping             0.4000000          :
          ...................................................

 iter      E             dE          RMSdq      gap      omega  full diag
   1   -845.3017191 -0.845302E+03  0.103E+01    0.09       0.0  T
   2   -846.1930190 -0.891300E+00  0.613E+00    0.12       1.0  T
   3   -842.6706546  0.352236E+01  0.172E+00    0.11       1.0  T
   4   -832.3952244  0.102754E+02  0.177E+00    0.01       1.0  T
   5   -809.5245801  0.228706E+02  0.245E+00    0.11       1.0  T
   6   -838.4066414 -0.288821E+02  0.129E+00    0.07       1.0  T
   7   -845.3688929 -0.696225E+01  0.752E-01    0.06       1.0  T
   8   -845.8870340 -0.518141E+00  0.457E-01    0.13       1.0  T
   9   -846.2910811 -0.404047E+00  0.265E-01    0.13       1.0  T
  10   -846.1752966  0.115785E+00  0.264E-01    0.11       1.0  T
  11   -846.3273018 -0.152005E+00  0.167E-01    0.12       1.0  T
  12   -846.3525671 -0.252652E-01  0.907E-02    0.11       1.0  T
  13   -846.3594114 -0.684439E-02  0.636E-02    0.12       1.0  T
  14   -846.3607382 -0.132680E-02  0.500E-02    0.11       1.0  T
  15   -846.3630972 -0.235895E-02  0.284E-02    0.12       1.0  T
  16   -846.3643757 -0.127846E-02  0.259E-02    0.11       1.0  T
  17   -846.3642437  0.131930E-03  0.199E-02    0.11       1.0  T
  18   -846.3651861 -0.942407E-03  0.164E-02    0.11       1.0  T
  19   -846.3653205 -0.134355E-03  0.121E-02    0.11       1.0  T
  20   -846.3653857 -0.651845E-04  0.114E-02    0.11       1.0  T
  21   -846.3654121 -0.264180E-04  0.985E-03    0.11       1.0  T
  22   -846.3654788 -0.667585E-04  0.703E-03    0.11       1.0  T
  23   -846.3654985 -0.196269E-04  0.519E-03    0.11       1.0  T
  24   -846.3655306 -0.320985E-04  0.282E-03    0.11       1.6  T
  25   -846.3655426 -0.120525E-04  0.198E-03    0.11       2.3  T
  26   -846.3655463 -0.363538E-05  0.166E-03    0.11       2.7  T
  27   -846.3655486 -0.235268E-05  0.103E-03    0.11       4.4  T
  28   -846.3655495 -0.869938E-06  0.642E-04    0.11       7.1  T
  29   -846.3655500 -0.555468E-06  0.414E-04    0.11      11.0  T
  30   -846.3655502 -0.180452E-06  0.216E-04    0.11      21.1  T
  31   -846.3655503 -0.433541E-07  0.126E-04    0.11      36.3  T
  32   -846.3655503 -0.136433E-07  0.432E-05    0.11     105.7  T

   *** convergence criteria satisfied after 32 iterations ***

         #    Occupation            Energy/Eh            Energy/eV
      -------------------------------------------------------------
         1        2.0000           -0.8068154             -21.9546
       ...           ...                  ...                  ...
       743        2.0000           -0.3841752             -10.4539
       744        2.0000           -0.3819369             -10.3930
       745        2.0000           -0.3816292             -10.3847
       746        2.0000           -0.3803407             -10.3496
       747        2.0000           -0.3757675             -10.2252
       748        1.9995           -0.3706123             -10.0849
       749        1.8013           -0.3649093              -9.9297 (HOMO)
       750        0.1954           -0.3607029              -9.8152 (LUMO)
       751        0.0019           -0.3562114              -9.6930
       752        0.0014           -0.3558924              -9.6843
       753        0.0006           -0.3551500              -9.6641
       754        0.0000           -0.3507045              -9.5432
       ...           ...                  ...                  ...
      1596                          1.3127720              35.7223
      -------------------------------------------------------------
                  HL-Gap            0.0042064 Eh            0.1145 eV
             Fermi-level           -0.3628151 Eh           -9.8727 eV

 SCC (total)                   0 d,  0 h,  0 min, 53.948 sec
 SCC setup                      ...        0 min,  0.072 sec (  0.134%)
 Dispersion                     ...        0 min,  0.038 sec (  0.071%)
 classical contributions        ...        0 min,  0.010 sec (  0.019%)
 integral evaluation            ...        0 min,  0.924 sec (  1.712%)
 iterations                     ...        0 min, 50.739 sec ( 94.053%)
 molecular gradient             ...        0 min,  1.858 sec (  3.445%)
 printout                       ...        0 min,  0.305 sec (  0.566%)

         :::::::::::::::::::::::::::::::::::::::::::::::::::::
         ::                     SUMMARY                     ::
         :::::::::::::::::::::::::::::::::::::::::::::::::::::
         :: total energy            -833.815745133378 Eh    ::
         :: gradient norm              0.727685887537 Eh/a0 ::
         :: HOMO-LUMO gap              0.114461081229 eV    ::
         ::.................................................::
         :: SCC energy              -846.365550272934 Eh    ::
         :: -> electrostatic           1.076940600223 Eh    ::
         :: repulsion energy          12.964695827527 Eh    ::
         :: dispersion energy         -0.414890687971 Eh    ::
         :: halogen bond corr.         0.000000000000 Eh    ::
         :: add. restraining           0.000000000000 Eh    ::
         :: total charge              -0.000000000001 e     ::
         :::::::::::::::::::::::::::::::::::::::::::::::::::::

      ----------------------------------------------------------- 
     |                   =====================                   |
     |                        A N C O P T                        |
     |                   =====================                   |
     |               Approximate Normal Coordinate               |
     |                Rational Function Optimizer                |
      ----------------------------------------------------------- 

          ...................................................
          :                      SETUP                      :
          :.................................................:
          :   optimization level            normal          :
          :   max. optcycles                  1440          :
          :   ANC micro-cycles                  20          :
          :   degrees of freedom              1434          :
          :.................................................:
          :   RF solver                   davidson          :
          :   write xtbopt.log                true          :
          :   linear?                        false          :
          :   energy convergence         0.5000000E-05 Eh   :
          :   grad. convergence          0.1000000E-02 Eh/α :
          :   maximium RF displ.         1.0000000          :
          :   Hlow (freq-cutoff)         0.1000000E-01      :
          :   Hmax (freq-cutoff)         5.0000000          :
          :   S6 in model hess.         20.0000000          :
          ...................................................

generating ANC from model Hessian ...
Using Lindh-Hessian (1995)
 Shifting diagonal of input Hessian by    1.0001617682516133E-002
 Lowest  eigenvalues of input Hessian
    0.010000    0.010000    0.010001    0.010001    0.010001    0.010001
    0.010002    0.000000    0.000000    0.000000    0.000000    0.000000
    0.000000    0.010002    0.010003    0.010003    0.010003    0.010005
 Highest eigenvalues
    2.380039    2.594708    2.594709    2.594710    2.594712    2.594712


........................................................................
.............................. CYCLE    1 ..............................
........................................................................
   1   -846.3655503 -0.846366E+03  0.399E-05    0.11       0.0  T
   2   -846.3655502  0.405475E-07  0.132E-04    0.11      34.5  T
   3   -846.3655503 -0.331931E-07  0.647E-05    0.11      70.5  T
     SCC iter.                  ...        0 min,  5.134 sec
     gradient                   ...        0 min,  1.831 sec
 * total energy  :  -833.8157451 Eh     change        0.6960249E-08 Eh
   gradient norm :     0.7276857 Eh/α   predicted     0.0000000E+00 (-100.00%)
   displ. norm   :     0.5539812 α      lambda       -0.3443639E+00
   maximum displ.:     0.1508366 α      in ANC's #1114, #871, #1115, ...

........................................................................
.............................. CYCLE    2 ..............................
........................................................................
   1   -846.3555347 -0.846356E+03  0.666E-02    0.19       0.0  T
   2   -846.3574676 -0.193291E-02  0.491E-02    0.17       1.0  T
   3   -846.3566852  0.782407E-03  0.394E-02    0.18       1.0  T
   4   -846.3573884 -0.703162E-03  0.339E-02    0.18       1.0  T
   5   -846.3581200 -0.731587E-03  0.260E-02    0.18       1.0  T
   6   -846.3591074 -0.987450E-03  0.106E-02    0.18       1.0  T
   7   -846.3592537 -0.146247E-03  0.496E-03    0.18       1.0  T
   8   -846.3592990 -0.453277E-04  0.139E-03    0.18       3.3  T
   9   -846.3593025 -0.347388E-05  0.485E-04    0.18       9.4  T
  10   -846.3593027 -0.216953E-06  0.318E-04    0.18      14.4  T
  11   -846.3593028 -0.972273E-07  0.222E-04    0.18      20.6  T
  12   -846.3593029 -0.107440E-06  0.806E-05    0.18      56.6  T
  13   -846.3593029 -0.826890E-08  0.300E-05    0.18     152.2  T
     SCC iter.                  ...        0 min, 23.826 sec
     gradient                   ...        0 min,  1.877 sec
 * total energy  :  -834.1047707 Eh     change       -0.2890256E+00 Eh
   gradient norm :     0.4810011 Eh/α   predicted    -0.2250480E+00 ( -22.14%)
   displ. norm   :     0.6694044 α      lambda       -0.2912986E+00
   maximum displ.:     0.1752652 α      in ANC's #1114, #1285, #1404, ...

........................................................................
.............................. CYCLE    3 ..............................
........................................................................
   1   -846.3778277 -0.846378E+03  0.882E-02    0.35       0.0  T
   2   -846.3824865 -0.465878E-02  0.545E-02    0.32       1.0  T
   3   -846.3841212 -0.163469E-02  0.219E-02    0.33       1.0  T
   4   -846.3833066  0.814573E-03  0.275E-02    0.33       1.0  T
   5   -846.3843130 -0.100633E-02  0.795E-03    0.33       1.0  T
   6   -846.3843507 -0.377095E-04  0.273E-03    0.33       1.7  T
   7   -846.3843590 -0.830196E-05  0.942E-04    0.33       4.8  T
   8   -846.3843598 -0.860465E-06  0.473E-04    0.33       9.7  T
   9   -846.3843600 -0.207165E-06  0.252E-04    0.33      18.1  T
  10   -846.3843601 -0.847010E-07  0.116E-04    0.33      39.3  T
  11   -846.3843601 -0.168181E-07  0.432E-05    0.33     105.6  T
     SCC iter.                  ...        0 min, 19.820 sec
     gradient                   ...        0 min,  1.854 sec
 * total energy  :  -834.3091047 Eh     change       -0.2043340E+00 Eh
   gradient norm :     0.1815714 Eh/α   predicted    -0.2109434E+00 (   3.23%)
   displ. norm   :     0.7258909 α      lambda       -0.1024270E+00
   maximum displ.:     0.2097399 α      in ANC's #138, #127, #396, ...

........................................................................
.............................. CYCLE    4 ..............................
........................................................................
   1   -846.4708358 -0.846471E+03  0.411E-02    0.45       0.0  T
   2   -846.4719323 -0.109655E-02  0.313E-02    0.43       1.0  T
   3   -846.4724365 -0.504177E-03  0.114E-02    0.44       1.0  T
   4   -846.4723049  0.131596E-03  0.116E-02    0.44       1.0  T
   5   -846.4724520 -0.147092E-03  0.380E-03    0.44       1.2  T
   6   -846.4724614 -0.945096E-05  0.131E-03    0.44       3.5  T
   7   -846.4724641 -0.266494E-05  0.494E-04    0.44       9.2  T
   8   -846.4724644 -0.270422E-06  0.223E-04    0.44      20.4  T
   9   -846.4724644 -0.338989E-07  0.129E-04    0.44      35.4  T
  10   -846.4724644 -0.256363E-07  0.542E-05    0.44      84.2  T
     SCC iter.                  ...        0 min, 18.203 sec
     gradient                   ...        0 min,  1.853 sec
 * total energy  :  -834.3888360 Eh     change       -0.7973134E-01 Eh
   gradient norm :     0.1048763 Eh/α   predicted    -0.7819880E-01 (  -1.92%)
   displ. norm   :     0.8379945 α      lambda       -0.6980675E-01
   maximum displ.:     0.2789115 α      in ANC's #138, #127, #122, ...

........................................................................
.............................. CYCLE    5 ..............................
........................................................................
   1   -846.5681530 -0.846568E+03  0.285E-02    0.50       0.0  T
   2   -846.5685629 -0.409884E-03  0.267E-02    0.50       1.0  T
   3   -846.5688047 -0.241816E-03  0.108E-02    0.50       1.0  T
   4   -846.5687137  0.909863E-04  0.920E-03    0.50       1.0  T
   5   -846.5688093 -0.955491E-04  0.264E-03    0.50       1.7  T
   6   -846.5688120 -0.269536E-05  0.124E-03    0.50       3.7  T
   7   -846.5688150 -0.302206E-05  0.408E-04    0.50      11.2  T
   8   -846.5688152 -0.218549E-06  0.157E-04    0.50      29.0  T
   9   -846.5688152 -0.930538E-08  0.877E-05    0.50      52.0  T
     SCC iter.                  ...        0 min, 13.838 sec
     gradient                   ...        0 min,  1.677 sec
 * total energy  :  -834.4528743 Eh     change       -0.6403826E-01 Eh
   gradient norm :     0.0912361 Eh/α   predicted    -0.5941374E-01 (  -7.22%)
   displ. norm   :     0.9184639 α      lambda       -0.6754904E-01
   maximum displ.:     0.2973383 α      in ANC's #138, #127, #122, ...

........................................................................
.............................. CYCLE    6 ..............................
........................................................................
   1   -846.6520358 -0.846652E+03  0.344E-02    0.54       0.0  T
   2   -846.6524769 -0.441053E-03  0.329E-02    0.54       1.0  T
   3   -846.6527401 -0.263231E-03  0.148E-02    0.54       1.0  T
   4   -846.6525639  0.176232E-03  0.130E-02    0.54       1.0  T
   5   -846.6527418 -0.177932E-03  0.342E-03    0.54       1.3  T
   6   -846.6527470 -0.520423E-05  0.161E-03    0.54       2.8  T
   7   -846.6527524 -0.534672E-05  0.421E-04    0.54      10.9  T
   8   -846.6527526 -0.233873E-06  0.156E-04    0.54      29.3  T
   9   -846.6527526 -0.109982E-07  0.815E-05    0.54      56.0  T
     SCC iter.                  ...        0 min, 14.408 sec
     gradient                   ...        0 min,  1.853 sec
 * total energy  :  -834.5159202 Eh     change       -0.6304592E-01 Eh
   gradient norm :     0.0761108 Eh/α   predicted    -0.6226601E-01 (  -1.24%)
   displ. norm   :     0.9293240 α      lambda       -0.5944997E-01
   maximum displ.:     0.3096415 α      in ANC's #138, #127, #122, ...

........................................................................
.............................. CYCLE    7 ..............................
........................................................................
   1   -846.7251527 -0.846725E+03  0.328E-02    0.57       0.0  T
   2   -846.7253782 -0.225453E-03  0.342E-02    0.57       1.0  T
   3   -846.7256468 -0.268614E-03  0.172E-02    0.57       1.0  T
   4   -846.7254572  0.189609E-03  0.135E-02    0.57       1.0  T
   5   -846.7256440 -0.186793E-03  0.277E-03    0.57       1.7  T
   6   -846.7256507 -0.676007E-05  0.127E-03    0.57       3.6  T
   7   -846.7256542 -0.349031E-05  0.348E-04    0.57      13.1  T
   8   -846.7256544 -0.172937E-06  0.105E-04    0.57      43.5  T
   9   -846.7256544 -0.509863E-08  0.647E-05    0.57      70.6  T
     SCC iter.                  ...        0 min, 14.657 sec
     gradient                   ...        0 min,  1.830 sec
 * total energy  :  -834.5677866 Eh     change       -0.5186644E-01 Eh
   gradient norm :     0.0620309 Eh/α   predicted    -0.5539683E-01 (   6.81%)
   displ. norm   :     0.8862728 α      lambda       -0.4456465E-01
   maximum displ.:     0.3421290 α      in ANC's #138, #127, #122, ...

........................................................................
.............................. CYCLE    8 ..............................
........................................................................
   1   -846.8113596 -0.846811E+03  0.162E-02    0.57       0.0  T
   2   -846.8113737 -0.140796E-04  0.159E-02    0.57       1.0  T
   3   -846.8114516 -0.778940E-04  0.727E-03    0.57       1.0  T
   4   -846.8114041  0.474934E-04  0.671E-03    0.57       1.0  T
   5   -846.8114519 -0.478206E-04  0.128E-03    0.57       3.6  T
   6   -846.8114541 -0.219752E-05  0.497E-04    0.57       9.2  T
   7   -846.8114545 -0.439251E-06  0.129E-04    0.57      35.3  T
   8   -846.8114545 -0.262204E-07  0.515E-05    0.57      88.7  T
     SCC iter.                  ...        0 min, 14.450 sec
     gradient                   ...        0 min,  1.883 sec
 * total energy  :  -834.6083987 Eh     change       -0.4061204E-01 Eh
   gradient norm :     0.0572273 Eh/α   predicted    -0.3978463E-01 (  -2.04%)
   displ. norm   :     0.9048941 α      lambda       -0.4178537E-01
   maximum displ.:     0.3615119 α      in ANC's #138, #127, #122, ...

........................................................................
.............................. CYCLE    9 ..............................
........................................................................
   1   -846.9072577 -0.846907E+03  0.117E-02    0.57       0.0  T
   2   -846.9072737 -0.159766E-04  0.916E-03    0.57       1.0  T
   3   -846.9073113 -0.376024E-04  0.436E-03    0.57       1.0  T
   4   -846.9073012  0.100860E-04  0.509E-03    0.57       1.0  T
   5   -846.9073314 -0.302620E-04  0.131E-03    0.57       3.5  T
   6   -846.9073329 -0.148689E-05  0.491E-04    0.57       9.3  T
   7   -846.9073334 -0.430587E-06  0.129E-04    0.57      35.5  T
   8   -846.9073334 -0.181439E-07  0.606E-05    0.57      75.3  T
     SCC iter.                  ...        0 min, 14.450 sec
     gradient                   ...        0 min,  1.838 sec
 * total energy  :  -834.6465404 Eh     change       -0.3814173E-01 Eh
   gradient norm :     0.0500688 Eh/α   predicted    -0.3800032E-01 (  -0.37%)
   displ. norm   :     0.9370003 α      lambda       -0.3770902E-01
   maximum displ.:     0.3583235 α      in ANC's #138, #127, #122, ...

........................................................................
.............................. CYCLE   10 ..............................
........................................................................
   1   -847.0003253 -0.847000E+03  0.107E-02    0.57       0.0  T
   2   -847.0003188  0.649064E-05  0.842E-03    0.57       1.0  T
   3   -847.0003295 -0.106980E-04  0.450E-03    0.57       1.0  T
   4   -847.0003464 -0.168202E-04  0.390E-03    0.57       1.2  T
   5   -847.0003618 -0.154163E-04  0.116E-03    0.57       3.9  T
   6   -847.0003640 -0.222595E-05  0.263E-04    0.57      17.4  T
   7   -847.0003641 -0.110904E-06  0.874E-05    0.57      52.2  T
   8   -847.0003641 -0.611590E-08  0.524E-05    0.57      87.1  T
     SCC iter.                  ...        0 min, 14.594 sec
     gradient                   ...        0 min,  1.849 sec
 * total energy  :  -834.6808092 Eh     change       -0.3426882E-01 Eh
   gradient norm :     0.0473930 Eh/α   predicted    -0.3540819E-01 (   3.32%)
   displ. norm   :     0.9421178 α      lambda       -0.3474887E-01
   maximum displ.:     0.3551062 α      in ANC's #138, #127, #122, ...

........................................................................
.............................. CYCLE   11 ..............................
........................................................................
   1   -847.0850547 -0.847085E+03  0.102E-02    0.57       0.0  T
   2   -847.0850520  0.263753E-05  0.795E-03    0.57       1.0  T
   3   -847.0850507  0.131364E-05  0.450E-03    0.57       1.0  T
   4   -847.0850666 -0.159153E-04  0.362E-03    0.57       1.3  T
   5   -847.0850829 -0.162891E-04  0.887E-04    0.57       5.1  T
   6   -847.0850842 -0.125875E-05  0.301E-04    0.57      15.2  T
   7   -847.0850844 -0.165957E-06  0.821E-05    0.57      55.6  T
   8   -847.0850844 -0.348143E-08  0.495E-05    0.57      92.1  T
     SCC iter.                  ...        0 min, 13.737 sec
     gradient                   ...        0 min,  1.692 sec
 * total energy  :  -834.7121204 Eh     change       -0.3131115E-01 Eh
   gradient norm :     0.0376436 Eh/α   predicted    -0.3279576E-01 (   4.74%)
   displ. norm   :     0.9247806 α      lambda       -0.2957075E-01
   maximum displ.:     0.3467647 α      in ANC's #138, #127, #122, ...

........................................................................
.............................. CYCLE   12 ..............................
........................................................................
   1   -847.1652878 -0.847165E+03  0.101E-02    0.56       0.0  T
   2   -847.1652960 -0.820064E-05  0.786E-03    0.56       1.0  T
   3   -847.1653118 -0.157669E-04  0.379E-03    0.56       1.2  T
   4   -847.1652983  0.134738E-04  0.397E-03    0.56       1.1  T
   5   -847.1653209 -0.225424E-04  0.960E-04    0.56       4.8  T
   6   -847.1653222 -0.135467E-05  0.304E-04    0.56      15.0  T
   7   -847.1653224 -0.143309E-06  0.105E-04    0.56      43.5  T
   8   -847.1653224 -0.110693E-07  0.491E-05    0.56      92.9  T
     SCC iter.                  ...        0 min, 11.982 sec
     gradient                   ...        0 min,  1.835 sec
 * total energy  :  -834.7394163 Eh     change       -0.2729591E-01 Eh
   gradient norm :     0.0312481 Eh/α   predicted    -0.2743012E-01 (   0.49%)
   displ. norm   :     0.9258318 α      lambda       -0.2555643E-01
   maximum displ.:     0.3279132 α      in ANC's #138, #127, #122, ...

........................................................................
.............................. CYCLE   13 ..............................
........................................................................
   1   -847.2459958 -0.847246E+03  0.950E-03    0.57       0.0  T
   2   -847.2460058 -0.992265E-05  0.692E-03    0.57       1.0  T
   3   -847.2460069 -0.112394E-05  0.389E-03    0.57       1.2  T
   4   -847.2460011  0.581906E-05  0.340E-03    0.57       1.3  T
   5   -847.2460202 -0.191812E-04  0.719E-04    0.57       6.3  T
   6   -847.2460211 -0.878606E-06  0.270E-04    0.57      16.9  T
   7   -847.2460212 -0.966187E-07  0.942E-05    0.57      48.5  T
   8   -847.2460212 -0.624846E-08  0.550E-05    0.57      83.1  T
     SCC iter.                  ...        0 min, 13.040 sec
     gradient                   ...        0 min,  1.852 sec
 * total energy  :  -834.7628918 Eh     change       -0.2347550E-01 Eh
   gradient norm :     0.0282715 Eh/α   predicted    -0.2373125E-01 (   1.09%)
   displ. norm   :     0.9257435 α      lambda       -0.2232737E-01
   maximum displ.:     0.3230139 α      in ANC's #138, #127, #122, ...

........................................................................
.............................. CYCLE   14 ..............................
........................................................................
   1   -847.3194606 -0.847319E+03  0.925E-03    0.57       0.0  T
   2   -847.3194672 -0.655458E-05  0.755E-03    0.58       1.0  T
   3   -847.3194972 -0.300497E-04  0.334E-03    0.58       1.4  T
   4   -847.3194872  0.998406E-05  0.326E-03    0.58       1.4  T
   5   -847.3195011 -0.138688E-04  0.947E-04    0.58       4.8  T
   6   -847.3195026 -0.144398E-05  0.357E-04    0.58      12.8  T
   7   -847.3195028 -0.220244E-06  0.982E-05    0.58      46.5  T
   8   -847.3195028 -0.822422E-08  0.457E-05    0.58      99.9  T
     SCC iter.                  ...        0 min, 14.015 sec
     gradient                   ...        0 min,  1.805 sec
 * total energy  :  -834.7828196 Eh     change       -0.1992784E-01 Eh
   gradient norm :     0.0275569 Eh/α   predicted    -0.2073099E-01 (   4.03%)
   displ. norm   :     0.9192586 α      lambda       -0.1957272E-01
   maximum displ.:     0.2959349 α      in ANC's #138, #127, #122, ...

........................................................................
.............................. CYCLE   15 ..............................
........................................................................
   1   -847.3923098 -0.847392E+03  0.927E-03    0.58       0.0  T
   2   -847.3923109 -0.106372E-05  0.802E-03    0.58       1.0  T
   3   -847.3923429 -0.319860E-04  0.362E-03    0.58       1.3  T
   4   -847.3923270  0.159189E-04  0.389E-03    0.58       1.2  T
   5   -847.3923487 -0.217565E-04  0.920E-04    0.58       5.0  T
   6   -847.3923499 -0.116017E-05  0.294E-04    0.58      15.5  T
   7   -847.3923500 -0.142412E-06  0.114E-04    0.58      40.0  T
   8   -847.3923500 -0.139918E-07  0.528E-05    0.58      86.4  T
     SCC iter.                  ...        0 min, 13.172 sec
     gradient                   ...        0 min,  1.877 sec
 * total energy  :  -834.7997803 Eh     change       -0.1696068E-01 Eh
   gradient norm :     0.0244257 Eh/α   predicted    -0.1805621E-01 (   6.46%)
   displ. norm   :     0.8962454 α      lambda       -0.1603921E-01
   maximum displ.:     0.2735646 α      in ANC's #138, #122, #127, ...

........................................................................
.............................. CYCLE   16 ..............................
........................................................................
   1   -847.4625091 -0.847463E+03  0.889E-03    0.59       0.0  T
   2   -847.4625091  0.299564E-07  0.790E-03    0.59       1.0  T
   3   -847.4625412 -0.320960E-04  0.357E-03    0.59       1.3  T
   4   -847.4625243  0.168409E-04  0.369E-03    0.59       1.2  T
   5   -847.4625446 -0.202854E-04  0.857E-04    0.59       5.3  T
   6   -847.4625457 -0.107584E-05  0.277E-04    0.59      16.5  T
   7   -847.4625458 -0.137968E-06  0.992E-05    0.59      46.0  T
   8   -847.4625458 -0.104790E-07  0.435E-05    0.59     104.9  T
     SCC iter.                  ...        0 min, 13.868 sec
     gradient                   ...        0 min,  1.850 sec
 * total energy  :  -834.8137586 Eh     change       -0.1397827E-01 Eh
   gradient norm :     0.0228086 Eh/α   predicted    -0.1446142E-01 (   3.46%)
   displ. norm   :     0.8906356 α      lambda       -0.1329728E-01
   maximum displ.:     0.2483389 α      in ANC's #138, #127, #116, ...

........................................................................
.............................. CYCLE   17 ..............................
........................................................................
   1   -847.5164627 -0.847516E+03  0.986E-03    0.58       0.0  T
   2   -847.5164706 -0.791367E-05  0.838E-03    0.58       1.0  T
   3   -847.5165081 -0.374885E-04  0.370E-03    0.58       1.2  T
   4   -847.5164906  0.174392E-04  0.395E-03    0.58       1.2  T
   5   -847.5165135 -0.229009E-04  0.991E-04    0.58       4.6  T
   6   -847.5165146 -0.107766E-05  0.335E-04    0.58      13.6  T
   7   -847.5165148 -0.192436E-06  0.116E-04    0.58      39.4  T
   8   -847.5165148 -0.155133E-07  0.501E-05    0.58      91.2  T
     SCC iter.                  ...        0 min, 13.806 sec
     gradient                   ...        0 min,  1.900 sec
 * total energy  :  -834.8248653 Eh     change       -0.1110672E-01 Eh
   gradient norm :     0.0242995 Eh/α   predicted    -0.1192256E-01 (   7.35%)
   displ. norm   :     0.8741345 α      lambda       -0.1129689E-01
   maximum displ.:     0.2337880 α      in ANC's #69, #116, #37, ...

........................................................................
.............................. CYCLE   18 ..............................
........................................................................
   1   -847.5750580 -0.847575E+03  0.101E-02    0.58       0.0  T
   2   -847.5750656 -0.761080E-05  0.831E-03    0.58       1.0  T
   3   -847.5750959 -0.302737E-04  0.383E-03    0.58       1.2  T
   4   -847.5750785  0.174368E-04  0.400E-03    0.58       1.1  T
   5   -847.5751031 -0.246563E-04  0.950E-04    0.58       4.8  T
   6   -847.5751041 -0.985496E-06  0.326E-04    0.58      14.0  T
   7   -847.5751043 -0.173244E-06  0.129E-04    0.58      35.4  T
   8   -847.5751043 -0.220772E-07  0.497E-05    0.58      91.8  T
     SCC iter.                  ...        0 min, 13.884 sec
     gradient                   ...        0 min,  1.870 sec
 * total energy  :  -834.8337401 Eh     change       -0.8874757E-02 Eh
   gradient norm :     0.0284114 Eh/α   predicted    -0.9964473E-02 (  12.28%)
   displ. norm   :     0.8360386 α      lambda       -0.9167348E-02
   maximum displ.:     0.2447457 α      in ANC's #37, #69, #116, ...

........................................................................
.............................. CYCLE   19 ..............................
........................................................................
   1   -847.6090469 -0.847609E+03  0.102E-02    0.58       0.0  T
   2   -847.6090517 -0.477610E-05  0.821E-03    0.58       1.0  T
   3   -847.6090778 -0.260759E-04  0.368E-03    0.58       1.2  T
   4   -847.6090615  0.162353E-04  0.372E-03    0.58       1.2  T
   5   -847.6090832 -0.216349E-04  0.888E-04    0.58       5.1  T
   6   -847.6090841 -0.941046E-06  0.305E-04    0.58      15.0  T
   7   -847.6090843 -0.152976E-06  0.112E-04    0.58      40.9  T
   8   -847.6090843 -0.172213E-07  0.423E-05    0.58     107.9  T
     SCC iter.                  ...        0 min, 13.118 sec
     gradient                   ...        0 min,  1.825 sec
 * total energy  :  -834.8410170 Eh     change       -0.7276944E-02 Eh
   gradient norm :     0.0228275 Eh/α   predicted    -0.7787480E-02 (   7.02%)
   displ. norm   :     0.8324216 α      lambda       -0.7516736E-02
   maximum displ.:     0.2554148 α      in ANC's #69, #37, #116, ...

........................................................................
.............................. CYCLE   20 ..............................
........................................................................
   1   -847.6582794 -0.847658E+03  0.101E-02    0.59       0.0  T
   2   -847.6582905 -0.110974E-04  0.687E-03    0.59       1.0  T
   3   -847.6583011 -0.106276E-04  0.355E-03    0.59       1.3  T
   4   -847.6582940  0.709814E-05  0.314E-03    0.59       1.5  T
   5   -847.6583106 -0.165899E-04  0.805E-04    0.59       5.7  T
   6   -847.6583112 -0.584472E-06  0.322E-04    0.59      14.2  T
   7   -847.6583114 -0.170557E-06  0.112E-04    0.59      40.8  T
   8   -847.6583114 -0.172890E-07  0.407E-05    0.59     112.1  T
     SCC iter.                  ...        0 min, 12.437 sec
     gradient                   ...        0 min,  1.896 sec
 * total energy  :  -834.8467028 Eh     change       -0.5685748E-02 Eh
   gradient norm :     0.0320191 Eh/α   predicted    -0.6362639E-02 (  11.91%)
   displ. norm   :     0.8101992 α      lambda       -0.7158161E-02
   maximum displ.:     0.2534095 α      in ANC's #37, #69, #116, ...
 * RMSD in coord.:     0.6649798 α      energy gain  -0.1030958E+01 Eh

generating ANC from model Hessian ...
Using Lindh-Hessian (1995)
 Shifting diagonal of input Hessian by    1.0001918918342002E-002
 Lowest  eigenvalues of input Hessian
    0.010000    0.010000    0.010001    0.010001    0.010001    0.010002
    0.010002    0.000000    0.000000    0.000000    0.000000    0.000000
    0.000000    0.010003    0.010003    0.010006    0.010006    0.010007
 Highest eigenvalues
    2.550489    2.576369    2.578382    2.601721    2.602002    2.606514


........................................................................
.............................. CYCLE   21 ..............................
........................................................................
   1   -847.6772011 -0.847677E+03  0.114E-02    0.58       0.0  T
   2   -847.6772206 -0.195126E-04  0.791E-03    0.58       1.0  T
   3   -847.6772360 -0.154385E-04  0.376E-03    0.58       1.2  T
   4   -847.6772244  0.116082E-04  0.332E-03    0.58       1.4  T
   5   -847.6772417 -0.172826E-04  0.911E-04    0.58       5.0  T
   6   -847.6772426 -0.915416E-06  0.338E-04    0.58      13.5  T
   7   -847.6772428 -0.185640E-06  0.130E-04    0.58      35.1  T
   8   -847.6772428 -0.248534E-07  0.409E-05    0.58     111.6  T
     SCC iter.                  ...        0 min, 13.057 sec
     gradient                   ...        0 min,  1.827 sec
 * total energy  :  -834.8517283 Eh     change       -0.5025519E-02 Eh
   gradient norm :     0.0290591 Eh/α   predicted     0.0000000E+00 (-100.00%)
   displ. norm   :     0.4369366 α      lambda       -0.3661471E-02
   maximum displ.:     0.1992252 α      in ANC's #73, #66, #107, ...

........................................................................
.............................. CYCLE   22 ..............................
........................................................................
   1   -847.6871571 -0.847687E+03  0.429E-03    0.58       0.0  T
   2   -847.6871606 -0.350042E-05  0.334E-03    0.58       1.4  T
   3   -847.6871642 -0.359449E-05  0.140E-03    0.58       3.3  T
   4   -847.6871626  0.152473E-05  0.120E-03    0.58       3.8  T
   5   -847.6871643 -0.168090E-05  0.330E-04    0.58      13.8  T
   6   -847.6871645 -0.145308E-06  0.117E-04    0.58      39.1  T
   7   -847.6871645 -0.246133E-07  0.540E-05    0.58      84.5  T
     SCC iter.                  ...        0 min, 11.899 sec
     gradient                   ...        0 min,  1.855 sec
 * total energy  :  -834.8550363 Eh     change       -0.3307988E-02 Eh
   gradient norm :     0.0130024 Eh/α   predicted    -0.2180582E-02 ( -34.08%)
   displ. norm   :     0.8325181 α      lambda       -0.5546701E-02
   maximum displ.:     0.3745141 α      in ANC's #73, #66, #107, ...

........................................................................
.............................. CYCLE   23 ..............................
........................................................................
   1   -847.6972653 -0.847697E+03  0.531E-03    0.58       0.0  T
   2   -847.6972713 -0.602160E-05  0.401E-03    0.58       1.1  T
   3   -847.6972761 -0.483440E-05  0.165E-03    0.58       2.8  T
   4   -847.6972740  0.213367E-05  0.149E-03    0.58       3.1  T
   5   -847.6972764 -0.240956E-05  0.360E-04    0.58      12.7  T
   6   -847.6972766 -0.160494E-06  0.139E-04    0.58      32.8  T
   7   -847.6972766 -0.301461E-07  0.634E-05    0.58      71.9  T
     SCC iter.                  ...        0 min, 11.998 sec
     gradient                   ...        0 min,  1.912 sec
 * total energy  :  -834.8599318 Eh     change       -0.4895525E-02 Eh
   gradient norm :     0.0140055 Eh/α   predicted    -0.4695521E-02 (  -4.09%)
   displ. norm   :     0.8652430 α      lambda       -0.4744643E-02
   maximum displ.:     0.3856916 α      in ANC's #73, #66, #107, ...

........................................................................
.............................. CYCLE   24 ..............................
........................................................................
   1   -847.7009819 -0.847701E+03  0.242E-03    0.58       0.0  T
   2   -847.7009830 -0.110047E-05  0.158E-03    0.58       2.9  T
   3   -847.7009836 -0.607486E-06  0.761E-04    0.58       6.0  T
   4   -847.7009832  0.397075E-06  0.754E-04    0.58       6.1  T
   5   -847.7009840 -0.724553E-06  0.200E-04    0.58      22.9  T
   6   -847.7009840 -0.493162E-07  0.864E-05    0.58      52.8  T
     SCC iter.                  ...        0 min, 10.042 sec
     gradient                   ...        0 min,  1.817 sec
 * total energy  :  -834.8643365 Eh     change       -0.4404732E-02 Eh
   gradient norm :     0.0206983 Eh/α   predicted    -0.4148408E-02 (  -5.82%)
   displ. norm   :     0.8881594 α      lambda       -0.4569904E-02
   maximum displ.:     0.3936403 α      in ANC's #73, #66, #24, ...

........................................................................
.............................. CYCLE   25 ..............................
........................................................................
   1   -847.7047231 -0.847705E+03  0.226E-03    0.58       0.0  T
   2   -847.7047243 -0.124312E-05  0.152E-03    0.58       3.0  T
   3   -847.7047253 -0.964416E-06  0.730E-04    0.58       6.3  T
   4   -847.7047251  0.168684E-06  0.656E-04    0.58       7.0  T
   5   -847.7047256 -0.510254E-06  0.224E-04    0.58      20.3  T
   6   -847.7047257 -0.602928E-07  0.831E-05    0.58      54.9  T
   7   -847.7047257 -0.990542E-08  0.389E-05    0.58     117.4  T
     SCC iter.                  ...        0 min, 11.966 sec
     gradient                   ...        0 min,  1.843 sec
 * total energy  :  -834.8686016 Eh     change       -0.4265049E-02 Eh
   gradient norm :     0.0163143 Eh/α   predicted    -0.4087448E-02 (  -4.16%)
   displ. norm   :     0.8989381 α      lambda       -0.4223614E-02
   maximum displ.:     0.3974630 α      in ANC's #73, #66, #24, ...

........................................................................
.............................. CYCLE   26 ..............................
........................................................................
   1   -847.7116986 -0.847712E+03  0.295E-03    0.58       0.0  T
   2   -847.7117015 -0.285045E-05  0.218E-03    0.58       2.1  T
   3   -847.7117034 -0.197095E-05  0.901E-04    0.58       5.1  T
   4   -847.7117027  0.688991E-06  0.871E-04    0.58       5.2  T
   5   -847.7117036 -0.842855E-06  0.292E-04    0.58      15.6  T
   6   -847.7117037 -0.982067E-07  0.966E-05    0.58      47.2  T
   7   -847.7117037 -0.146881E-07  0.451E-05    0.58     101.3  T
     SCC iter.                  ...        0 min, 11.914 sec
     gradient                   ...        0 min,  1.886 sec
 * total energy  :  -834.8724881 Eh     change       -0.3886534E-02 Eh
   gradient norm :     0.0074529 Eh/α   predicted    -0.3818379E-02 (  -1.75%)
   displ. norm   :     0.9072157 α      lambda       -0.3690740E-02
   maximum displ.:     0.3977209 α      in ANC's #73, #66, #24, ...

........................................................................
.............................. CYCLE   27 ..............................
........................................................................
   1   -847.7200530 -0.847720E+03  0.223E-03    0.58       0.0  T
   2   -847.7200547 -0.169228E-05  0.147E-03    0.58       3.1  T
   3   -847.7200556 -0.919905E-06  0.718E-04    0.58       6.4  T
   4   -847.7200554  0.197694E-06  0.643E-04    0.58       7.1  T
   5   -847.7200559 -0.492370E-06  0.198E-04    0.58      23.0  T
   6   -847.7200559 -0.304412E-07  0.849E-05    0.58      53.8  T
     SCC iter.                  ...        0 min, 10.396 sec
     gradient                   ...        0 min,  1.838 sec
 * total energy  :  -834.8759109 Eh     change       -0.3422797E-02 Eh
   gradient norm :     0.0059131 Eh/α   predicted    -0.3364206E-02 (  -1.71%)
   displ. norm   :     0.9100497 α      lambda       -0.3298891E-02
   maximum displ.:     0.3903456 α      in ANC's #73, #66, #24, ...

........................................................................
.............................. CYCLE   28 ..............................
........................................................................
   1   -847.7293173 -0.847729E+03  0.177E-03    0.58       0.0  T
   2   -847.7293181 -0.731706E-06  0.109E-03    0.58       4.2  T
   3   -847.7293185 -0.428849E-06  0.678E-04    0.58       6.7  T
   4   -847.7293188 -0.318228E-06  0.453E-04    0.58      10.1  T
   5   -847.7293190 -0.183664E-06  0.143E-04    0.58      31.9  T
   6   -847.7293190 -0.151776E-07  0.824E-05    0.58      55.4  T
     SCC iter.                  ...        0 min, 10.243 sec
     gradient                   ...        0 min,  1.890 sec
 * total energy  :  -834.8789930 Eh     change       -0.3082080E-02 Eh
   gradient norm :     0.0068594 Eh/α   predicted    -0.3015500E-02 (  -2.16%)
   displ. norm   :     0.9105409 α      lambda       -0.2999562E-02
   maximum displ.:     0.3771565 α      in ANC's #73, #66, #24, ...

........................................................................
.............................. CYCLE   29 ..............................
........................................................................
   1   -847.7392689 -0.847739E+03  0.167E-03    0.58       0.0  T
   2   -847.7392693 -0.370713E-06  0.108E-03    0.58       4.2  T
   3   -847.7392698 -0.470937E-06  0.657E-04    0.58       6.9  T
   4   -847.7392701 -0.291835E-06  0.416E-04    0.58      11.0  T
   5   -847.7392702 -0.150127E-06  0.128E-04    0.58      35.5  T
   6   -847.7392702 -0.159915E-07  0.721E-05    0.58      63.3  T
     SCC iter.                  ...        0 min, 10.376 sec
     gradient                   ...        0 min,  1.832 sec
 * total energy  :  -834.8817961 Eh     change       -0.2803120E-02 Eh
   gradient norm :     0.0058442 Eh/α   predicted    -0.2743226E-02 (  -2.14%)
   displ. norm   :     0.9104624 α      lambda       -0.2713341E-02
   maximum displ.:     0.3644422 α      in ANC's #24, #73, #66, ...

........................................................................
.............................. CYCLE   30 ..............................
........................................................................
   1   -847.7482241 -0.847748E+03  0.163E-03    0.58       0.0  T
   2   -847.7482244 -0.291575E-06  0.106E-03    0.58       4.3  T
   3   -847.7482248 -0.457988E-06  0.623E-04    0.58       7.3  T
   4   -847.7482251 -0.232009E-06  0.409E-04    0.58      11.2  T
   5   -847.7482252 -0.153397E-06  0.121E-04    0.58      37.6  T
   6   -847.7482252 -0.169981E-07  0.648E-05    0.58      70.5  T
     SCC iter.                  ...        0 min, 10.409 sec
     gradient                   ...        0 min,  1.871 sec
 * total energy  :  -834.8843281 Eh     change       -0.2532049E-02 Eh
   gradient norm :     0.0040818 Eh/α   predicted    -0.2481273E-02 (  -2.01%)
   displ. norm   :     0.9072531 α      lambda       -0.2430067E-02
   maximum displ.:     0.3869956 α      in ANC's #24, #66, #34, ...

........................................................................
.............................. CYCLE   31 ..............................
........................................................................
   1   -847.7550757 -0.847755E+03  0.147E-03    0.58       0.0  T
   2   -847.7550760 -0.342843E-06  0.897E-04    0.58       5.1  T
   3   -847.7550763 -0.262031E-06  0.557E-04    0.58       8.2  T
   4   -847.7550765 -0.229363E-06  0.359E-04    0.58      12.7  T
   5   -847.7550766 -0.111948E-06  0.108E-04    0.58      42.3  T
   6   -847.7550766 -0.124504E-07  0.582E-05    0.58      78.5  T
     SCC iter.                  ...        0 min, 10.500 sec
     gradient                   ...        0 min,  1.865 sec
 * total energy  :  -834.8865973 Eh     change       -0.2269110E-02 Eh
   gradient norm :     0.0033970 Eh/α   predicted    -0.2215140E-02 (  -2.38%)
   displ. norm   :     0.8997040 α      lambda       -0.2169336E-02
   maximum displ.:     0.4066265 α      in ANC's #24, #34, #66, ...

........................................................................
.............................. CYCLE   32 ..............................
........................................................................
   1   -847.7605873 -0.847761E+03  0.132E-03    0.58       0.0  T
   2   -847.7605876 -0.306438E-06  0.796E-04    0.58       5.7  T
   3   -847.7605878 -0.171966E-06  0.500E-04    0.58       9.1  T
   4   -847.7605880 -0.185391E-06  0.328E-04    0.58      13.9  T
   5   -847.7605881 -0.963674E-07  0.971E-05    0.58      47.0  T
   6   -847.7605881 -0.108965E-07  0.535E-05    0.58      85.4  T
     SCC iter.                  ...        0 min,  9.861 sec
     gradient                   ...        0 min,  1.871 sec
 * total energy  :  -834.8886287 Eh     change       -0.2031482E-02 Eh
   gradient norm :     0.0036522 Eh/α   predicted    -0.1962677E-02 (  -3.39%)
   displ. norm   :     0.8888535 α      lambda       -0.1945487E-02
   maximum displ.:     0.4241429 α      in ANC's #24, #34, #66, ...

........................................................................
.............................. CYCLE   33 ..............................
........................................................................
   1   -847.7650736 -0.847765E+03  0.120E-03    0.58       0.0  T
   2   -847.7650740 -0.390401E-06  0.667E-04    0.58       6.8  T
   3   -847.7650741 -0.105207E-06  0.400E-04    0.58      11.4  T
   4   -847.7650741 -0.528382E-07  0.303E-04    0.58      15.1  T
   5   -847.7650742 -0.972760E-07  0.840E-05    0.58      54.4  T
   6   -847.7650742 -0.600505E-08  0.445E-05    0.58     102.6  T
     SCC iter.                  ...        0 min,  9.826 sec
     gradient                   ...        0 min,  1.906 sec
 * total energy  :  -834.8904583 Eh     change       -0.1829602E-02 Eh
   gradient norm :     0.0036333 Eh/α   predicted    -0.1741278E-02 (  -4.83%)
   displ. norm   :     0.8769644 α      lambda       -0.1766881E-02
   maximum displ.:     0.4404642 α      in ANC's #24, #34, #66, ...

........................................................................
.............................. CYCLE   34 ..............................
........................................................................
   1   -847.7694720 -0.847769E+03  0.106E-03    0.58       0.0  T
   2   -847.7694723 -0.315453E-06  0.586E-04    0.58       7.8  T
   3   -847.7694724 -0.566539E-07  0.349E-04    0.58      13.1  T
   4   -847.7694724 -0.631894E-08  0.278E-04    0.58      16.4  T
   5   -847.7694725 -0.930243E-07  0.728E-05    0.58      62.7  T
   6   -847.7694725 -0.501257E-08  0.387E-05    0.58     117.9  T
     SCC iter.                  ...        0 min, 11.375 sec
     gradient                   ...        0 min,  1.875 sec
 * total energy  :  -834.8921271 Eh     change       -0.1668800E-02 Eh
   gradient norm :     0.0035019 Eh/α   predicted    -0.1562875E-02 (  -6.35%)
   displ. norm   :     0.8665779 α      lambda       -0.1629321E-02
   maximum displ.:     0.4563936 α      in ANC's #24, #34, #66, ...

........................................................................
.............................. CYCLE   35 ..............................
........................................................................
   1   -847.7736569 -0.847774E+03  0.970E-04    0.58       0.0  T
   2   -847.7736572 -0.310679E-06  0.495E-04    0.58       9.2  T
   3   -847.7736572 -0.340630E-07  0.287E-04    0.58      15.9  T
   4   -847.7736572  0.325317E-07  0.236E-04    0.58      19.4  T
   5   -847.7736572 -0.762521E-07  0.690E-05    0.58      66.2  T
   6   -847.7736572 -0.585953E-08  0.341E-05    0.58     133.7  T
     SCC iter.                  ...        0 min, 11.063 sec
     gradient                   ...        0 min,  1.888 sec
 * total energy  :  -834.8936718 Eh     change       -0.1544612E-02 Eh
   gradient norm :     0.0032395 Eh/α   predicted    -0.1426436E-02 (  -7.65%)
   displ. norm   :     0.8584102 α      lambda       -0.1522709E-02
   maximum displ.:     0.4724344 α      in ANC's #24, #34, #66, ...

........................................................................
.............................. CYCLE   36 ..............................
........................................................................
   1   -847.7778269 -0.847778E+03  0.896E-04    0.58       0.0  T
   2   -847.7778272 -0.269271E-06  0.458E-04    0.58      10.0  T
   3   -847.7778272 -0.258755E-07  0.275E-04    0.58      16.6  T
   4   -847.7778272  0.279178E-07  0.218E-04    0.58      20.9  T
   5   -847.7778273 -0.696011E-07  0.665E-05    0.58      68.7  T
   6   -847.7778273 -0.585237E-08  0.310E-05    0.58     147.1  T
     SCC iter.                  ...        0 min, 12.133 sec
     gradient                   ...        0 min,  1.868 sec
 * total energy  :  -834.8951193 Eh     change       -0.1447583E-02 Eh
   gradient norm :     0.0029270 Eh/α   predicted    -0.1322372E-02 (  -8.65%)
   displ. norm   :     0.8524762 α      lambda       -0.1434212E-02
   maximum displ.:     0.4880370 α      in ANC's #24, #34, #66, ...

........................................................................
.............................. CYCLE   37 ..............................
........................................................................
   1   -847.7818734 -0.847782E+03  0.853E-04    0.58       0.0  T
   2   -847.7818736 -0.259285E-06  0.433E-04    0.58      10.5  T
   3   -847.7818737 -0.287181E-07  0.275E-04    0.58      16.6  T
   4   -847.7818737  0.278658E-08  0.200E-04    0.58      22.8  T
   5   -847.7818737 -0.553316E-07  0.643E-05    0.58      71.0  T
   6   -847.7818737 -0.472266E-08  0.320E-05    0.58     142.7  T
     SCC iter.                  ...        0 min, 12.631 sec
     gradient                   ...        0 min,  1.868 sec
 * total energy  :  -834.8964857 Eh     change       -0.1366375E-02 Eh
   gradient norm :     0.0026089 Eh/α   predicted    -0.1238238E-02 (  -9.38%)
   displ. norm   :     0.8466615 α      lambda       -0.1351980E-02
   maximum displ.:     0.5017071 α      in ANC's #24, #34, #66, ...

........................................................................
.............................. CYCLE   38 ..............................
........................................................................
   1   -847.7858558 -0.847786E+03  0.855E-04    0.58       0.0  T
   2   -847.7858561 -0.253833E-06  0.428E-04    0.58      10.7  T
   3   -847.7858561 -0.297329E-07  0.281E-04    0.58      16.2  T
   4   -847.7858561 -0.211966E-07  0.192E-04    0.58      23.7  T
   5   -847.7858562 -0.451264E-07  0.619E-05    0.58      73.7  T
     SCC iter.                  ...        0 min,  9.784 sec
     gradient                   ...        0 min,  1.848 sec
 * total energy  :  -834.8977759 Eh     change       -0.1290235E-02 Eh
   gradient norm :     0.0024655 Eh/α   predicted    -0.1160565E-02 ( -10.05%)
   displ. norm   :     0.8396741 α      lambda       -0.1271558E-02
   maximum displ.:     0.5120483 α      in ANC's #24, #34, #66, ...

........................................................................
.............................. CYCLE   39 ..............................
........................................................................
   1   -847.7899041 -0.847790E+03  0.845E-04    0.58       0.0  T
   2   -847.7899044 -0.239542E-06  0.427E-04    0.58      10.7  T
   3   -847.7899044 -0.395145E-07  0.284E-04    0.58      16.1  T
   4   -847.7899045 -0.347911E-07  0.178E-04    0.58      25.6  T
   5   -847.7899045 -0.326546E-07  0.558E-05    0.58      81.8  T
     SCC iter.                  ...        0 min, 10.095 sec
     gradient                   ...        0 min,  1.890 sec
 * total energy  :  -834.8989914 Eh     change       -0.1215402E-02 Eh
   gradient norm :     0.0024729 Eh/α   predicted    -0.1084037E-02 ( -10.81%)
   displ. norm   :     0.8280420 α      lambda       -0.1191487E-02
   maximum displ.:     0.5173126 α      in ANC's #24, #34, #66, ...

........................................................................
.............................. CYCLE   40 ..............................
........................................................................
   1   -847.7938942 -0.847794E+03  0.848E-04    0.58       0.0  T
   2   -847.7938944 -0.229295E-06  0.428E-04    0.58      10.7  T
   3   -847.7938944 -0.348484E-07  0.282E-04    0.58      16.2  T
   4   -847.7938945 -0.333215E-07  0.183E-04    0.58      24.9  T
   5   -847.7938945 -0.342546E-07  0.551E-05    0.58      82.9  T
     SCC iter.                  ...        0 min,  9.847 sec
     gradient                   ...        0 min,  1.860 sec
 * total energy  :  -834.9001317 Eh     change       -0.1140336E-02 Eh
   gradient norm :     0.0026003 Eh/α   predicted    -0.1004218E-02 ( -11.94%)
   displ. norm   :     0.8153627 α      lambda       -0.1119730E-02
   maximum displ.:     0.5200934 α      in ANC's #24, #34, #66, ...

........................................................................
.............................. CYCLE   41 ..............................
........................................................................
   1   -847.7978422 -0.847798E+03  0.850E-04    0.58       0.0  T
   2   -847.7978424 -0.232919E-06  0.412E-04    0.58      11.1  T
   3   -847.7978424 -0.277450E-07  0.272E-04    0.58      16.8  T
   4   -847.7978424 -0.270579E-07  0.177E-04    0.58      25.7  T
   5   -847.7978425 -0.329417E-07  0.478E-05    0.58      95.5  T
     SCC iter.                  ...        0 min,  9.637 sec
     gradient                   ...        0 min,  1.906 sec
 * total energy  :  -834.9012040 Eh     change       -0.1072291E-02 Eh
   gradient norm :     0.0027632 Eh/α   predicted    -0.9320730E-03 ( -13.08%)
   displ. norm   :     0.8028277 α      lambda       -0.1057415E-02
   maximum displ.:     0.5219656 α      in ANC's #24, #34, #66, ...

........................................................................
.............................. CYCLE   42 ..............................
........................................................................
   1   -847.8017090 -0.847802E+03  0.824E-04    0.58       0.0  T
   2   -847.8017092 -0.208402E-06  0.415E-04    0.58      11.0  T
   3   -847.8017093 -0.275386E-07  0.271E-04    0.58      16.9  T
   4   -847.8017093 -0.278299E-07  0.182E-04    0.58      25.1  T
   5   -847.8017093 -0.348937E-07  0.533E-05    0.58      85.6  T
     SCC iter.                  ...        0 min,  8.917 sec
     gradient                   ...        0 min,  1.875 sec
 * total energy  :  -834.9022168 Eh     change       -0.1012814E-02 Eh
   gradient norm :     0.0028244 Eh/α   predicted    -0.8694780E-03 ( -14.15%)
   displ. norm   :     0.7910929 α      lambda       -0.1001460E-02
   maximum displ.:     0.5236939 α      in ANC's #24, #34, #66, ...
 * RMSD in coord.:     0.7767316 α      energy gain  -0.5551404E-01 Eh

generating ANC from model Hessian ...
Using Lindh-Hessian (1995)
 Shifting diagonal of input Hessian by    1.0010336791224428E-002
 Lowest  eigenvalues of input Hessian
    0.010000    0.010002    0.010005    0.010007    0.010007    0.010008
    0.010009    0.010009    0.010009    0.010009    0.000000    0.000000
    0.000000    0.000000    0.000000    0.000000    0.010011    0.010013
 Highest eigenvalues
    2.596984    2.597488    2.601710    2.602390    2.609589    2.612653


........................................................................
.............................. CYCLE   43 ..............................
........................................................................
   1   -847.8051589 -0.847805E+03  0.797E-04    0.58       0.0  T
   2   -847.8051591 -0.212189E-06  0.384E-04    0.58      11.9  T
   3   -847.8051591 -0.243240E-07  0.251E-04    0.58      18.2  T
   4   -847.8051591 -0.200639E-07  0.168E-04    0.58      27.1  T
   5   -847.8051591 -0.305478E-07  0.454E-05    0.58     100.5  T
     SCC iter.                  ...        0 min,  9.413 sec
     gradient                   ...        0 min,  1.881 sec
 * total energy  :  -834.9031770 Eh     change       -0.9601702E-03 Eh
   gradient norm :     0.0027873 Eh/α   predicted     0.0000000E+00 (-100.00%)
   displ. norm   :     0.1289397 α      lambda       -0.1912749E-03
   maximum displ.:     0.1093664 α      in ANC's #24, #81, #30, ...

........................................................................
.............................. CYCLE   44 ..............................
........................................................................
   1   -847.8073330 -0.847807E+03  0.428E-04    0.58       0.0  T
   2   -847.8073331 -0.323131E-07  0.214E-04    0.58      21.4  T
   3   -847.8073331 -0.900172E-09  0.144E-04    0.58      31.7  T
   4   -847.8073331 -0.350690E-08  0.763E-05    0.58      59.9  T
     SCC iter.                  ...        0 min,  7.902 sec
     gradient                   ...        0 min,  1.915 sec
 * total energy  :  -834.9033571 Eh     change       -0.1801622E-03 Eh
   gradient norm :     0.0020322 Eh/α   predicted    -0.9730385E-04 ( -45.99%)
   displ. norm   :     0.2803240 α      lambda       -0.3822993E-03
   maximum displ.:     0.2020582 α      in ANC's #24, #81, #84, ...

........................................................................
.............................. CYCLE   45 ..............................
........................................................................
   1   -847.8105828 -0.847811E+03  0.800E-04    0.58       0.0  T
   2   -847.8105829 -0.123817E-06  0.403E-04    0.58      11.3  T
   3   -847.8105829 -0.962586E-09  0.279E-04    0.58      16.4  T
   4   -847.8105830 -0.150645E-07  0.173E-04    0.58      26.3  T
   5   -847.8105830 -0.372987E-07  0.631E-05    0.58      72.3  T
     SCC iter.                  ...        0 min, 11.581 sec
     gradient                   ...        0 min,  1.927 sec
 * total energy  :  -834.9037199 Eh     change       -0.3627744E-03 Eh
   gradient norm :     0.0025608 Eh/α   predicted    -0.2061709E-03 ( -43.17%)
   displ. norm   :     0.5090484 α      lambda       -0.6394996E-03
   maximum displ.:     0.3446352 α      in ANC's #24, #81, #84, ...

........................................................................
.............................. CYCLE   46 ..............................
........................................................................
   1   -847.8113354 -0.847811E+03  0.795E-04    0.58       0.0  T
   2   -847.8113355 -0.159103E-06  0.411E-04    0.58      11.1  T
   3   -847.8113356 -0.503619E-07  0.270E-04    0.58      16.9  T
   4   -847.8113356 -0.398021E-07  0.160E-04    0.58      28.6  T
   5   -847.8113356 -0.200911E-07  0.612E-05    0.58      74.6  T
     SCC iter.                  ...        0 min, 11.558 sec
     gradient                   ...        0 min,  1.918 sec
 * total energy  :  -834.9043240 Eh     change       -0.6040642E-03 Eh
   gradient norm :     0.0034566 Eh/α   predicted    -0.4026161E-03 ( -33.35%)
   displ. norm   :     0.6596741 α      lambda       -0.7728448E-03
   maximum displ.:     0.4404185 α      in ANC's #24, #81, #84, ...

........................................................................
.............................. CYCLE   47 ..............................
........................................................................
   1   -847.8096460 -0.847810E+03  0.977E-04    0.58       0.0  T
   2   -847.8096462 -0.174020E-06  0.511E-04    0.58       8.9  T
   3   -847.8096462  0.105517E-07  0.385E-04    0.58      11.9  T
   4   -847.8096463 -0.137239E-06  0.194E-04    0.58      23.5  T
   5   -847.8096463 -0.281585E-07  0.687E-05    0.58      66.4  T
     SCC iter.                  ...        0 min, 11.672 sec
     gradient                   ...        0 min,  1.956 sec
 * total energy  :  -834.9050425 Eh     change       -0.7185651E-03 Eh
   gradient norm :     0.0033808 Eh/α   predicted    -0.5545930E-03 ( -22.82%)
   displ. norm   :     0.6879073 α      lambda       -0.7490559E-03
   maximum displ.:     0.4614317 α      in ANC's #24, #81, #84, ...

........................................................................
.............................. CYCLE   48 ..............................
........................................................................
   1   -847.8087752 -0.847809E+03  0.107E-03    0.58       0.0  T
   2   -847.8087755 -0.237630E-06  0.537E-04    0.58       8.5  T
   3   -847.8087755  0.224605E-07  0.417E-04    0.58      10.9  T
   4   -847.8087756 -0.175333E-06  0.203E-04    0.58      22.5  T
   5   -847.8087757 -0.293439E-07  0.674E-05    0.58      67.7  T
   6   -847.8087757 -0.249361E-08  0.427E-05    0.58     106.8  T
     SCC iter.                  ...        0 min, 13.451 sec
     gradient                   ...        0 min,  1.868 sec
 * total energy  :  -834.9057389 Eh     change       -0.6963585E-03 Eh
   gradient norm :     0.0035019 Eh/α   predicted    -0.5517670E-03 ( -20.76%)
   displ. norm   :     0.6543633 α      lambda       -0.6721716E-03
   maximum displ.:     0.4439818 α      in ANC's #24, #81, #84, ...

........................................................................
.............................. CYCLE   49 ..............................
........................................................................
   1   -847.8097997 -0.847810E+03  0.103E-03    0.58       0.0  T
   2   -847.8098000 -0.303794E-06  0.498E-04    0.58       9.2  T
   3   -847.8098000 -0.347110E-07  0.367E-04    0.58      12.4  T
   4   -847.8098002 -0.123435E-06  0.198E-04    0.58      23.0  T
   5   -847.8098002 -0.308343E-07  0.747E-05    0.58      61.1  T
     SCC iter.                  ...        0 min,  8.660 sec
     gradient                   ...        0 min,  1.925 sec
 * total energy  :  -834.9063739 Eh     change       -0.6350628E-03 Eh
   gradient norm :     0.0038198 Eh/α   predicted    -0.4800002E-03 ( -24.42%)
   displ. norm   :     0.6241748 α      lambda       -0.6334041E-03
   maximum displ.:     0.4302785 α      in ANC's #24, #30, #81, ...

........................................................................
.............................. CYCLE   50 ..............................
........................................................................
   1   -847.8127245 -0.847813E+03  0.952E-04    0.58       0.0  T
   2   -847.8127248 -0.315812E-06  0.478E-04    0.58       9.5  T
   3   -847.8127249 -0.103129E-06  0.312E-04    0.58      14.6  T
   4   -847.8127250 -0.819202E-07  0.175E-04    0.58      26.0  T
   5   -847.8127250 -0.203655E-07  0.649E-05    0.58      70.3  T
     SCC iter.                  ...        0 min,  9.440 sec
     gradient                   ...        0 min,  1.904 sec
 * total energy  :  -834.9069771 Eh     change       -0.6031850E-03 Eh
   gradient norm :     0.0037882 Eh/α   predicted    -0.4400904E-03 ( -27.04%)
   displ. norm   :     0.6145972 α      lambda       -0.6210134E-03
   maximum displ.:     0.4305982 α      in ANC's #24, #30, #81, ...

........................................................................
.............................. CYCLE   51 ..............................
........................................................................
   1   -847.8164545 -0.847816E+03  0.872E-04    0.58       0.0  T
   2   -847.8164547 -0.275264E-06  0.462E-04    0.58       9.9  T
   3   -847.8164548 -0.111135E-06  0.280E-04    0.58      16.3  T
   4   -847.8164549 -0.604559E-07  0.169E-04    0.58      27.1  T
   5   -847.8164549 -0.197176E-07  0.659E-05    0.58      69.3  T
     SCC iter.                  ...        0 min,  9.728 sec
     gradient                   ...        0 min,  1.904 sec
 * total energy  :  -834.9075675 Eh     change       -0.5903972E-03 Eh
   gradient norm :     0.0034063 Eh/α   predicted    -0.4277946E-03 ( -27.54%)
   displ. norm   :     0.6153202 α      lambda       -0.6044274E-03
   maximum displ.:     0.4374123 α      in ANC's #24, #30, #47, ...

........................................................................
.............................. CYCLE   52 ..............................
........................................................................
   1   -847.8197614 -0.847820E+03  0.796E-04    0.58       0.0  T
   2   -847.8197616 -0.191465E-06  0.447E-04    0.58      10.2  T
   3   -847.8197617 -0.107941E-06  0.273E-04    0.58      16.7  T
   4   -847.8197618 -0.640030E-07  0.160E-04    0.58      28.5  T
   5   -847.8197618 -0.172779E-07  0.616E-05    0.58      74.1  T
     SCC iter.                  ...        0 min, 11.055 sec
     gradient                   ...        0 min,  1.935 sec
 * total energy  :  -834.9081404 Eh     change       -0.5728455E-03 Eh
   gradient norm :     0.0029627 Eh/α   predicted    -0.4166376E-03 ( -27.27%)
   displ. norm   :     0.6071671 α      lambda       -0.5698850E-03
   maximum displ.:     0.4374003 α      in ANC's #24, #30, #47, ...

........................................................................
.............................. CYCLE   53 ..............................
........................................................................
   1   -847.8226002 -0.847823E+03  0.712E-04    0.58       0.0  T
   2   -847.8226003 -0.124079E-06  0.414E-04    0.58      11.0  T
   3   -847.8226004 -0.888290E-07  0.260E-04    0.58      17.6  T
   4   -847.8226004 -0.623984E-07  0.147E-04    0.58      31.1  T
   5   -847.8226004 -0.144311E-07  0.556E-05    0.58      82.2  T
     SCC iter.                  ...        0 min, 11.174 sec
     gradient                   ...        0 min,  1.907 sec
 * total energy  :  -834.9086801 Eh     change       -0.5397339E-03 Eh
   gradient norm :     0.0023781 Eh/α   predicted    -0.3899898E-03 ( -27.74%)
   displ. norm   :     0.5866765 α      lambda       -0.5237898E-03
   maximum displ.:     0.4271708 α      in ANC's #24, #30, #47, ...

........................................................................
.............................. CYCLE   54 ..............................
........................................................................
   1   -847.8248362 -0.847825E+03  0.636E-04    0.58       0.0  T
   2   -847.8248363 -0.901028E-07  0.364E-04    0.58      12.5  T
   3   -847.8248363 -0.608953E-07  0.239E-04    0.58      19.1  T
   4   -847.8248364 -0.567251E-07  0.127E-04    0.58      36.0  T
   5   -847.8248364 -0.107797E-07  0.452E-05    0.58     100.9  T
     SCC iter.                  ...        0 min, 10.913 sec
     gradient                   ...        0 min,  1.867 sec
 * total energy  :  -834.9091773 Eh     change       -0.4971848E-03 Eh
   gradient norm :     0.0018250 Eh/α   predicted    -0.3520414E-03 ( -29.19%)
   displ. norm   :     0.8375957 α      lambda       -0.4760891E-03
   maximum displ.:     0.6150186 α      in ANC's #24, #30, #47, ...

........................................................................
.............................. CYCLE   55 ..............................
........................................................................
   1   -847.8272593 -0.847827E+03  0.851E-04    0.58       0.0  T
   2   -847.8272594 -0.164251E-06  0.478E-04    0.58       9.6  T
   3   -847.8272595 -0.873998E-07  0.321E-04    0.58      14.2  T
   4   -847.8272596 -0.998716E-07  0.173E-04    0.58      26.4  T
   5   -847.8272596 -0.222014E-07  0.602E-05    0.58      75.9  T
     SCC iter.                  ...        0 min,  8.766 sec
     gradient                   ...        0 min,  1.885 sec
 * total energy  :  -834.9098444 Eh     change       -0.6670611E-03 Eh
   gradient norm :     0.0018325 Eh/α   predicted    -0.3122688E-03 ( -53.19%)
   displ. norm   :     0.7596218 α      lambda       -0.4094359E-03
   maximum displ.:     0.5628857 α      in ANC's #24, #30, #47, ...

........................................................................
.............................. CYCLE   56 ..............................
........................................................................
   1   -847.8297218 -0.847830E+03  0.714E-04    0.58       0.0  T
   2   -847.8297219 -0.132949E-06  0.379E-04    0.58      12.0  T
   3   -847.8297220 -0.402235E-07  0.259E-04    0.58      17.6  T
   4   -847.8297220 -0.546488E-07  0.144E-04    0.58      31.7  T
   5   -847.8297221 -0.176907E-07  0.461E-05    0.58      99.1  T
     SCC iter.                  ...        0 min,  8.532 sec
     gradient                   ...        0 min,  1.834 sec
 * total energy  :  -834.9104227 Eh     change       -0.5782973E-03 Eh
   gradient norm :     0.0019735 Eh/α   predicted    -0.2572187E-03 ( -55.52%)
   displ. norm   :     0.7116121 α      lambda       -0.3771638E-03
   maximum displ.:     0.5289330 α      in ANC's #24, #30, #47, ...

........................................................................
.............................. CYCLE   57 ..............................
........................................................................
   1   -847.8327987 -0.847833E+03  0.636E-04    0.58       0.0  T
   2   -847.8327988 -0.117651E-06  0.326E-04    0.58      14.0  T
   3   -847.8327988 -0.213175E-07  0.220E-04    0.58      20.7  T
   4   -847.8327988 -0.271522E-07  0.136E-04    0.58      33.6  T
   5   -847.8327989 -0.195023E-07  0.442E-05    0.58     103.2  T
     SCC iter.                  ...        0 min,  7.920 sec
     gradient                   ...        0 min,  1.904 sec
 * total energy  :  -834.9109597 Eh     change       -0.5370966E-03 Eh
   gradient norm :     0.0021859 Eh/α   predicted    -0.2310261E-03 ( -56.99%)
   displ. norm   :     0.4689674 α      lambda       -0.3646298E-03
   maximum displ.:     0.3474027 α      in ANC's #24, #47, #30, ...

........................................................................
.............................. CYCLE   58 ..............................
........................................................................
   1   -847.8345867 -0.847835E+03  0.385E-04    0.58       0.0  T
   2   -847.8345867 -0.451382E-07  0.194E-04    0.58      23.5  T
   3   -847.8345867 -0.657747E-08  0.127E-04    0.58      35.9  T
     SCC iter.                  ...        0 min,  4.884 sec
     gradient                   ...        0 min,  1.866 sec
 * total energy  :  -834.9113132 Eh     change       -0.3534055E-03 Eh
   gradient norm :     0.0019911 Eh/α   predicted    -0.2224135E-03 ( -37.07%)
   displ. norm   :     0.7370298 α      lambda       -0.3807133E-03
   maximum displ.:     0.5435780 α      in ANC's #24, #47, #30, ...

........................................................................
.............................. CYCLE   59 ..............................
........................................................................
   1   -847.8374980 -0.847837E+03  0.607E-04    0.58       0.0  T
   2   -847.8374981 -0.113935E-06  0.305E-04    0.58      15.0  T
   3   -847.8374981 -0.112562E-07  0.182E-04    0.58      25.1  T
   4   -847.8374981  0.136196E-07  0.132E-04    0.58      34.7  T
     SCC iter.                  ...        0 min,  6.582 sec
     gradient                   ...        0 min,  1.883 sec
 * total energy  :  -834.9118536 Eh     change       -0.5404901E-03 Eh
   gradient norm :     0.0017757 Eh/α   predicted    -0.2363153E-03 ( -56.28%)
   displ. norm   :     0.7435753 α      lambda       -0.3649522E-03
   maximum displ.:     0.5480538 α      in ANC's #24, #47, #30, ...

........................................................................
.............................. CYCLE   60 ..............................
........................................................................
   1   -847.8394570 -0.847839E+03  0.583E-04    0.58       0.0  T
   2   -847.8394571 -0.839598E-07  0.304E-04    0.58      15.0  T
   3   -847.8394571 -0.515900E-08  0.205E-04    0.58      22.2  T
   4   -847.8394571 -0.140610E-07  0.142E-04    0.58      32.1  T
   5   -847.8394571 -0.261672E-07  0.431E-05    0.58     105.8  T
     SCC iter.                  ...        0 min,  8.207 sec
     gradient                   ...        0 min,  1.889 sec
 * total energy  :  -834.9123592 Eh     change       -0.5055423E-03 Eh
   gradient norm :     0.0017718 Eh/α   predicted    -0.2273174E-03 ( -55.03%)
[...]
   253   6 C      254   7 N                                       1.3695967
   253   6 C      255   6 C                                       1.4005270
   256   6 C      257   6 C                                       1.3954091
   257   6 C      258   6 C                                       1.3860944
   258   6 C      259   6 C                                       1.3929857
   259   6 C      260   8 O                                       1.3578109
   259   6 C      261   6 C                                       1.3936982
   256   6 C      262   6 C                                       1.3969924
   261   6 C      262   6 C                                       1.3836624
   255   6 C      263   6 C                                       1.3957744
   263   6 C      264   6 C                                       1.4513318
   264   6 C      265   6 C                                       1.3491827
   263   6 C      266   7 N                                       1.3622316
   265   6 C      267   6 C                                       1.4485002
   266   7 N      267   6 C                                       1.3487664
   267   6 C      268   6 C                                       1.4103640
   268   6 C      269   6 C                                       1.4089161
   269   6 C      270   6 C                                       1.4178419
   270   6 C      271   6 C                                       1.3679993
   271   6 C      272   6 C                                       1.4208302
   269   6 C      273   7 N                                       1.3635503
   272   6 C      273   7 N                                       1.3698049
   272   6 C      274   6 C                                       1.4003195
   275   6 C      276   6 C                                       1.3968279
   276   6 C      277   6 C                                       1.3837268
   277   6 C      278   6 C                                       1.3936803
   278   6 C      279   8 O                                       1.3578602
   278   6 C      280   6 C                                       1.3929625
   275   6 C      281   6 C                                       1.3952890
   280   6 C      281   6 C                                       1.3861319
   274   6 C      282   6 C                                       1.3955146
   282   6 C      283   6 C                                       1.4513904
   283   6 C      284   6 C                                       1.3491248
   249   6 C      285   6 C                                       1.4098830
   284   6 C      285   6 C                                       1.4488252
   282   6 C      286   7 N                                       1.3620258
   285   6 C      286   7 N                                       1.3487304
   251   6 C      287   1 H                                       1.0773744
   252   6 C      288   1 H                                       1.0776642
   254   7 N      289   1 H                                       1.0145227
   257   6 C      290   1 H                                       1.0843178
   258   6 C      291   1 H                                       1.0847454
   260   8 O      292   1 H                                       0.9666316
   261   6 C      293   1 H                                       1.0829869
   262   6 C      294   1 H                                       1.0843097
   264   6 C      295   1 H                                       1.0779441
   265   6 C      296   1 H                                       1.0776612
   270   6 C      297   1 H                                       1.0770450
   271   6 C      298   1 H                                       1.0776470
   273   7 N      299   1 H                                       1.0145448
   276   6 C      300   1 H                                       1.0843002
   277   6 C      301   1 H                                       1.0829848
   279   8 O      302   1 H                                       0.9666348
   280   6 C      303   1 H                                       1.0847453
   281   6 C      304   1 H                                       1.0843226
   283   6 C      305   1 H                                       1.0779435
   284   6 C      306   1 H                                       1.0778102
   307   6 C      308   6 C                                       1.4093875
   308   6 C      309   6 C                                       1.4175460
   309   6 C      310   6 C                                       1.3686758
   310   6 C      311   6 C                                       1.4205819
   308   6 C      312   7 N                                       1.3633984
   311   6 C      312   7 N                                       1.3694460
   311   6 C      313   6 C                                       1.4013081
   314   6 C      315   6 C                                       1.3958615
   315   6 C      316   6 C                                       1.3859318
   316   6 C      317   6 C                                       1.3930674
   317   6 C      318   8 O                                       1.3577271
   317   6 C      319   6 C                                       1.3937942
   314   6 C      320   6 C                                       1.3976089
   319   6 C      320   6 C                                       1.3833922
   313   6 C      321   6 C                                       1.3960977
   321   6 C      322   6 C                                       1.4510831
   322   6 C      323   6 C                                       1.3495918
   321   6 C      324   7 N                                       1.3622833
   323   6 C      325   6 C                                       1.4480907
   324   7 N      325   6 C                                       1.3485393
   325   6 C      326   6 C                                       1.4110416
   326   6 C      327   6 C                                       1.4088620
   327   6 C      328   6 C                                       1.4178079
   328   6 C      329   6 C                                       1.3679551
   329   6 C      330   6 C                                       1.4208700
   327   6 C      331   7 N                                       1.3637176
   330   6 C      331   7 N                                       1.3696828
   330   6 C      332   6 C                                       1.4001841
   333   6 C      334   6 C                                       1.3965716
   334   6 C      335   6 C                                       1.3838261
   335   6 C      336   6 C                                       1.3935817
   336   6 C      337   8 O                                       1.3581063
   336   6 C      338   6 C                                       1.3928580
   333   6 C      339   6 C                                       1.3947828
   338   6 C      339   6 C                                       1.3864146
   332   6 C      340   6 C                                       1.3950561
   340   6 C      341   6 C                                       1.4513462
   341   6 C      342   6 C                                       1.3490130
   307   6 C      343   6 C                                       1.4099840
   342   6 C      343   6 C                                       1.4483700
   340   6 C      344   7 N                                       1.3623508
   343   6 C      344   7 N                                       1.3487629
   309   6 C      345   1 H                                       1.0772774
   310   6 C      346   1 H                                       1.0777117
   312   7 N      347   1 H                                       1.0143930
   315   6 C      348   1 H                                       1.0842976
   316   6 C      349   1 H                                       1.0847456
   318   8 O      350   1 H                                       0.9666517
   319   6 C      351   1 H                                       1.0830015
   320   6 C      352   1 H                                       1.0843505
   322   6 C      353   1 H                                       1.0779816
   323   6 C      354   1 H                                       1.0776048
   328   6 C      355   1 H                                       1.0769156
   329   6 C      356   1 H                                       1.0776739
   331   7 N      357   1 H                                       1.0145602
   334   6 C      358   1 H                                       1.0842913
   335   6 C      359   1 H                                       1.0829846
   337   8 O      360   1 H                                       0.9665930 (min)
   338   6 C      361   1 H                                       1.0847492
   339   6 C      362   1 H                                       1.0842932
   341   6 C      363   1 H                                       1.0779074
   342   6 C      364   1 H                                       1.0774944
   365   6 C      366   6 C                                       1.4095614
   366   6 C      367   6 C                                       1.4178317
   367   6 C      368   6 C                                       1.3682723
   368   6 C      369   6 C                                       1.4207235
   366   6 C      370   7 N                                       1.3635563
   369   6 C      370   7 N                                       1.3698001
   369   6 C      371   6 C                                       1.4008737
   372   6 C      373   6 C                                       1.3954275
   373   6 C      374   6 C                                       1.3861475
   374   6 C      375   6 C                                       1.3929694
   375   6 C      376   8 O                                       1.3580052
   375   6 C      377   6 C                                       1.3936894
   372   6 C      378   6 C                                       1.3973191
   377   6 C      378   6 C                                       1.3835357
   371   6 C      379   6 C                                       1.3958867
   379   6 C      380   6 C                                       1.4516523
   380   6 C      381   6 C                                       1.3493127
   379   6 C      382   7 N                                       1.3616590
   381   6 C      383   6 C                                       1.4486999
   382   7 N      383   6 C                                       1.3488319
   383   6 C      384   6 C                                       1.4086701
   384   6 C      385   6 C                                       1.4080587
   385   6 C      386   6 C                                       1.4185557
   386   6 C      387   6 C                                       1.3681077
   387   6 C      388   6 C                                       1.4210756
   385   6 C      389   7 N                                       1.3633983
   388   6 C      389   7 N                                       1.3693103
   388   6 C      390   6 C                                       1.4003846
   391   6 C      392   6 C                                       1.3969928
   392   6 C      393   6 C                                       1.3836331
   393   6 C      394   6 C                                       1.3936416
   394   6 C      395   8 O                                       1.3580369
   394   6 C      396   6 C                                       1.3929099
   391   6 C      397   6 C                                       1.3950310
   396   6 C      397   6 C                                       1.3863402
   390   6 C      398   6 C                                       1.3953704
   398   6 C      399   6 C                                       1.4511963
   399   6 C      400   6 C                                       1.3488982
   365   6 C      401   6 C                                       1.4103137
   400   6 C      401   6 C                                       1.4482329
   398   6 C      402   7 N                                       1.3626634
   401   6 C      402   7 N                                       1.3487489
   367   6 C      403   1 H                                       1.0771522
   368   6 C      404   1 H                                       1.0777111
   370   7 N      405   1 H                                       1.0144785
   373   6 C      406   1 H                                       1.0842736
   374   6 C      407   1 H                                       1.0847478
   376   8 O      408   1 H                                       0.9666299
   377   6 C      409   1 H                                       1.0830051
   378   6 C      410   1 H                                       1.0843482
   380   6 C      411   1 H                                       1.0779556
   381   6 C      412   1 H                                       1.0781050
   386   6 C      413   1 H                                       1.0776276
   387   6 C      414   1 H                                       1.0777205
   389   7 N      415   1 H                                       1.0145520
   392   6 C      416   1 H                                       1.0843387
   393   6 C      417   1 H                                       1.0830007
   395   8 O      418   1 H                                       0.9666171
   396   6 C      419   1 H                                       1.0847419
   397   6 C      420   1 H                                       1.0842728
   399   6 C      421   1 H                                       1.0778706
   400   6 C      422   1 H                                       1.0772784
   423   6 C      424   6 C                                       1.4074011
   424   6 C      425   6 C                                       1.4186231
   425   6 C      426   6 C                                       1.3679966
   426   6 C      427   6 C                                       1.4213625
   424   6 C      428   7 N                                       1.3634182
   427   6 C      428   7 N                                       1.3695432
   427   6 C      429   6 C                                       1.4001517
   430   6 C      431   6 C                                       1.3951474
   431   6 C      432   6 C                                       1.3862428
   432   6 C      433   6 C                                       1.3929114
   433   6 C      434   8 O                                       1.3581227
   433   6 C      435   6 C                                       1.3936145
   430   6 C      436   6 C                                       1.3969186
   435   6 C      436   6 C                                       1.3837142
   429   6 C      437   6 C                                       1.3960135
   437   6 C      438   6 C                                       1.4517942
   438   6 C      439   6 C                                       1.3490370
   437   6 C      440   7 N                                       1.3615235
   439   6 C      441   6 C                                       1.4491647
   440   7 N      441   6 C                                       1.3492840
   441   6 C      442   6 C                                       1.4084097
   442   6 C      443   6 C                                       1.4080649
   443   6 C      444   6 C                                       1.4185076
   444   6 C      445   6 C                                       1.3683156
   445   6 C      446   6 C                                       1.4209697
   443   6 C      447   7 N                                       1.3633915
   446   6 C      447   7 N                                       1.3694672
   446   6 C      448   6 C                                       1.4007496
   449   6 C      450   6 C                                       1.3972509
   450   6 C      451   6 C                                       1.3835337
   451   6 C      452   6 C                                       1.3937551
   452   6 C      453   8 O                                       1.3576799
   452   6 C      454   6 C                                       1.3930231
   449   6 C      455   6 C                                       1.3955113
   454   6 C      455   6 C                                       1.3860919
   448   6 C      456   6 C                                       1.3959362
   456   6 C      457   6 C                                       1.4514861
   457   6 C      458   6 C                                       1.3492492
   423   6 C      459   6 C                                       1.4094598
   458   6 C      459   6 C                                       1.4491386
   456   6 C      460   7 N                                       1.3619640
   459   6 C      460   7 N                                       1.3486059
   425   6 C      461   1 H                                       1.0776872
   426   6 C      462   1 H                                       1.0777138
   428   7 N      463   1 H                                       1.0145476
   431   6 C      464   1 H                                       1.0842919
   432   6 C      465   1 H                                       1.0847579
   434   8 O      466   1 H                                       0.9666000
   435   6 C      467   1 H                                       1.0829941
   436   6 C      468   1 H                                       1.0843208
   438   6 C      469   1 H                                       1.0779484
   439   6 C      470   1 H                                       1.0779258
   444   6 C      471   1 H                                       1.0777851
   445   6 C      472   1 H                                       1.0777205
   447   7 N      473   1 H                                       1.0145228
   450   6 C      474   1 H                                       1.0843569
   451   6 C      475   1 H                                       1.0829961
   453   8 O      476   1 H                                       0.9666472
   454   6 C      477   1 H                                       1.0847378
   455   6 C      478   1 H                                       1.0843028
   457   6 C      479   1 H                                       1.0779475
   458   6 C      480   1 H                                       1.0780506

 * 6 distinct bonds (by element types)

   Z      Z             #   av. dist./Å        max./Å        min./Å
   1 H    6 C         130     1.0810222     1.0853942     1.0769156
   6 C    6 C         261     1.3957289     1.4521114     1.2171847
   1 H    7 N          16     1.0145353     1.0147101     1.0143930
   6 C    7 N          64     1.3609437     1.3701564     1.3485393
   1 H    8 O          16     0.9666273     0.9666578     0.9665930
   6 C    8 O          16     1.3579447     1.3581227     1.3576799


optimized geometry written to: xtbopt.xyz


           -------------------------------------------------
          | TOTAL ENERGY             -834.924897219833 Eh   |
          | GRADIENT NORM               0.000272753142 Eh/α |
          | HOMO-LUMO GAP               0.601114061173 eV   |
           -------------------------------------------------

------------------------------------------------------------------------
 * finished run on 2022/07/28 at 14:02:25.806     
------------------------------------------------------------------------
 total:
 * wall-time:     0 d,  0 h, 48 min, 16.326 sec
 *  cpu-time:     0 d,  0 h, 47 min, 57.980 sec
 * ratio c/w:     0.994 speedup
 SCF:
 * wall-time:     0 d,  0 h,  0 min, 53.953 sec
 *  cpu-time:     0 d,  0 h,  0 min, 53.613 sec
 * ratio c/w:     0.994 speedup
 ANC optimizer:
 * wall-time:     0 d,  0 h, 47 min, 21.674 sec
 *  cpu-time:     0 d,  0 h, 47 min,  3.680 sec
 * ratio c/w:     0.994 speedup

