189
 energy: -344.474566756030 gnorm: 1.332179644692 xtb: 6.5.1 (b24c23e)
Ni          26.72820200000000       -0.21796500000000       -0.15078400000000
C           23.34249600000000       -0.07564200000000       -0.10290800000000
C           24.00799200000000        0.71416100000000        0.74461300000000
C           23.36038600000000        1.59969000000000        1.70534700000000
C           24.30489800000000        2.24766400000000        2.36203500000000
C           25.60942100000000        1.80910100000000        1.84664800000000
N           25.42777500000000        0.83158400000000        0.82198900000000
C           26.80279200000000        2.28253000000000        2.25291600000000
C           26.84420500000000        3.29640700000000        3.28312400000000
C           26.88123400000000        4.14162500000000        4.14186500000000
C           26.92614300000000        5.14993800000000        5.16664600000000
C           28.13173600000000        5.79509800000000        5.46592400000000
C           28.15358700000000        6.77167600000000        6.46527100000000
N           27.01254200000000        7.08689100000000        7.13612400000000
C           25.83003100000000        6.47236900000000        6.86165900000000
C           25.76460400000000        5.49035900000000        5.86959800000000
C           28.09769300000000        1.82760200000000        1.68714300000000
C           29.38900800000000        2.44731300000000        2.00806500000000
C           30.32535800000000        1.78525000000000        1.36011200000000
N           28.23810800000000        0.82369700000000        0.87567000000000
C           29.63992200000000        0.73217100000000        0.61974700000000
C           30.23595400000000       -0.20591900000000       -0.13574200000000
C           29.47896600000000       -1.25316100000000       -0.86189400000000
C           30.03184800000000       -2.33403700000000       -1.39862800000000
C           28.98540100000000       -3.05625100000000       -2.09376500000000
C           27.85882500000000       -2.37037800000000       -1.93645900000000
N           28.08057300000000       -1.19775900000000       -1.14944700000000
C           26.56135900000000       -2.74146100000000       -2.55561300000000
C           26.55466200000000       -3.75167800000000       -3.59184200000000
C           26.54952500000000       -4.59341400000000       -4.45486800000000
C           26.54322700000000       -5.59775600000000       -5.48456900000000
C           27.73630400000000       -6.22199100000000       -5.86520500000000
C           27.70843700000000       -7.19460800000000       -6.86830600000000
N           26.53151700000000       -7.52652300000000       -7.46411400000000
C           25.36016800000000       -6.93279400000000       -7.10964900000000
C           25.34403200000000       -5.95518800000000       -6.11105700000000
C           25.39829600000000       -2.17888900000000       -2.18446300000000
C           24.07860300000000       -2.49538500000000       -2.72859600000000
C           23.21645600000000       -1.76764600000000       -2.04547100000000
C           23.97591400000000       -0.98439300000000       -1.07186900000000
N           25.24888300000000       -1.21698100000000       -1.14277400000000
H           22.25905200000000       -0.05206000000000       -0.08383700000000
H           22.29603699999999        1.71854400000000        1.86277400000000
H           24.12250200000000        2.97939700000000        3.13866000000000
H           29.04246800000000        5.54625100000000        4.93344000000000
H           29.07813600000000        7.27908700000000        6.70764000000000
H           24.94036100000000        6.74612900000000        7.41355200000000
H           24.82107300000000        5.00298400000000        5.65327300000000
H           29.56368000000000        3.29543800000000        2.65723600000000
H           31.38456600000000        2.00225300000000        1.39614700000000
H           31.07366300000000       -2.62114600000000       -1.35285900000000
H           29.11108600000000       -3.97250800000000       -2.65608600000000
H           28.67542900000000       -5.96009700000000       -5.39257300000000
H           28.62298100000000       -7.68574400000000       -7.17311900000000
H           24.44099200000000       -7.21950300000000       -7.60296400000000
H           24.40917600000000       -5.48431800000000       -5.83122900000000
H           23.83128400000000       -3.18910200000000       -3.52189500000000
H           22.14375500000000       -1.76422600000000       -2.18767400000000
Ni          64.83584200000000       -0.18682700000000       -0.13312600000000
C           68.22154800000000       -0.30097600000000       -0.23068700000000
C           67.55605300000001       -1.43375000000000       -0.47338800000000
C           68.20365800000000       -2.71282200000000       -0.74012000000000
C           67.25914600000000       -3.60901800000000       -0.95907500000000
C           65.95462400000000       -2.94158600000000       -0.84729200000000
N           66.13627000000000       -1.56043200000000       -0.53443600000000
C           64.76125200000000       -3.53327500000000       -1.04501300000000
C           64.71984000000000       -4.93785600000000       -1.38622400000000
C           64.68281100000000       -6.10870700000000       -1.67072200000000
C           64.63790100000000       -7.50577500000000       -2.00994400000000
C           63.43230799999999       -8.09380700000000       -2.40996400000000
C           63.41045700000000       -9.45275800000000       -2.73501000000000
N           64.55150300000000      -10.19028400000000       -2.66112700000000
C           65.73401400000000       -9.63927400000000       -2.27466200000000
C           65.79944100000000       -8.28378800000000       -1.94121500000000
C           63.46635100000000       -2.81420100000000       -0.94505300000000
C           62.17503600000000       -3.40774300000000       -1.31212300000000
C           61.23868700000000       -2.51181000000000       -1.07659400000000
N           63.32593600000000       -1.60245000000000       -0.50010900000000
C           61.92412300000000       -1.33583900000000       -0.55294600000000
C           61.32809000000000       -0.20591900000000       -0.13574200000000
C           62.08507800000000        0.95485800000000        0.39019200000000
C           61.53219600000000        1.97034900000000        1.04223100000000
C           62.57864300000000        2.93765400000000        1.30515900000000
C           63.70521999999999        2.45055700000000        0.79731600000000
N           63.48347100000000        1.17318700000000        0.19502900000000
C           65.00268600000000        3.17239800000000        0.79791900000000
C           65.00938200000000        4.58026800000000        1.13289900000000
C           65.01451900000001        5.75300800000000        1.41220800000000
C           65.02081800000001        7.15225900000000        1.74549700000000
C           63.82774100000000        7.79937000000000        2.08579400000000
C           63.85560700000000        9.15950700000000        2.40551200000000
N           65.03252800000000        9.84120500000000        2.38448700000000
C           66.20387700000001        9.23221600000000        2.05693400000000
C           66.22001200000000        7.87338600000000        1.73061900000000
C           66.16574900000001        2.56508400000000        0.50567000000000
C           67.48544200000001        3.19452100000000        0.49794100000000
C           68.34758900000000        2.23468800000000        0.22410600000000
C           67.58813100000000        0.99707800000000        0.05175100000000
N           66.31516200000000        1.17732900000000        0.21495100000000
H           69.30499300000000       -0.32944800000000       -0.24113400000000
H           69.26800700000000       -2.90893700000000       -0.76130000000000
H           67.44154200000000       -4.65114000000000       -1.18833800000000
H           62.52157700000000       -7.50909600000000       -2.46976800000000
H           62.48590799999999       -9.92123700000000       -3.04603300000000
H           66.62368300000000      -10.25343100000000       -2.22627400000000
H           66.74297199999999       -7.84794400000000       -1.63401700000000
H           62.00036400000000       -4.40024000000000       -1.70670000000000
H           60.17947899999999       -2.65413500000000       -1.24432000000000
H           60.49038100000000        2.07846200000000        1.31211600000000
H           62.45295800000000        3.89059300000000        1.80279000000000
H           62.88861599999999        7.25932300000000        2.10367500000000
H           62.94106300000000        9.67322000000000        2.67051100000000
H           67.12305200000000        9.80275000000000        2.04973100000000
H           67.15486799999999        7.39151900000000        1.47018500000000
H           67.73276100000000        4.23143600000000        0.68601900000000
H           69.42028999999999        2.35496700000000        0.14816900000000
C           32.41638900000000       -0.19122900000000       -0.12546600000000
C           33.87461499999999       -0.21306600000000       -0.14334000000000
C           35.00854300000000       -0.23381900000000       -0.14483000000000
C           36.36992500000000       -0.24640900000000       -0.14702200000000
C           37.64414400000000       -0.23610300000000       -0.15178700000000
C           38.83260600000000       -0.21730400000000       -0.15794300000000
C           40.18496700000000       -0.19252000000000       -0.14207500000000
C           41.28523400000000       -0.19122900000000       -0.12546600000000
C           50.15477299999999       -0.19122900000000       -0.12546600000000
C           51.61300000000000       -0.21306600000000       -0.14334000000000
C           52.74692799999999       -0.23381900000000       -0.14483000000000
C           54.10831000000000       -0.24640900000000       -0.14702200000000
C           55.38252800000000       -0.23610300000000       -0.15178700000000
C           56.57099099999999       -0.21730400000000       -0.15794300000000
C           57.92335199999999       -0.19252000000000       -0.14207500000000
C           59.02361900000000       -0.19122900000000       -0.12546600000000
Ni          45.84390799999999        0.34566700000000        0.31033200000000
C           42.36229500000000        0.47274200000000        0.31146600000000
C           43.01744100000000        1.02292600000000       -0.72450100000000
C           42.36434400000000        1.58327100000000       -1.90474500000000
C           43.29204100000000        1.85361100000000       -2.79696200000000
C           44.59929700000000        1.53840800000000       -2.21610000000000
N           44.43416500000000        0.99778200000000       -0.90820800000000
C           45.77900600000000        1.72502000000000       -2.83706400000000
C           45.78589500000000        2.12239700000000       -4.22626400000000
C           45.78070800000000        2.40842900000000       -5.39940200000000
C           45.76219699999999        2.71131300000000       -6.80331400000000
C           46.70673200000000        2.13520500000000       -7.65778900000000
C           46.65869100000000        2.42550300000000       -9.02410100000000
N           45.69628700000000        3.25436300000000       -9.51115000000000
C           44.76035399999999        3.81471100000000       -8.69813600000000
C           44.77734000000000        3.55733000000000       -7.32546100000000
C           47.09087100000000        1.51884700000000       -2.17796300000000
C           48.36245899999999        2.00363700000000       -2.72241200000000
C           49.31369700000000        1.67944100000000       -1.86991100000000
N           47.25702900000000        0.91885600000000       -1.04482800000000
C           48.65666599999999        0.97643800000000       -0.77797700000000
C           49.26209099999999        0.47274200000000        0.31146600000000
C           48.53550900000000       -0.29607800000000        1.34834400000000
C           49.12575800000000       -0.93438700000000        2.35555500000000
C           48.10007200000000       -1.66793600000000        3.07245800000000
C           46.94739700000000       -1.42799100000000        2.45924600000000
N           47.13115800000000       -0.54808000000000        1.34720500000000
C           45.64865400000000       -2.02182300000000        2.86532100000000
C           45.66946200000000       -3.21971600000000        3.67339300000000
C           45.70313199999999       -4.25750300000000        4.28620500000000
C           45.76704800000000       -5.53418900000000        4.94099400000000
C           44.59743900000000       -6.16786900000000        5.36791500000000
C           44.66370300000000       -7.49150300000000        5.80536400000000
N           45.85613800000000       -8.14333900000000        5.83144500000000
C           47.01010600000000       -7.53586900000000        5.45899500000000
C           46.98751899999999       -6.21810300000000        5.00936400000000
C           44.46837900000000       -1.53240300000000        2.45001300000000
C           43.15391700000000       -2.01693500000000        2.86096200000000
C           42.27295200000000       -1.29518200000000        2.19736900000000
C           43.01330100000000       -0.36179800000000        1.34255500000000
N           44.29806499999999       -0.49461000000000        1.48524000000000
H           41.31070900000000        1.74711800000000       -2.04993900000000
H           43.10489199999999        2.28723700000000       -3.76192000000000
H           47.46873300000000        1.46862000000000       -7.27613000000000
H           47.39086600000000        1.99773000000000       -9.69286700000000
H           44.00492500000000        4.46224300000000       -9.11836200000000
H           44.02436700000000        3.99835600000000       -6.68626700000000
H           48.51164300000000        2.54296700000000       -3.64637300000000
H           50.36259100000000        1.90054300000000       -1.99209700000000
H           50.18267600000000       -0.95510600000000        2.58611000000000
H           48.25666199999999       -2.30825200000000        3.93762200000000
H           43.63793700000000       -5.66139900000000        5.30137500000000
H           43.76089900000000       -8.01170500000000        6.09255200000000
H           47.93907500000000       -8.08429400000000        5.47742700000000
H           47.90161400000000       -5.75406700000000        4.66344500000000
H           42.91931099999999       -2.80422400000000        3.56634900000000
H           41.19751500000000       -1.40163700000000        2.27539900000000
189
 energy: -344.872856799574 gnorm: 0.539692970131 xtb: 6.5.1 (b24c23e)
Ni          26.73087821375362       -0.21436969533171       -0.14944227925209
C           23.34351366187298       -0.08573330600141       -0.11396386742107
C           24.01541207855069        0.71437740964230        0.74554887038997
C           23.36013829555407        1.59527266819397        1.70072219168540
C           24.31340514724198        2.24846958368425        2.36271552672300
C           25.60636804550775        1.80275570694147        1.84165422189797
N           25.41740829846688        0.83907195126576        0.82962767846803
C           26.81733607841483        2.28512732659276        2.25413212920407
C           26.84797708084534        3.29223736796910        3.27742669703530
C           26.88156727511701        4.14311631204733        4.14368432010267
C           26.92582783904371        5.14687681464822        5.16352090488875
C           28.12921164484696        5.79593528019381        5.46767071686588
C           28.14058184295839        6.76709014968159        6.46450052134644
N           27.01250806772699        7.08597976914361        7.13518900636216
C           25.84276880383492        6.47114109354484        6.85650746340775
C           25.76711976719449        5.49203229257521        5.87038450429032
C           28.09220808469601        1.83638055899512        1.69589074639572
C           29.37771945243025        2.45182917665980        2.01433345087619
C           30.32526095004181        1.78039518894445        1.35605245886340
N           28.24526841233182        0.81957368632927        0.86676169454817
C           29.65110388499397        0.72920331918183        0.61666217955312
C           30.25523681312852       -0.21745715408182       -0.14151630176402
C           29.48044814334298       -1.23723003284237       -0.85675718306663
C           30.03389969256686       -2.34998062534579       -1.41006207009509
C           29.00452272455446       -3.05823867668291       -2.09267833620669
C           27.84948015397387       -2.35761051868008       -1.93277932176210
N           28.08337118910472       -1.20002407360293       -1.14435785849930
C           26.57482038943220       -2.74045425673622       -2.55390827913666
C           26.55965846377149       -3.74655553691607       -3.58408562868547
C           26.55032047273116       -4.59403448076927       -4.45569881893611
C           26.54307988527159       -5.59448539786175       -5.48130360146719
C           27.73375463410620       -6.22283343235954       -5.86664080711315
C           27.69553993898024       -7.19027784704789       -6.86663095263524
N           26.53151524539196       -7.52550797209400       -7.46306626760129
C           25.37308633717076       -6.93133820050811       -7.10534379891314
C           25.34647248110994       -5.95665277707754       -6.11199267012501
C           25.39660360021166       -2.17589361456543       -2.18265576834800
C           24.08624105095683       -2.49500298699565       -2.72722855037039
C           23.20965785723379       -1.76022304859983       -2.03723046951034
C           23.96127824442666       -0.97782373905230       -1.06500765450625
N           25.25544539893949       -1.21856285242301       -1.14748003059363
H           22.25977756058946       -0.05438648382014       -0.08698765057338
H           22.29648645442454        1.71441397925014        1.85848422289359
H           24.12984990912401        2.97947022215090        3.13861428821660
H           29.04111937208367        5.54654724493001        4.93416093990852
H           29.07081148721170        7.27889241569229        6.70965163936590
H           24.94774816295081        6.74782529314545        7.41307372459249
H           24.82238123980828        5.00360511011220        5.65353213010897
H           29.55747498006433        3.29701208494388        2.65943982701534
H           31.38394843877865        1.99671443414601        1.39183393372590
H           31.07433900410219       -2.62447976148003       -1.35492026963907
H           29.11457096195125       -3.97282033773613       -2.65512925764983
H           28.67420193785957       -5.96037928829353       -5.39314494318506
H           28.61564078325220       -7.68568099957821       -7.17465187027581
H           24.44829765398068       -7.22108326431953       -7.60300219553375
H           24.41034870036489       -5.48486339183911       -5.83155397058320
H           23.83838072394719       -3.18860577904359       -3.52066901292047
H           22.14160572973319       -1.76048412395115       -2.18392404277766
Ni          64.83315514678236       -0.18982781948890       -0.13550962030116
C           68.22053005764451       -0.28630284916348       -0.22770076564165
C           67.54862673705691       -1.43465813457679       -0.47309128388508
C           68.20390398286760       -2.70658798254726       -0.73870485471354
C           67.25065241056296       -3.61001904821268       -0.95941240522040
C           65.95767003077914       -2.93406514828303       -0.84442247939164
N           66.14663559247462       -1.57082685205590       -0.53695261684383
C           64.74681300170163       -3.53573281022965       -1.04666868066934
C           64.71608513911163       -4.93084457544086       -1.38556500622577
C           64.68247308012344       -6.11104895971264       -1.67107133426102
C           64.63821659634664       -7.50151887734471       -2.00892133247714
C           63.43483240866470       -8.09573934144586       -2.40978700082295
C           63.42346239278091       -9.44974209275419       -2.73146900490496
N           64.55153648049766      -10.18901782083488       -2.66082669724667
C           65.72127607636411       -9.63422139065257       -2.27625238347334
C           65.79692537923913       -8.28532467556446       -1.94224766712878
C           63.47190355620715       -2.82633272556259       -0.94814157470839
C           62.18623300365257       -3.41539423012038       -1.31275391428959
C           61.23882060799269       -2.50562417143803       -1.07444915260055
N           63.31967142618956       -1.59333199317678       -0.50116630176619
C           61.91407744394972       -1.33138962942359       -0.55185107979236
C           61.31650025660567       -0.19441388111041       -0.12828887621948
C           62.08521655888406        0.94232404669404        0.37940260652175
C           61.53039515338977        1.98828611040822        1.05002277928984
C           62.55950014281691        2.93780399251437        1.30744216588159
C           63.71473009051217        2.44102581251054        0.78831028575469
N           63.48150136315679        1.17053600918875        0.19954658852592
C           64.98926389326775        3.17046827645011        0.79796471322038
C           65.00439666904650        4.57100064042933        1.13249738642184
C           65.01372575277350        5.75404839223048        1.41231415186924
C           65.02096586703610        7.14777501267566        1.74436504678064
C           63.83029225965333        7.80103801904217        2.08578022612982
C           63.86850603205731        9.15584434317269        2.40265585033260
N           65.03252869700134        9.83979371901870        2.38415433815558
C           66.19095828678863        9.22777234257610        2.05789484471670
C           66.21756984840563        7.87494406663600        1.73139632567420
C           66.16745933002878        2.56199808128845        0.50402549107609
C           67.47780596508430        3.19315178053651        0.49830983437805
C           68.35439162730229        2.22379835357443        0.22196366006125
C           67.60277837754325        0.98780975747575        0.04963313039986
N           66.30859675739481        1.18218991122320        0.21390601067642
H           69.30426805862288       -0.32554921978071       -0.24075575199331
H           69.26755845103848       -2.90313625092346       -0.75995821307647
H           67.43419878326596       -4.65114082195137       -1.18842483092794
H           62.52292490422992       -7.50986695488259       -2.46965234625316
H           62.49323218086710       -9.92286386422775       -3.04483342090921
H           66.61629617647095      -10.25389168771426       -2.22797516888786
H           66.74166348939220       -7.84848554363412       -1.63441735218080
H           62.00653463224720       -4.40293163131201       -1.70691837367086
H           60.18024825396818       -2.64777317545032       -1.24188088401195
H           60.48986040400279        2.08192947425716        1.31391162094308
H           62.44944363524874        3.88996660956234        1.80356236055466
H           62.88984324813249        7.25995886128087        2.10362393511867
H           62.94840260150162        9.67450379177985        2.66967036743279
H           67.11574661640960        9.80359475138868        2.05106754740457
H           67.15369382477950        7.39207873787503        1.47048656937188
H           67.72566530860108        4.23013047903307        0.68622241437093
H           69.42244260391084        2.34982788182512        0.14688292005392
C           32.41438151190020       -0.19299696885314       -0.12642947143311
C           33.77049232262421       -0.21315500507450       -0.14374054787886
C           35.04339332449673       -0.23386195612347       -0.14462298762680
C           36.33020659366969       -0.24515531754850       -0.14634059813793
C           37.61197826446471       -0.23765962087267       -0.15238643293939
C           38.82755720780521       -0.22500086102651       -0.16274911935968
C           40.11621641569229       -0.19768565725320       -0.14761125375641
C           41.32047182910633       -0.19088114883664       -0.12048674138190
C           50.23046859092353       -0.21315291454735       -0.12936546819277
C           51.55810058445063       -0.21356890068709       -0.14428615015905
C           52.79796873412118       -0.23769136487620       -0.14934291640922
C           54.08623987248286       -0.24758783251767       -0.14744028609409
C           55.36367814941337       -0.23585117526874       -0.15047661043423
C           56.58573219025450       -0.21664444289244       -0.15799718306060
C           57.91448730849088       -0.19257305851431       -0.14309430770495
C           59.13651626694692       -0.19037103461801       -0.12463972778984
Ni          45.83520047258534        0.33288799902339        0.30097520230022
C           42.40479516681311        0.45723195937035        0.32220123228087
C           43.04602377863282        1.03481383435287       -0.73230510766891
C           42.36588705211027        1.57955074531744       -1.89605162026744
C           43.30298787001232        1.85626230701810       -2.79915610296741
C           44.59719458176306        1.53614672746983       -2.21314885516589
N           44.43082183366584        1.01385658020328       -0.91727061932445
C           45.79343408715172        1.72494344753699       -2.84345265454158
C           45.78839368310183        2.12205381443179       -4.22090888031880
C           45.78106423479989        2.40876174741757       -5.40089308490661
C           45.76144408112053        2.70984596945987       -6.79925558771683
C           46.70501330510773        2.13759081653575       -7.65932417965188
C           46.64853815523850        2.43294908669247       -9.01809674761108
N           45.69630547634939        3.25392676543648       -9.50999485601285
C           44.77117856632738        3.80649309931869       -8.69616776790062
C           44.77899954845152        3.55545484637382       -7.32802922104345
C           47.08355999793569        1.52720770783098       -2.19737663724229
C           48.34694086586109        2.00598231350083       -2.73321079727895
C           49.31008853127291        1.67519531258423       -1.86295372366046
N           47.25750205830859        0.92757195850764       -1.03548590705557
C           48.63429159499660        0.99774613591824       -0.78829151838704
C           49.22453897698252        0.46332994958373        0.32891851692027
C           48.51025730265349       -0.29148466227916        1.35556819846499
C           49.12519737189761       -0.94621242945213        2.37151122936668
C           48.11711551292499       -1.66895390212054        3.07486470230271
C           46.93592040397585       -1.42531101604599        2.45042962185863
N           47.12811746648365       -0.54624700245369        1.35549829307660
C           45.66129029664457       -2.02351772873159        2.86248639274030
C           45.67466074242562       -3.21147958609559        3.67021036366579
C           45.70463841777620       -4.25750363627239        4.28817180349150
C           45.76651899395641       -5.53136653663689        4.93575880193861
C           44.59891172940377       -6.16974100367325        5.36633135058290
C           44.67578275227947       -7.48810677005741        5.80266459197533
N           45.85521218230048       -8.14306000476875        5.83213045862074
C           46.99720704493170       -7.53198689197501        5.45979010079584
C           46.98509539817805       -6.21887768095826        5.00866151879278
C           44.46736886956484       -1.53313038984792        2.44813627181938
C           43.16152694054409       -2.01652958297244        2.86087113283541
C           42.26760526752350       -1.28598743585129        2.19057962613538
C           43.01579430703687       -0.35886885225909        1.34537510821385
N           44.31072101974701       -0.49808623102324        1.49504735107017
H           41.30963662275357        1.74374425319527       -2.04262124292421
H           43.11136203586125        2.28772363388793       -3.76543447304993
H           47.46815738253632        1.46940683010267       -7.27631489117533
H           47.38498227490470        2.00184501234777       -9.69348113461682
H           44.01040412679374        4.45858778876149       -9.12072966803331
H           44.02541026095877        3.99822798156934       -6.68660627999296
H           48.50564336477232        2.54404628561242       -3.65058726242836
H           50.36153552198169        1.89668666199395       -1.98451239936252
H           50.18249544192119       -0.95531724703830        2.58822666805087
H           48.25992319533356       -2.30691290377519        3.93667587315228
H           43.63970466890568       -5.66240291894807        5.30216732470811
H           43.76771894559757       -8.01300043843286        6.09291142020929
H           47.93279564957283       -8.08570657810961        5.47971010466072
H           47.90116103591678       -5.75362530810878        4.66402803683261
H           42.92617120376070       -2.80315668972718        3.56588621787699
H           41.19639976826482       -1.39645876482997        2.27127745171841
189
 energy: -345.042160631304 gnorm: 0.227138817062 xtb: 6.5.1 (b24c23e)
Ni          26.73789990964948       -0.20718304740494       -0.14934285685904
C           23.34738503563037       -0.09758543002949       -0.12696804047541
C           24.02417305225051        0.71367406138377        0.74614411646030