      -----------------------------------------------------------      
     |                   =====================                   |     
     |                           x T B                           |     
     |                   =====================                   |     
     |                         S. Grimme                         |     
     |          Mulliken Center for Theoretical Chemistry        |     
     |                    University of Bonn                     |     
      -----------------------------------------------------------      

   * xtb version 6.5.1 (b24c23e) compiled by 'conda@728c89f4b128' on 2022-07-12

   xtb is free software: you can redistribute it and/or modify it under
   the terms of the GNU Lesser General Public License as published by
   the Free Software Foundation, either version 3 of the License, or
   (at your option) any later version.
   
   xtb is distributed in the hope that it will be useful,
   but WITHOUT ANY WARRANTY; without even the implied warranty of
   MERCHANTABILITY or FITNESS FOR A PARTICULAR PURPOSE.  See the
   GNU Lesser General Public License for more details.
   
   Cite this work as:
   * C. Bannwarth, E. Caldeweyher, S. Ehlert, A. Hansen, P. Pracht,
     J. Seibert, S. Spicher, S. Grimme, WIREs Comput. Mol. Sci., 2020, 11,
     e01493. DOI: 10.1002/wcms.1493
   
   for GFN2-xTB:
   * C. Bannwarth, S. Ehlert and S. Grimme., J. Chem. Theory Comput., 2019,
     15, 1652-1671. DOI: 10.1021/acs.jctc.8b01176
   for GFN1-xTB:
   * S. Grimme, C. Bannwarth, P. Shushkov, J. Chem. Theory Comput., 2017,
     13, 1989-2009. DOI: 10.1021/acs.jctc.7b00118
   for GFN0-xTB:
   * P. Pracht, E. Caldeweyher, S. Ehlert, S. Grimme, ChemRxiv, 2019, preprint.
     DOI: 10.26434/chemrxiv.8326202.v1
   for GFN-FF:
   * S. Spicher and S. Grimme, Angew. Chem. Int. Ed., 2020, 59, 15665-15673.
     DOI: 10.1002/anie.202004239
   
   for ALPB and GBSA implicit solvation:
   * S. Ehlert, M. Stahn, S. Spicher, S. Grimme, J. Chem. Theory Comput.,
     2021, 17, 4250-4261. DOI: 10.1021/acs.jctc.1c00471
   
   for DFT-D4:
   * E. Caldeweyher, C. Bannwarth and S. Grimme, J. Chem. Phys., 2017,
     147, 034112. DOI: 10.1063/1.4993215
   * E. Caldeweyher, S. Ehlert, A. Hansen, H. Neugebauer, S. Spicher,
     C. Bannwarth and S. Grimme, J. Chem. Phys., 2019, 150, 154122.
     DOI: 10.1063/1.5090222
   * E. Caldeweyher, J.-M. Mewes, S. Ehlert and S. Grimme, Phys. Chem. Chem. Phys.
     2020, 22, 8499-8512. DOI: 10.1039/D0CP00502A
   
   for sTDA-xTB:
   * S. Grimme and C. Bannwarth, J. Chem. Phys., 2016, 145, 054103.
     DOI: 10.1063/1.4959605
   
   in the mass-spec context:
   * V. Asgeirsson, C. Bauer and S. Grimme, Chem. Sci., 2017, 8, 4879.
     DOI: 10.1039/c7sc00601b
   * J. Koopman and S. Grimme, ACS Omega 2019, 4, 12, 15120-15133.
     DOI: 10.1021/acsomega.9b02011
   
   for metadynamics refer to:
   * S. Grimme, J. Chem. Theory Comput., 2019, 155, 2847-2862
     DOI: 10.1021/acs.jctc.9b00143
   
   for SPH calculations refer to:
   * S. Spicher and S. Grimme, J. Chem. Theory Comput., 2021, 17, 1701-1714
     DOI: 10.1021/acs.jctc.0c01306
   
   with help from (in alphabetical order)
   P. Atkinson, C. Bannwarth, F. Bohle, G. Brandenburg, E. Caldeweyher
   M. Checinski, S. Dohm, S. Ehlert, S. Ehrlich, I. Gerasimov, C. Hölzer
   A. Katbashev, J. Koopman, C. Lavigne, S. Lehtola, F. März, M. Müller,
   F. Musil, H. Neugebauer, J. Pisarek, C. Plett, P. Pracht, F. Pultar,
   J. Seibert, P. Shushkov, S. Spicher, M. Stahn, M. Steiner, T. Strunk,
   J. Stückrath, T. Rose, and J. Unsleber
   
 * started run on 2022/07/28 at 04:18:25.237     

           -------------------------------------------------
          |                Calculation Setup                |
           -------------------------------------------------

          program call               : xtb DHP_C6_9.xyz --gfn 1 --opt -T 48
          hostname                   : cx3-14-14.cx3.hpc.ic.ac.uk
          coordinate file            : DHP_C6_9.xyz
          omp threads                :                     1

   ID    Z sym.   atoms
    1    6 C      1-5, 7-10, 12-16, 18-23, 25-28, 30-35, 60-64, 66-69, 71-75,
                  77-82, 84-87, 89-94, 119-171, 173-176, 178-182, 184-189,
                  191-194, 196-201, 225-229, 231-234, 236-240, 242-247,
                  249-252, 254-259, 283-287, 289-292, 294-298, 300-305,
                  307-310, 312-317, 341-345, 347-350, 352-356, 358-363,
                  365-368, 370-375, 399-403, 405-408, 410-414, 416-421,
                  423-426, 428-433, 457-461, 463-466, 468-472, 474-479,
                  481-484, 486-491, 515-519, 521-524, 526-530, 532-537,
                  539-542, 544-549
    2    7 N      6, 11, 17, 24, 29, 36, 65, 70, 76, 83, 88, 95, 172, 177,
                  183, 190, 195, 202, 230, 235, 241, 248, 253, 260, 288, 293,
                  299, 306, 311, 318, 346, 351, 357, 364, 369, 376, 404, 409,
                  415, 422, 427, 434, 462, 467, 473, 480, 485, 492, 520, 525,
                  531, 538, 543, 550
    3    1 H      37-59, 96-118, 203-224, 261-282, 319-340, 377-398, 435-456,
                  493-514, 551-572

molecular fragmentation (1/2 indicates fragments):
111111111111111111111111111111111111111111111111111111111112222222222222
222222222222222222222222222222222222222222222222222222222222222222222222
222222222222222222222222222222222222222222222222222222222222222222222222
222222222222222222222222222222222222222222222222222222222222222222222222
222222222222222222222222222222222222222222222222222222222222222222222222
222222222222222222222222222222222222222222222222222222222222222222222222
222222222222222222222222222222222222222222222222222222222222222222222222
22222222222222222222222222222222222222222222222222222222222222222222
# atoms in fragment 1/2:    59   513
 fragment masses (1/2) :      467.54     4309.82
CMA distance (Bohr)    : 140.015
constraining FC (au)   :  0.0500
########################################################################
[WARNING] Please study the warnings concerning your input carefully
-1- prog_main_parseArguments: Unknown option '-T' provided
########################################################################

           -------------------------------------------------
          |                 G F N 1 - x T B                 |
           -------------------------------------------------

        Reference                      10.1021/acs.jctc.7b00118
      * Hamiltonian:
        H0-scaling (s, p, d)           1.850000    2.250000    2.000000
        zeta-weighting                 0.000000
      * Dispersion:
        s8                             2.400000
        a1                             0.630000
        a2                             5.000000
        s9                             0.000000
      * Repulsion:
        kExp                           1.500000
        rExp                           1.000000
      * Coulomb:
        alpha                          2.000000
        third order                    atomic
        anisotropic                    false
      * Halogen bond correction:
        rad-scale                      1.300000
        damping                        0.440000


          ...................................................
          :                      SETUP                      :
          :.................................................:
          :  # basis functions                1888          :
          :  # atomic orbitals                1888          :
          :  # shells                         1144          :
          :  # electrons                      1742          :
          :  # halogen bonds                     0          :
          :  max. iterations                   250          :
          :  Hamiltonian                  GFN1-xTB          :
          :  restarted?                      false          :
          :  GBSA solvation                  false          :
          :  PC potential                    false          :
          :  electronic temp.          300.0000000     K    :
          :  accuracy                    1.0000000          :
          :  -> integral cutoff          0.2500000E+02      :
          :  -> integral neglect         0.1000000E-07      :
          :  -> SCF convergence          0.1000000E-05 Eh   :
          :  -> wf. convergence          0.2000000E-04 e    :
          :  Broyden damping             0.4000000          :
          ...................................................

 iter      E             dE          RMSdq      gap      omega  full diag
   1   -963.0051856 -0.963005E+03  0.103E+01    0.08       0.0  T
   2   -911.3916960  0.516135E+02  0.693E+00    0.05       1.0  T
   3   8020.5003577  0.893189E+04  0.194E+01    0.01       1.0  T
   4  13645.9246411  0.562542E+04  0.234E+01    0.01       1.0  T
   5   1128.4537248 -0.125175E+05  0.135E+01    0.01       1.0  T
   6   -863.1946451 -0.199165E+04  0.530E+00    0.03       1.0  T
   7   -760.4696186  0.102725E+03  0.522E+00    0.00       1.0  T
   8   -217.0167572  0.543453E+03  0.716E+00    0.02       1.0  T
   9   -610.6649695 -0.393648E+03  0.535E+00    0.02       1.0  T
  10   -655.4048577 -0.447399E+02  0.497E+00    0.01       1.0  T
  11   -602.1413780  0.532635E+02  0.518E+00    0.00       1.0  T
  12   -543.3347025  0.588067E+02  0.544E+00    0.00       1.0  T
  13   -554.3751469 -0.110404E+02  0.538E+00    0.04       1.0  T
  14   -553.0823538  0.129279E+01  0.541E+00    0.04       1.0  T
  15   -544.4111583  0.867120E+01  0.548E+00    0.02       1.0  T
  16   -561.6200742 -0.172089E+02  0.541E+00    0.02       1.0  T
  17   -559.2815545  0.233852E+01  0.542E+00    0.02       1.0  T
  18   -555.6510251  0.363053E+01  0.544E+00    0.03       1.0  T
  19   -561.7669404 -0.611592E+01  0.541E+00    0.02       1.0  T
  20   -548.6227870  0.131442E+02  0.551E+00    0.02       1.0  T
  21   -486.4621998  0.621606E+02  0.567E+00    0.04       1.0  T
  22   -501.0842047 -0.146220E+02  0.566E+00    0.04       1.0  T
  23   -534.5061901 -0.334220E+02  0.549E+00    0.02       1.0  T
  24   -559.1277951 -0.246216E+02  0.537E+00    0.02       1.0  T
  25   -546.1306167  0.129972E+02  0.541E+00    0.01       1.0  T
  26   -544.6060946  0.152452E+01  0.543E+00    0.01       1.0  T
  27   -534.3492888  0.102568E+02  0.549E+00    0.00       1.0  T
  28   -554.9083356 -0.205590E+02  0.538E+00    0.01       1.0  T
  29   -556.9810162 -0.207268E+01  0.539E+00    0.01       1.0  T
  30   -577.8575909 -0.208766E+02  0.532E+00    0.02       1.0  T
  31   -579.5307957 -0.167320E+01  0.529E+00    0.00       1.0  T
  32   -590.0043325 -0.104735E+02  0.536E+00    0.00       1.0  T
  33   -619.5245589 -0.295202E+02  0.538E+00    0.01       1.0  T
  34   -668.2639692 -0.487394E+02  0.519E+00    0.01       1.0  T
  35   -726.1937849 -0.579298E+02  0.494E+00    0.00       1.0  T
  36   -777.9783199 -0.517845E+02  0.481E+00    0.04       1.0  T
  37   -775.5153425  0.246298E+01  0.473E+00    0.01       1.0  T
  38   -761.9714021  0.135439E+02  0.492E+00    0.06       1.0  T
  39   -800.9360447 -0.389646E+02  0.484E+00    0.01       1.0  T
  40   -813.0542828 -0.121182E+02  0.473E+00    0.03       1.0  T
  41   -806.7264662  0.632782E+01  0.483E+00    0.00       1.0  T
  42   -826.7622333 -0.200358E+02  0.473E+00    0.03       1.0  T
  43   -851.5221306 -0.247599E+02  0.467E+00    0.01       1.0  T
  44   -843.8775425  0.764459E+01  0.475E+00    0.00       1.0  T
  45   -845.4144671 -0.153692E+01  0.475E+00    0.01       1.0  T
  46   -844.6235661  0.790901E+00  0.486E+00    0.01       1.0  T
  47   -844.5410545  0.825116E-01  0.487E+00    0.01       1.0  T
  48   -845.8634977 -0.132244E+01  0.479E+00    0.04       1.0  T
  49   -848.8700745 -0.300658E+01  0.472E+00    0.01       1.0  T
  50   -834.4520918  0.144180E+02  0.442E+00    0.03       1.0  T
  51   -859.7953064 -0.253432E+02  0.417E+00    0.01       1.0  T
  52   -891.7981037 -0.320028E+02  0.337E+00    0.03       1.0  T
  53   -905.5126647 -0.137146E+02  0.326E+00    0.04       1.0  T
  54   -911.3064499 -0.579379E+01  0.293E+00    0.02       1.0  T
  55   -896.6876928  0.146188E+02  0.322E+00    0.02       1.0  T
  56   -898.8618534 -0.217416E+01  0.313E+00    0.04       1.0  T
  57   -896.5568325  0.230502E+01  0.320E+00    0.02       1.0  T
  58   -901.5845764 -0.502774E+01  0.298E+00    0.06       1.0  T
  59   -906.1126429 -0.452807E+01  0.295E+00    0.02       1.0  T
  60   -918.3130140 -0.122004E+02  0.280E+00    0.01       1.0  T
  61   -932.8904895 -0.145775E+02  0.247E+00    0.05       1.0  T
  62   -938.3557740 -0.546528E+01  0.222E+00    0.03       1.0  T
  63   -934.0939023  0.426187E+01  0.239E+00    0.02       1.0  T
  64   -937.4889357 -0.339503E+01  0.213E+00    0.01       1.0  T
  65   -938.1021828 -0.613247E+00  0.215E+00    0.00       1.0  T
  66   -940.5834000 -0.248122E+01  0.204E+00    0.02       1.0  T
  67   -947.9917066 -0.740831E+01  0.177E+00    0.09       1.0  T
  68   -954.8787489 -0.688704E+01  0.161E+00    0.11       1.0  T
  69   -956.5430874 -0.166434E+01  0.153E+00    0.01       1.0  T
  70   -958.0660748 -0.152299E+01  0.142E+00    0.01       1.0  T
  71   -956.8667728  0.119930E+01  0.141E+00    0.03       1.0  T
  72   -959.7648175 -0.289804E+01  0.126E+00    0.05       1.0  T
  73   -958.9198892  0.844928E+00  0.124E+00    0.00       1.0  T
  74   -960.1110927 -0.119120E+01  0.112E+00    0.02       1.0  T
  75   -960.9306310 -0.819538E+00  0.102E+00    0.00       1.0  T
  76   -962.7523499 -0.182172E+01  0.914E-01    0.02       1.0  T
  77   -963.1315638 -0.379214E+00  0.898E-01    0.02       1.0  T
  78   -962.9356632  0.195901E+00  0.907E-01    0.01       1.0  T
  79   -962.3554470  0.580216E+00  0.911E-01    0.02       1.0  T
  80   -963.8715852 -0.151614E+01  0.789E-01    0.04       1.0  T
  81   -963.5360338  0.335551E+00  0.808E-01    0.04       1.0  T
  82   -963.6228545 -0.868207E-01  0.800E-01    0.04       1.0  T
  83   -963.4818644  0.140990E+00  0.824E-01    0.02       1.0  T
  84   -964.1010235 -0.619159E+00  0.692E-01    0.03       1.0  T
  85   -964.0457552  0.552683E-01  0.709E-01    0.03       1.0  T
  86   -964.0839099 -0.381547E-01  0.709E-01    0.06       1.0  T
  87   -964.2195081 -0.135598E+00  0.674E-01    0.05       1.0  T
  88   -964.3065469 -0.870388E-01  0.655E-01    0.06       1.0  T
  89   -964.0680206  0.238526E+00  0.667E-01    0.02       1.0  T
  90   -964.1964706 -0.128450E+00  0.634E-01    0.03       1.0  T
  91   -964.0123965  0.184074E+00  0.632E-01    0.05       1.0  T
  92   -964.3296760 -0.317280E+00  0.556E-01    0.02       1.0  T
  93   -964.5265884 -0.196912E+00  0.497E-01    0.02       1.0  T
  94   -964.5542575 -0.276692E-01  0.474E-01    0.02       1.0  T
  95   -964.5577350 -0.347751E-02  0.465E-01    0.03       1.0  T
  96   -964.6350949 -0.773599E-01  0.435E-01    0.01       1.0  T
  97   -964.7284124 -0.933175E-01  0.399E-01    0.00       1.0  T
  98   -964.8037293 -0.753169E-01  0.381E-01    0.04       1.0  T
  99   -964.8236212 -0.198919E-01  0.371E-01    0.05       1.0  T
 100   -964.8717276 -0.481064E-01  0.346E-01    0.07       1.0  T
 101   -964.8849679 -0.132403E-01  0.338E-01    0.07       1.0  T
 102   -964.9059384 -0.209705E-01  0.321E-01    0.08       1.0  T
 103   -964.9344451 -0.285066E-01  0.299E-01    0.10       1.0  T
 104   -964.9417216 -0.727650E-02  0.285E-01    0.10       1.0  T
 105   -964.9401570  0.156458E-02  0.272E-01    0.08       1.0  T
 106   -964.9556522 -0.154952E-01  0.260E-01    0.09       1.0  T
 107   -964.9683969 -0.127447E-01  0.243E-01    0.08       1.0  T
 108   -964.9909604 -0.225635E-01  0.217E-01    0.08       1.0  T
 109   -965.0131156 -0.221552E-01  0.180E-01    0.09       1.0  T
 110   -965.0142494 -0.113385E-02  0.165E-01    0.07       1.0  T
 111   -965.0307123 -0.164629E-01  0.156E-01    0.10       1.0  T
 112   -965.0377159 -0.700357E-02  0.147E-01    0.12       1.0  T
 113   -965.0421343 -0.441835E-02  0.142E-01    0.13       1.0  T
 114   -965.0487041 -0.656980E-02  0.131E-01    0.14       1.0  T
 115   -965.0588794 -0.101754E-01  0.113E-01    0.16       1.0  T
 116   -965.0661760 -0.729658E-02  0.941E-02    0.14       1.0  T
 117   -965.0664835 -0.307428E-03  0.917E-02    0.15       1.0  T
 118   -965.0706584 -0.417493E-02  0.758E-02    0.16       1.0  T
 119   -965.0711963 -0.537904E-03  0.720E-02    0.16       1.0  T
 120   -965.0741382 -0.294192E-02  0.608E-02    0.15       1.0  T
 121   -965.0744137 -0.275514E-03  0.588E-02    0.15       1.0  T
 122   -965.0754835 -0.106982E-02  0.536E-02    0.15       1.0  T
 123   -965.0769741 -0.149057E-02  0.462E-02    0.15       1.0  T
 124   -965.0771856 -0.211471E-03  0.437E-02    0.14       1.0  T
 125   -965.0783242 -0.113857E-02  0.391E-02    0.14       1.0  T
 126   -965.0788299 -0.505706E-03  0.365E-02    0.14       1.0  T
 127   -965.0792870 -0.457111E-03  0.346E-02    0.14       1.0  T
 128   -965.0798076 -0.520589E-03  0.323E-02    0.13       1.0  T
 129   -965.0804808 -0.673234E-03  0.296E-02    0.13       1.0  T
 130   -965.0809682 -0.487399E-03  0.276E-02    0.12       1.0  T
 131   -965.0812168 -0.248585E-03  0.264E-02    0.12       1.0  T
 132   -965.0813740 -0.157195E-03  0.253E-02    0.12       1.0  T
 133   -965.0816733 -0.299306E-03  0.227E-02    0.12       1.0  T
 134   -965.0818089 -0.135603E-03  0.216E-02    0.11       1.0  T
 135   -965.0818687 -0.597954E-04  0.209E-02    0.11       1.0  T
 136   -965.0819942 -0.125528E-03  0.194E-02    0.11       1.0  T
 137   -965.0821792 -0.185027E-03  0.172E-02    0.11       1.0  T
 138   -965.0822966 -0.117372E-03  0.155E-02    0.11       1.0  T
 139   -965.0823428 -0.461992E-04  0.146E-02    0.11       1.0  T
 140   -965.0823968 -0.540114E-04  0.134E-02    0.11       1.0  T
 141   -965.0824306 -0.338070E-04  0.126E-02    0.11       1.0  T
 142   -965.0824853 -0.547220E-04  0.111E-02    0.11       1.0  T
 143   -965.0825173 -0.319746E-04  0.104E-02    0.11       1.0  T
 144   -965.0825603 -0.429506E-04  0.946E-03    0.11       1.0  T
 145   -965.0825984 -0.380871E-04  0.860E-03    0.11       1.0  T
 146   -965.0826408 -0.424307E-04  0.759E-03    0.11       1.0  T
 147   -965.0826609 -0.201003E-04  0.701E-03    0.11       1.0  T
 148   -965.0826768 -0.159264E-04  0.649E-03    0.11       1.0  T
 149   -965.0826951 -0.182575E-04  0.572E-03    0.11       1.0  T
 150   -965.0827098 -0.147576E-04  0.512E-03    0.11       1.0  T
 151   -965.0827200 -0.101404E-04  0.462E-03    0.11       1.0  T
 152   -965.0827318 -0.118818E-04  0.412E-03    0.11       1.0  T
 153   -965.0827394 -0.750085E-05  0.377E-03    0.11       1.1  T
 154   -965.0827437 -0.430076E-05  0.359E-03    0.11       1.2  T
 155   -965.0827502 -0.657184E-05  0.322E-03    0.11       1.3  T
 156   -965.0827543 -0.411837E-05  0.290E-03    0.11       1.4  T
 157   -965.0827561 -0.172671E-05  0.274E-03    0.11       1.5  T
 158   -965.0827591 -0.307454E-05  0.243E-03    0.11       1.7  T
 159   -965.0827617 -0.253765E-05  0.219E-03    0.11       1.9  T
 160   -965.0827636 -0.192569E-05  0.202E-03    0.11       2.1  T
 161   -965.0827662 -0.263783E-05  0.177E-03    0.11       2.4  T
 162   -965.0827683 -0.202065E-05  0.153E-03    0.11       2.7  T
 163   -965.0827697 -0.140104E-05  0.131E-03    0.11       3.2  T
 164   -965.0827705 -0.876563E-06  0.115E-03    0.11       3.6  T
 165   -965.0827709 -0.404976E-06  0.107E-03    0.11       3.9  T
 166   -965.0827717 -0.781970E-06  0.881E-04    0.11       4.7  T
 167   -965.0827720 -0.261562E-06  0.773E-04    0.11       5.4  T
 168   -965.0827725 -0.518860E-06  0.625E-04    0.11       6.7  T
 169   -965.0827727 -0.171645E-06  0.565E-04    0.11       7.4  T
 170   -965.0827728 -0.153483E-06  0.511E-04    0.11       8.2  T
 171   -965.0827729 -0.113551E-06  0.450E-04    0.11       9.3  T
 172   -965.0827731 -0.154955E-06  0.374E-04    0.11      11.2  T
 173   -965.0827732 -0.511965E-07  0.335E-04    0.11      12.5  T
 174   -965.0827732 -0.677943E-07  0.292E-04    0.11      14.3  T
 175   -965.0827733 -0.950222E-07  0.241E-04    0.11      17.4  T
 176   -965.0827734 -0.544530E-07  0.203E-04    0.11      20.6  T
 177   -965.0827734 -0.238008E-07  0.184E-04    0.11      22.8  T
 178   -965.0827734 -0.176716E-07  0.163E-04    0.11      25.7  T

   *** convergence criteria satisfied after 178 iterations ***

         #    Occupation            Energy/Eh            Energy/eV
      -------------------------------------------------------------
         1        2.0000           -0.7942903             -21.6137
       ...           ...                  ...                  ...
       865        1.9979           -0.3695150             -10.0550
       866        1.9978           -0.3694987             -10.0546
       867        1.9954           -0.3687940             -10.0354
       868        1.9882           -0.3678814             -10.0106
       869        1.9880           -0.3678697             -10.0102
       870        1.9215           -0.3660527              -9.9608
       871        1.7544           -0.3648823              -9.9290 (HOMO)
       872        0.1817           -0.3608264              -9.8186 (LUMO)
       873        0.1810           -0.3608226              -9.8185
       874        0.0012           -0.3559934              -9.6871
       875        0.0001           -0.3531784              -9.6105
       876        0.0000           -0.3503919              -9.5347
       ...           ...                  ...                  ...
      1888                          1.5559316              42.3391
      -------------------------------------------------------------
                  HL-Gap            0.0040559 Eh            0.1104 eV
             Fermi-level           -0.3630146 Eh           -9.8781 eV

 SCC (total)                   0 d,  0 h, 10 min, 40.607 sec
 SCC setup                      ...        0 min,  0.142 sec (  0.022%)
 Dispersion                     ...        0 min,  0.070 sec (  0.011%)
 classical contributions        ...        0 min,  0.013 sec (  0.002%)
 integral evaluation            ...        0 min,  1.807 sec (  0.282%)
 iterations                     ...       10 min, 35.016 sec ( 99.127%)
 molecular gradient             ...        0 min,  2.965 sec (  0.463%)
 printout                       ...        0 min,  0.594 sec (  0.093%)

         :::::::::::::::::::::::::::::::::::::::::::::::::::::
         ::                     SUMMARY                     ::
         :::::::::::::::::::::::::::::::::::::::::::::::::::::
         :: total energy            -949.178266060483 Eh    ::
         :: gradient norm              0.934984924719 Eh/a0 ::
         :: HOMO-LUMO gap              0.110366906323 eV    ::
         ::.................................................::
         :: SCC energy              -965.082773413106 Eh    ::
         :: -> electrostatic           0.764723772472 Eh    ::
         :: repulsion energy          16.370296429175 Eh    ::
         :: dispersion energy         -0.465789076552 Eh    ::
         :: halogen bond corr.         0.000000000000 Eh    ::
         :: add. restraining           0.000000000000 Eh    ::
         :: total charge              -0.000000000024 e     ::
         :::::::::::::::::::::::::::::::::::::::::::::::::::::

      ----------------------------------------------------------- 
     |                       L-ANC optimizer                     |
      ----------------------------------------------------------- 
          low memory version by Sebastian Ehlert

          ...................................................
          :                      SETUP                      :
          :.................................................:
          :   energy convergence        0.5000000E-05 Eh    :
          :   grad. convergence         0.1000000E-02 Eh/a0 :
          :   optimization log               true           :
          :   writing optlog all                1     steps :
          :   Hessian reset                    20     steps :
          :   maximium step len.        1.0000000     a0    :
          :   LBFGS images                     20           :
          ...................................................
 * calculating model hessian...
Using Lindh-Hessian (1995)
 Shifting diagonal of input Hessian by    1.0020799543563044E-002
 Lowest  eigenvalues of input Hessian
    0.010000    0.010009    0.010017    0.010018    0.010019    0.010019
    0.010020    0.010020    0.010020    0.010021    0.000000    0.000000
    0.000000    0.000000    0.000000    0.000000    0.010021    0.010021
 Highest eigenvalues
    2.890625    2.890626    2.890626    2.890627    2.890627    2.890630


........................................................................
.............................. CYCLE    1 ..............................
........................................................................
   1   -964.9596950 -0.964960E+03  0.724E-02    0.13       0.0  T
   2   -964.3332599  0.626435E+00  0.478E-01    0.06       1.0  T
   3   -964.9422801 -0.609020E+00  0.111E-01    0.24       1.0  T
   4   -964.9628170 -0.205369E-01  0.504E-02    0.13       1.0  T
   5   -964.9646968 -0.187975E-02  0.345E-02    0.11       1.0  T
   6   -964.7987423  0.165955E+00  0.225E-01    0.00       1.0  T
   7   -964.9457720 -0.147030E+00  0.792E-02    0.05       1.0  T
   8   -964.9622242 -0.164522E-01  0.360E-02    0.08       1.0  T
   9   -964.9653734 -0.314920E-02  0.168E-02    0.09       1.0  T
  10   -964.9662040 -0.830604E-03  0.801E-03    0.10       1.0  T
  11   -964.9663950 -0.191003E-03  0.320E-03    0.11       1.3  T
  12   -964.9664177 -0.226682E-04  0.191E-03    0.11       2.2  T
  13   -964.9664220 -0.431023E-05  0.124E-03    0.11       3.4  T
  14   -964.9664220  0.406942E-08  0.109E-03    0.11       3.8  T
  15   -964.9664234 -0.142672E-05  0.820E-04    0.11       5.1  T
  16   -964.9664250 -0.157933E-05  0.432E-04    0.11       9.7  T
  17   -964.9664254 -0.421510E-06  0.211E-04    0.11      19.8  T
  18   -964.9664255 -0.110423E-06  0.984E-05    0.11      42.5  T
  19   -964.9664256 -0.246476E-07  0.474E-05    0.11      88.3  T
     SCC iter.                  ...        1 min, 10.614 sec
     gradient                   ...        0 min,  2.963 sec
 * total energy  :  -949.5633686 Eh     change       -0.3851025E+00 Eh
   gradient norm :     0.5947526 Eh/a0  converged?    E=F G=F D=F
   step length   :     0.5517223 a0

........................................................................
.............................. CYCLE    2 ..............................
........................................................................
   1   -965.0718330 -0.965072E+03  0.643E-02    0.16       0.0  T
   2   -964.1741026  0.897730E+00  0.571E-01    0.09       1.0  T
   3   -965.0578729 -0.883770E+00  0.108E-01    0.21       1.0  T
   4   -965.0773402 -0.194673E-01  0.312E-02    0.13       1.0  T
   5   -965.0709905  0.634973E-02  0.526E-02    0.08       1.0  T
   6   -965.0446023  0.263882E-01  0.103E-01    0.06       1.0  T
   7   -965.0756846 -0.310823E-01  0.328E-02    0.09       1.0  T
   8   -965.0752414  0.443201E-03  0.310E-02    0.09       1.0  T
   9   -965.0772938 -0.205243E-02  0.183E-02    0.10       1.0  T
  10   -965.0786376 -0.134378E-02  0.495E-03    0.11       1.0  T
  11   -965.0786831 -0.455046E-04  0.193E-03    0.12       2.2  T
  12   -965.0786812  0.187364E-05  0.176E-03    0.12       2.4  T
  13   -965.0786869 -0.568376E-05  0.106E-03    0.12       4.0  T
  14   -965.0786858  0.106762E-05  0.107E-03    0.12       3.9  T
  15   -965.0786882 -0.238016E-05  0.594E-04    0.12       7.0  T
  16   -965.0786891 -0.869996E-06  0.282E-04    0.12      14.8  T
  17   -965.0786893 -0.197230E-06  0.130E-04    0.12      32.1  T
  18   -965.0786893 -0.407242E-07  0.717E-05    0.12      58.3  T
     SCC iter.                  ...        1 min,  6.842 sec
     gradient                   ...        0 min,  2.911 sec
 * total energy  :  -949.7718403 Eh     change       -0.2084718E+00 Eh
   gradient norm :     0.4183832 Eh/a0  converged?    E=F G=F D=F
   step length   :     3.6739936 a0

........................................................................
.............................. CYCLE    3 ..............................
........................................................................
   1   -965.1935739 -0.965194E+03  0.527E-02    0.19       0.0  T
   2   -964.2394033  0.954171E+00  0.585E-01    0.08       1.0  T
   3   -965.1911004 -0.951697E+00  0.627E-02    0.20       1.0  T
   4   -965.1977197 -0.661933E-02  0.280E-02    0.15       1.0  T
   5   -965.1983034 -0.583752E-03  0.202E-02    0.12       1.0  T
   6   -965.1853228  0.129807E-01  0.664E-02    0.08       1.0  T
   7   -965.1973649 -0.120421E-01  0.259E-02    0.10       1.0  T
   8   -965.1970759  0.288961E-03  0.258E-02    0.10       1.0  T
   9   -965.1984614 -0.138554E-02  0.147E-02    0.11       1.0  T
  10   -965.1990773 -0.615825E-03  0.733E-03    0.12       1.0  T
  11   -965.1992389 -0.161689E-03  0.298E-03    0.12       1.4  T
  12   -965.1992572 -0.182312E-04  0.182E-03    0.12       2.3  T
  13   -965.1992647 -0.748254E-05  0.971E-04    0.13       4.3  T
  14   -965.1992653 -0.684779E-06  0.792E-04    0.13       5.3  T
  15   -965.1992666 -0.130550E-05  0.460E-04    0.13       9.1  T
  16   -965.1992672 -0.569225E-06  0.198E-04    0.13      21.1  T
  17   -965.1992673 -0.113578E-06  0.749E-05    0.13      55.8  T
     SCC iter.                  ...        1 min,  2.852 sec
     gradient                   ...        0 min,  2.943 sec
 * total energy  :  -949.8800875 Eh     change       -0.1082471E+00 Eh
   gradient norm :     0.3127016 Eh/a0  converged?    E=F G=F D=F
   step length   :     5.0859039 a0

........................................................................
.............................. CYCLE    4 ..............................
........................................................................
   1   -965.2918170 -0.965292E+03  0.474E-02    0.25       0.0  T
   2   -964.3054160  0.986401E+00  0.589E-01    0.06       1.0  T
   3   -965.2927965 -0.987380E+00  0.368E-02    0.24       1.0  T
   4   -965.2949146 -0.211813E-02  0.258E-02    0.20       1.0  T
   5   -965.2959506 -0.103597E-02  0.163E-02    0.18       1.0  T
   6   -965.2967915 -0.840867E-03  0.806E-03    0.15       1.0  T
   7   -965.2964609  0.330591E-03  0.124E-02    0.13       1.0  T
   8   -965.2916710  0.478990E-02  0.401E-02    0.11       1.0  T
   9   -965.2959659 -0.429488E-02  0.167E-02    0.12       1.0  T
  10   -965.2965003 -0.534407E-03  0.103E-02    0.13       1.0  T
  11   -965.2967864 -0.286118E-03  0.432E-03    0.14       1.0  T
  12   -965.2968285 -0.421158E-04  0.233E-03    0.14       1.8  T
  13   -965.2968404 -0.118844E-04  0.130E-03    0.14       3.2  T
  14   -965.2968436 -0.319466E-05  0.845E-04    0.14       5.0  T
  15   -965.2968453 -0.168652E-05  0.457E-04    0.15       9.1  T
  16   -965.2968458 -0.520688E-06  0.218E-04    0.15      19.1  T
  17   -965.2968459 -0.122443E-06  0.980E-05    0.15      42.7  T
  18   -965.2968459 -0.222988E-07  0.489E-05    0.15      85.6  T
     SCC iter.                  ...        1 min,  6.767 sec
     gradient                   ...        0 min,  2.961 sec
 * total energy  :  -949.9477609 Eh     change       -0.6767342E-01 Eh
   gradient norm :     0.2409604 Eh/a0  converged?    E=F G=F D=F
   step length   :     6.0831900 a0

........................................................................
.............................. CYCLE    5 ..............................
........................................................................
   1   -965.3659326 -0.965366E+03  0.402E-02    0.32       0.0  T
   2   -965.0016316  0.364301E+00  0.353E-01    0.01       1.0  T
   3   -965.3660205 -0.364389E+00  0.422E-02    0.28       1.0  T
   4   -965.3674813 -0.146082E-02  0.257E-02    0.28       1.0  T
   5   -965.3682593 -0.778004E-03  0.204E-02    0.26       1.0  T
   6   -965.3688965 -0.637225E-03  0.128E-02    0.22       1.0  T
   7   -965.3692152 -0.318677E-03  0.871E-03    0.19       1.0  T
   8   -965.3687616  0.453557E-03  0.151E-02    0.16       1.0  T
   9   -965.3677874  0.974208E-03  0.224E-02    0.14       1.0  T
  10   -965.3691151 -0.132764E-02  0.878E-03    0.16       1.0  T
  11   -965.3693078 -0.192703E-03  0.330E-03    0.17       1.3  T
  12   -965.3693323 -0.245624E-04  0.161E-03    0.18       2.6  T
  13   -965.3693387 -0.640257E-05  0.714E-04    0.18       5.9  T
  14   -965.3693402 -0.143745E-05  0.265E-04    0.18      15.8  T
  15   -965.3693403 -0.150202E-06  0.141E-04    0.18      29.6  T
  16   -965.3693404 -0.602885E-07  0.335E-05    0.18     124.9  T
     SCC iter.                  ...        0 min, 57.689 sec
     gradient                   ...        0 min,  2.940 sec
 * total energy  :  -949.9968360 Eh     change       -0.4907514E-01 Eh
   gradient norm :     0.1883855 Eh/a0  converged?    E=F G=F D=F
   step length   :    10.0095862 a0

........................................................................
.............................. CYCLE    6 ..............................
........................................................................
   1   -965.4270098 -0.965427E+03  0.309E-02    0.44       0.0  T
   2   -965.4259865  0.102331E-02  0.551E-02    0.22       1.0  T
   3   -965.4285872 -0.260076E-02  0.166E-02    0.30       1.0  T
   4   -965.4284790  0.108201E-03  0.151E-02    0.26       1.0  T
   5   -965.4286303 -0.151284E-03  0.734E-03    0.28       1.0  T
   6   -965.4286726 -0.423110E-04  0.301E-03    0.28       1.4  T
   7   -965.4286800 -0.732882E-05  0.129E-03    0.28       3.2  T
   8   -965.4286812 -0.124845E-05  0.555E-04    0.28       7.5  T
   9   -965.4286815 -0.261075E-06  0.276E-04    0.29      15.2  T
  10   -965.4286816 -0.884918E-07  0.123E-04    0.28      33.9  T
  11   -965.4286816 -0.186274E-07  0.605E-05    0.29      69.1  T
     SCC iter.                  ...        0 min, 42.234 sec
     gradient                   ...        0 min,  2.968 sec
 * total energy  :  -950.0412216 Eh     change       -0.4438558E-01 Eh
   gradient norm :     0.1470686 Eh/a0  converged?    E=F G=F D=F
   step length   :    24.3856446 a0

........................................................................
.............................. CYCLE    7 ..............................
........................................................................
   1   -965.4804096 -0.965480E+03  0.237E-02    0.63       0.0  T
   2   -965.4802513  0.158256E-03  0.352E-02    0.55       1.0  T
   3   -965.4811581 -0.906831E-03  0.101E-02    0.57       1.0  T
   4   -965.4811477  0.104323E-04  0.629E-03    0.59       1.0  T
   5   -965.4811687 -0.210203E-04  0.421E-03    0.58       1.0  T
   6   -965.4811859 -0.171771E-04  0.887E-04    0.59       4.7  T
   7   -965.4811866 -0.721528E-06  0.336E-04    0.58      12.4  T
   8   -965.4811867 -0.104278E-06  0.183E-04    0.58      22.9  T
   9   -965.4811868 -0.334247E-07  0.722E-05    0.58      57.9  T
     SCC iter.                  ...        0 min, 32.553 sec
     gradient                   ...        0 min,  3.005 sec
 * total energy  :  -950.0845706 Eh     change       -0.4334898E-01 Eh
   gradient norm :     0.1145664 Eh/a0  converged?    E=F G=F D=F
   step length   :   259.9378154 a0

........................................................................
.............................. CYCLE    8 ..............................
........................................................................
   1   -965.5318161 -0.965532E+03  0.226E-02    0.66       0.0  T
   2   -965.5319266 -0.110451E-03  0.275E-02    0.66       1.0  T
   3   -965.5324036 -0.477068E-03  0.851E-03    0.66       1.0  T
   4   -965.5323922  0.114485E-04  0.460E-03    0.66       1.0  T
   5   -965.5324007 -0.851541E-05  0.335E-03    0.66       1.2  T
   6   -965.5324143 -0.135658E-04  0.757E-04    0.66       5.5  T
   7   -965.5324149 -0.630389E-06  0.220E-04    0.66      19.0  T
   8   -965.5324149 -0.460191E-07  0.142E-04    0.66      29.5  T
   9   -965.5324149 -0.175143E-07  0.593E-05    0.66      70.5  T
     SCC iter.                  ...        0 min, 34.115 sec
     gradient                   ...        0 min,  2.990 sec
 * total energy  :  -950.1276118 Eh     change       -0.4304118E-01 Eh
   gradient norm :     0.0980947 Eh/a0  converged?    E=F G=F D=F
   step length   :  1995.6163612 a0

........................................................................
.............................. CYCLE    9 ..............................
........................................................................
   1   -965.5846813 -0.965585E+03  0.221E-02    0.68       0.0  T
   2   -965.5848969 -0.215582E-03  0.234E-02    0.68       1.0  T
   3   -965.5851665 -0.269635E-03  0.826E-03    0.68       1.0  T
   4   -965.5851510  0.154517E-04  0.454E-03    0.68       1.0  T
   5   -965.5851594 -0.833446E-05  0.268E-03    0.68       1.6  T
   6   -965.5851720 -0.126358E-04  0.746E-04    0.68       5.6  T
   7   -965.5851728 -0.776160E-06  0.228E-04    0.68      18.3  T
   8   -965.5851728 -0.611868E-07  0.118E-04    0.68      35.4  T
   9   -965.5851729 -0.145078E-07  0.506E-05    0.68      82.6  T
     SCC iter.                  ...        0 min, 32.422 sec
     gradient                   ...        0 min,  2.986 sec
 * total energy  :  -950.1699457 Eh     change       -0.4233397E-01 Eh
   gradient norm :     0.1048482 Eh/a0  converged?    E=F G=F D=F
   step length   :   135.5082733 a0

........................................................................
.............................. CYCLE   10 ..............................
........................................................................
   1   -965.6374256 -0.965637E+03  0.211E-02    0.71       0.0  T
   2   -965.6376388 -0.213211E-03  0.205E-02    0.71       1.0  T
   3   -965.6378021 -0.163303E-03  0.803E-03    0.71       1.0  T
   4   -965.6377799  0.222584E-04  0.510E-03    0.71       1.0  T
   5   -965.6377968 -0.168984E-04  0.214E-03    0.71       2.0  T
   6   -965.6378059 -0.912232E-05  0.678E-04    0.71       6.2  T
   7   -965.6378066 -0.692193E-06  0.244E-04    0.71      17.2  T
   8   -965.6378066 -0.758799E-07  0.869E-05    0.71      48.1  T
   9   -965.6378067 -0.738305E-08  0.425E-05    0.71      98.5  T
     SCC iter.                  ...        0 min, 33.663 sec
     gradient                   ...        0 min,  2.971 sec
 * total energy  :  -950.2096430 Eh     change       -0.3969728E-01 Eh
   gradient norm :     0.1302501 Eh/a0  converged?    E=F G=F D=F
   step length   :    46.0530504 a0

........................................................................
.............................. CYCLE   11 ..............................
........................................................................
   1   -965.6918941 -0.965692E+03  0.210E-02    0.73       0.0  T
   2   -965.6920710 -0.176958E-03  0.200E-02    0.73       1.0  T
   3   -965.6921952 -0.124204E-03  0.866E-03    0.73       1.0  T
   4   -965.6921596  0.356225E-04  0.605E-03    0.72       1.0  T
   5   -965.6921927 -0.331023E-04  0.181E-03    0.72       2.3  T
   6   -965.6921988 -0.614551E-05  0.617E-04    0.72       6.8  T
   7   -965.6921994 -0.578587E-06  0.255E-04    0.72      16.4  T
   8   -965.6921995 -0.978800E-07  0.803E-05    0.72      52.1  T
   9   -965.6921995 -0.637624E-08  0.386E-05    0.72     108.3  T
     SCC iter.                  ...        0 min, 31.882 sec
     gradient                   ...        0 min,  2.988 sec
 * total energy  :  -950.2467478 Eh     change       -0.3710476E-01 Eh
   gradient norm :     0.1624266 Eh/a0  converged?    E=F G=F D=F
   step length   :    33.4722232 a0

........................................................................
.............................. CYCLE   12 ..............................
........................................................................
   1   -965.7516889 -0.965752E+03  0.198E-02    0.73       0.0  T
   2   -965.7518135 -0.124581E-03  0.185E-02    0.73       1.0  T
   3   -965.7519047 -0.912012E-04  0.839E-03    0.73       1.0  T
   4   -965.7518647  0.399800E-04  0.608E-03    0.72       1.0  T
   5   -965.7519041 -0.394063E-04  0.149E-03    0.72       2.8  T
   6   -965.7519081 -0.398439E-05  0.491E-04    0.72       8.5  T
   7   -965.7519084 -0.341223E-06  0.221E-04    0.72      19.0  T
   8   -965.7519085 -0.805394E-07  0.713E-05    0.72      58.6  T
   9   -965.7519085 -0.568980E-08  0.321E-05    0.72     130.3  T
     SCC iter.                  ...        0 min, 32.080 sec
     gradient                   ...        0 min,  3.363 sec
 * total energy  :  -950.2779857 Eh     change       -0.3123795E-01 Eh
   gradient norm :     0.1919261 Eh/a0  converged?    E=F G=F D=F
   step length   :    13.2754324 a0

........................................................................
.............................. CYCLE   13 ..............................
........................................................................
   1   -965.8100861 -0.965810E+03  0.185E-02    0.73       0.0  T
   2   -965.8101647 -0.786211E-04  0.180E-02    0.72       1.0  T
   3   -965.8102582 -0.935474E-04  0.841E-03    0.72       1.0  T
   4   -965.8102110  0.472637E-04  0.632E-03    0.72       1.0  T
   5   -965.8102593 -0.483484E-04  0.112E-03    0.72       3.7  T
   6   -965.8102612 -0.182913E-05  0.375E-04    0.72      11.2  T
   7   -965.8102613 -0.186347E-06  0.190E-04    0.72      22.1  T
   8   -965.8102614 -0.677369E-07  0.628E-05    0.72      66.5  T
     SCC iter.                  ...        0 min, 29.051 sec
     gradient                   ...        0 min,  3.010 sec
 * total energy  :  -950.3012957 Eh     change       -0.2330996E-01 Eh
   gradient norm :     0.2166180 Eh/a0  converged?    E=F G=F D=F
   step length   :    10.5514948 a0

........................................................................
.............................. CYCLE   14 ..............................
........................................................................
   1   -965.8691659 -0.965869E+03  0.143E-02    0.72       0.0  T
   2   -965.8692041 -0.382111E-04  0.140E-02    0.72       1.0  T
   3   -965.8692679 -0.637709E-04  0.636E-03    0.72       1.0  T
   4   -965.8692350  0.328470E-04  0.511E-03    0.72       1.0  T
   5   -965.8692691 -0.341233E-04  0.815E-04    0.72       5.1  T
   6   -965.8692699 -0.798232E-06  0.278E-04    0.72      15.1  T
   7   -965.8692700 -0.948329E-07  0.147E-04    0.72      28.5  T
   8   -965.8692701 -0.388870E-07  0.516E-05    0.72      81.0  T
     SCC iter.                  ...        0 min, 28.558 sec
     gradient                   ...        0 min,  2.979 sec
 * total energy  :  -950.3192041 Eh     change       -0.1790843E-01 Eh
   gradient norm :     0.2332323 Eh/a0  converged?    E=F G=F D=F
   step length   :     6.8529241 a0

........................................................................
.............................. CYCLE   15 ..............................
........................................................................
   1   -965.9435805 -0.965944E+03  0.145E-02    0.72       0.0  T
   2   -965.9436148 -0.343039E-04  0.121E-02    0.73       1.0  T
   3   -965.9436623 -0.475189E-04  0.516E-03    0.73       1.0  T
   4   -965.9436398  0.225062E-04  0.446E-03    0.73       1.0  T
   5   -965.9436658 -0.259561E-04  0.798E-04    0.73       5.2  T
   6   -965.9436666 -0.804508E-06  0.249E-04    0.73      16.8  T
   7   -965.9436666 -0.718954E-07  0.122E-04    0.73      34.2  T
   8   -965.9436667 -0.247740E-07  0.507E-05    0.73      82.5  T
     SCC iter.                  ...        0 min, 30.773 sec
     gradient                   ...        0 min,  3.007 sec
 * total energy  :  -950.3322699 Eh     change       -0.1306573E-01 Eh
   gradient norm :     0.2438889 Eh/a0  converged?    E=F G=F D=F
   step length   :     5.5086346 a0

........................................................................
.............................. CYCLE   16 ..............................
........................................................................
   1   -966.0151340 -0.966015E+03  0.831E-03    0.73       0.0  T
   2   -966.0151477 -0.137785E-04  0.605E-03    0.73       1.0  T
   3   -966.0151634 -0.156564E-04  0.286E-03    0.73       1.5  T
   4   -966.0151612  0.218163E-05  0.233E-03    0.73       1.8  T
   5   -966.0151682 -0.694197E-05  0.468E-04    0.73       8.9  T
   6   -966.0151684 -0.223243E-06  0.186E-04    0.73      22.5  T
   7   -966.0151684 -0.415170E-07  0.670E-05    0.73      62.4  T
     SCC iter.                  ...        0 min, 25.280 sec
     gradient                   ...        0 min,  3.027 sec
 * total energy  :  -950.3428660 Eh     change       -0.1059611E-01 Eh
   gradient norm :     0.2454918 Eh/a0  converged?    E=F G=F D=F
   step length   :     4.8759802 a0

........................................................................
.............................. CYCLE   17 ..............................
........................................................................
   1   -966.0921598 -0.966092E+03  0.863E-03    0.73       0.0  T
   2   -966.0921719 -0.120622E-04  0.616E-03    0.74       1.0  T
   3   -966.0921898 -0.179283E-04  0.307E-03    0.74       1.4  T
   4   -966.0921917 -0.184871E-05  0.231E-03    0.74       1.8  T
   5   -966.0921977 -0.606748E-05  0.522E-04    0.74       8.0  T
   6   -966.0921980 -0.311028E-06  0.198E-04    0.74      21.1  T
   7   -966.0921981 -0.527225E-07  0.820E-05    0.74      51.0  T
     SCC iter.                  ...        0 min, 25.952 sec
     gradient                   ...        0 min,  3.705 sec
 * total energy  :  -950.3524347 Eh     change       -0.9568725E-02 Eh
   gradient norm :     0.2445935 Eh/a0  converged?    E=F G=F D=F
   step length   :     5.0967728 a0

........................................................................
.............................. CYCLE   18 ..............................
........................................................................
   1   -966.1633451 -0.966163E+03  0.778E-03    0.74       0.0  T
   2   -966.1633631 -0.180240E-04  0.529E-03    0.74       1.0  T
   3   -966.1633763 -0.132124E-04  0.259E-03    0.74       1.6  T
   4   -966.1633727  0.361858E-05  0.226E-03    0.74       1.9  T
   5   -966.1633803 -0.761205E-05  0.709E-04    0.74       5.9  T
   6   -966.1633809 -0.610685E-06  0.190E-04    0.74      22.0  T
   7   -966.1633810 -0.479985E-07  0.754E-05    0.74      55.4  T
     SCC iter.                  ...        0 min, 25.565 sec
     gradient                   ...        0 min,  2.985 sec
 * total energy  :  -950.3608960 Eh     change       -0.8461317E-02 Eh
   gradient norm :     0.2401082 Eh/a0  converged?    E=F G=F D=F
   step length   :     4.3126961 a0

........................................................................
.............................. CYCLE   19 ..............................
........................................................................
   1   -966.2285189 -0.966229E+03  0.754E-03    0.74       0.0  T
   2   -966.2285319 -0.130552E-04  0.548E-03    0.74       1.0  T
   3   -966.2285465 -0.145765E-04  0.268E-03    0.74       1.6  T
   4   -966.2285416  0.489698E-05  0.251E-03    0.74       1.7  T
   5   -966.2285515 -0.988323E-05  0.620E-04    0.74       6.7  T
   6   -966.2285519 -0.375373E-06  0.147E-04    0.74      28.4  T
   7   -966.2285519 -0.251538E-07  0.597E-05    0.74      70.1  T
     SCC iter.                  ...        0 min, 25.364 sec
     gradient                   ...        0 min,  2.992 sec
 * total energy  :  -950.3678489 Eh     change       -0.6952861E-02 Eh
   gradient norm :     0.2350722 Eh/a0  converged?    E=F G=F D=F
   step length   :     3.0895277 a0

........................................................................
.............................. CYCLE   20 ..............................
........................................................................
   1   -966.2905870 -0.966291E+03  0.702E-03    0.74       0.0  T
   2   -966.2905961 -0.917974E-05  0.495E-03    0.74       1.0  T
   3   -966.2906058 -0.961590E-05  0.260E-03    0.74       1.6  T
   4   -966.2906039  0.186900E-05  0.235E-03    0.74       1.8  T
   5   -966.2906121 -0.824734E-05  0.549E-04    0.74       7.6  T
   6   -966.2906124 -0.279077E-06  0.141E-04    0.74      29.7  T
   7   -966.2906124 -0.240378E-07  0.570E-05    0.74      73.3  T
     SCC iter.                  ...        0 min, 27.230 sec
     gradient                   ...        0 min,  3.018 sec
 * total energy  :  -950.3741025 Eh     change       -0.6253618E-02 Eh
   gradient norm :     0.2303734 Eh/a0  converged?    E=F G=F D=F
   step length   :     3.7975152 a0
 * RMSD in coord.:     0.7387305 a0     energy gain  -0.1195836E+01 Eh
 * calculating model hessian...
Using Lindh-Hessian (1995)
 Shifting diagonal of input Hessian by    1.0001624523292776E-002
 Lowest  eigenvalues of input Hessian
    0.010000    0.010001    0.010001    0.010001    0.000000    0.000000
    0.000000    0.000000    0.000000    0.000000    0.010002    0.010002
    0.010002    0.010002    0.010002    0.010002    0.010003    0.010003
 Highest eigenvalues
    2.927081    2.927699    2.965346    2.965456    2.970923    2.970942


........................................................................
.............................. CYCLE   21 ..............................
........................................................................
   1   -966.3315374 -0.966332E+03  0.212E-02    0.73       0.0  T
   2   -966.3318244 -0.287025E-03  0.148E-02    0.73       1.0  T
   3   -966.3319176 -0.931070E-04  0.588E-03    0.73       1.0  T
   4   -966.3319046  0.129565E-04  0.456E-03    0.73       1.0  T
   5   -966.3319178 -0.132214E-04  0.133E-03    0.73       3.1  T
   6   -966.3319201 -0.227340E-05  0.499E-04    0.73       8.4  T
   7   -966.3319205 -0.389686E-06  0.149E-04    0.73      28.1  T
   8   -966.3319205 -0.111695E-07  0.593E-05    0.73      70.5  T
     SCC iter.                  ...        0 min, 29.031 sec
     gradient                   ...        0 min,  3.039 sec
 * total energy  :  -950.4082986 Eh     change       -0.3419610E-01 Eh
   gradient norm :     0.1176741 Eh/a0  converged?    E=F G=F D=F
   step length   :     0.3924743 a0

........................................................................
.............................. CYCLE   22 ..............................
........................................................................
   1   -966.3062056 -0.966306E+03  0.209E-02    0.68       0.0  T
   2   -966.3064791 -0.273445E-03  0.146E-02    0.69       1.0  T
   3   -966.3066022 -0.123089E-03  0.520E-03    0.69       1.0  T
   4   -966.3065733  0.288240E-04  0.556E-03    0.69       1.0  T
   5   -966.3066112 -0.378197E-04  0.150E-03    0.69       2.8  T
   6   -966.3066130 -0.180255E-05  0.517E-04    0.69       8.1  T
   7   -966.3066133 -0.329288E-06  0.245E-04    0.69      17.1  T
   8   -966.3066134 -0.697509E-07  0.116E-04    0.69      36.0  T
   9   -966.3066134 -0.169272E-07  0.328E-05    0.69     127.5  T
     SCC iter.                  ...        0 min, 34.091 sec
     gradient                   ...        0 min,  3.015 sec
 * total energy  :  -950.4292170 Eh     change       -0.2091840E-01 Eh
   gradient norm :     0.0296923 Eh/a0  converged?    E=F G=F D=F
   step length   :     1.1949807 a0

........................................................................
.............................. CYCLE   23 ..............................
........................................................................
   1   -966.2557389 -0.966256E+03  0.129E-02    0.66       0.0  T
   2   -966.2558044 -0.654501E-04  0.102E-02    0.67       1.0  T
   3   -966.2558650 -0.605835E-04  0.383E-03    0.67       1.1  T
   4   -966.2558470  0.180053E-04  0.393E-03    0.67       1.1  T
   5   -966.2558696 -0.226361E-04  0.100E-03    0.67       4.2  T
   6   -966.2558706 -0.964525E-06  0.286E-04    0.67      14.6  T
   7   -966.2558707 -0.984351E-07  0.156E-04    0.67      26.7  T
   8   -966.2558707 -0.414208E-07  0.607E-05    0.67      68.9  T
     SCC iter.                  ...        0 min, 28.474 sec
     gradient                   ...        0 min,  2.964 sec
 * total energy  :  -950.4305178 Eh     change       -0.1300814E-02 Eh
   gradient norm :     0.0565481 Eh/a0  converged?    E=F G=F D=F
   step length   :     1.9675443 a0

........................................................................
.............................. CYCLE   24 ..............................
........................................................................
   1   -966.2359454 -0.966236E+03  0.955E-03    0.66       0.0  T
   2   -966.2359607 -0.153108E-04  0.802E-03    0.66       1.0  T
   3   -966.2359943 -0.336016E-04  0.380E-03    0.66       1.1  T
   4   -966.2359790  0.152884E-04  0.360E-03    0.66       1.2  T
   5   -966.2360007 -0.216820E-04  0.709E-04    0.66       5.9  T
   6   -966.2360013 -0.574640E-06  0.251E-04    0.66      16.7  T
   7   -966.2360014 -0.904179E-07  0.950E-05    0.66      44.0  T
   8   -966.2360014 -0.115720E-07  0.383E-05    0.66     109.3  T
     SCC iter.                  ...        0 min, 29.176 sec
     gradient                   ...        0 min,  2.972 sec
 * total energy  :  -950.4398027 Eh     change       -0.9284903E-02 Eh
   gradient norm :     0.0566863 Eh/a0  converged?    E=F G=F D=F
   step length   :     1.4994749 a0

........................................................................
.............................. CYCLE   25 ..............................
........................................................................
   1   -966.2086162 -0.966209E+03  0.519E-03    0.66       0.0  T
   2   -966.2086200 -0.388308E-05  0.370E-03    0.66       1.1  T
   3   -966.2086272 -0.714196E-05  0.192E-03    0.66       2.2  T
   4   -966.2086273 -0.137491E-06  0.170E-03    0.66       2.5  T
   5   -966.2086313 -0.396159E-05  0.433E-04    0.66       9.7  T
   6   -966.2086315 -0.181953E-06  0.144E-04    0.66      29.0  T
   7   -966.2086315 -0.273834E-07  0.555E-05    0.66      75.4  T
     SCC iter.                  ...        0 min, 27.145 sec
     gradient                   ...        0 min,  2.992 sec
 * total energy  :  -950.4435028 Eh     change       -0.3700094E-02 Eh
   gradient norm :     0.0530916 Eh/a0  converged?    E=F G=F D=F
   step length   :     2.4588643 a0

........................................................................
.............................. CYCLE   26 ..............................
........................................................................
   1   -966.1958394 -0.966196E+03  0.607E-03    0.67       0.0  T
   2   -966.1958561 -0.166648E-04  0.455E-03    0.67       1.0  T
   3   -966.1958647 -0.855579E-05  0.214E-03    0.67       2.0  T
   4   -966.1958598  0.488242E-05  0.189E-03    0.67       2.2  T
   5   -966.1958652 -0.541565E-05  0.590E-04    0.67       7.1  T
   6   -966.1958656 -0.442395E-06  0.141E-04    0.67      29.7  T
   7   -966.1958657 -0.278217E-07  0.544E-05    0.67      76.9  T
     SCC iter.                  ...        0 min, 25.446 sec
     gradient                   ...        0 min,  3.006 sec
 * total energy  :  -950.4479288 Eh     change       -0.4426005E-02 Eh
   gradient norm :     0.0393359 Eh/a0  converged?    E=F G=F D=F
   step length   :     1.4417639 a0

........................................................................
.............................. CYCLE   27 ..............................
........................................................................
   1   -966.2143937 -0.966214E+03  0.500E-03    0.68       0.0  T
   2   -966.2144080 -0.142952E-04  0.342E-03    0.68       1.2  T
   3   -966.2144140 -0.596938E-05  0.159E-03    0.68       2.6  T
   4   -966.2144116  0.243508E-05  0.145E-03    0.68       2.9  T
   5   -966.2144146 -0.302721E-05  0.424E-04    0.68       9.9  T
   6   -966.2144149 -0.256908E-06  0.127E-04    0.68      32.9  T
   7   -966.2144149 -0.189902E-07  0.440E-05    0.68      95.0  T
     SCC iter.                  ...        0 min, 25.051 sec
     gradient                   ...        0 min,  3.047 sec
 * total energy  :  -950.4540144 Eh     change       -0.6085613E-02 Eh
   gradient norm :     0.0278643 Eh/a0  converged?    E=F G=F D=F
   step length   :     1.6055641 a0

........................................................................
.............................. CYCLE   28 ..............................
........................................................................
   1   -966.2266124 -0.966227E+03  0.373E-03    0.69       0.0  T
   2   -966.2266180 -0.560464E-05  0.258E-03    0.69       1.6  T
   3   -966.2266217 -0.376457E-05  0.127E-03    0.69       3.3  T
   4   -966.2266208  0.977754E-06  0.118E-03    0.69       3.5  T
   5   -966.2266228 -0.207967E-05  0.263E-04    0.69      15.9  T
   6   -966.2266229 -0.858469E-07  0.119E-04    0.69      35.2  T
   7   -966.2266229 -0.185797E-07  0.412E-05    0.69     101.5  T
     SCC iter.                  ...        0 min, 26.444 sec
     gradient                   ...        0 min,  2.997 sec
 * total energy  :  -950.4583014 Eh     change       -0.4287021E-02 Eh
   gradient norm :     0.0256592 Eh/a0  converged?    E=F G=F D=F
   step length   :     2.4684641 a0

........................................................................
.............................. CYCLE   29 ..............................
........................................................................
   1   -966.2355481 -0.966236E+03  0.336E-03    0.69       0.0  T
   2   -966.2355515 -0.331136E-05  0.238E-03    0.69       1.8  T
   3   -966.2355544 -0.292686E-05  0.116E-03    0.69       3.6  T
   4   -966.2355535  0.863833E-06  0.104E-03    0.69       4.0  T
   5   -966.2355552 -0.167036E-05  0.227E-04    0.69      18.4  T
   6   -966.2355552 -0.537923E-07  0.102E-04    0.69      41.1  T
   7   -966.2355553 -0.139228E-07  0.403E-05    0.69     103.9  T
     SCC iter.                  ...        0 min, 25.203 sec
     gradient                   ...        0 min,  2.989 sec
 * total energy  :  -950.4615855 Eh     change       -0.3284104E-02 Eh
   gradient norm :     0.0263650 Eh/a0  converged?    E=F G=F D=F
   step length   :     3.4796338 a0

........................................................................
.............................. CYCLE   30 ..............................
........................................................................
   1   -966.2450044 -0.966245E+03  0.301E-03    0.69       0.0  T
   2   -966.2450074 -0.302696E-05  0.211E-03    0.69       2.0  T
   3   -966.2450100 -0.251394E-05  0.940E-04    0.69       4.4  T
   4   -966.2450094  0.573359E-06  0.856E-04    0.69       4.9  T
   5   -966.2450104 -0.101487E-05  0.221E-04    0.69      18.9  T
   6   -966.2450105 -0.600381E-07  0.912E-05    0.69      45.8  T
   7   -966.2450105 -0.965383E-08  0.383E-05    0.69     109.3  T
     SCC iter.                  ...        0 min, 25.682 sec
     gradient                   ...        0 min,  3.550 sec
 * total energy  :  -950.4647202 Eh     change       -0.3134698E-02 Eh
   gradient norm :     0.0267658 Eh/a0  converged?    E=F G=F D=F
   step length   :     6.6113921 a0

........................................................................
.............................. CYCLE   31 ..............................
........................................................................
   1   -966.2575966 -0.966258E+03  0.274E-03    0.70       0.0  T
   2   -966.2575992 -0.258386E-05  0.181E-03    0.70       2.3  T
   3   -966.2576009 -0.166465E-05  0.847E-04    0.70       4.9  T
   4   -966.2576005  0.366181E-06  0.722E-04    0.70       5.8  T
   5   -966.2576012 -0.697349E-06  0.212E-04    0.70      19.8  T
   6   -966.2576013 -0.585638E-07  0.836E-05    0.70      50.0  T
   7   -966.2576013 -0.775572E-08  0.343E-05    0.70     121.8  T
     SCC iter.                  ...        0 min, 24.286 sec
     gradient                   ...        0 min,  3.011 sec
 * total energy  :  -950.4676583 Eh     change       -0.2938075E-02 Eh
   gradient norm :     0.0264778 Eh/a0  converged?    E=F G=F D=F
   step length   :     6.8251393 a0

........................................................................
.............................. CYCLE   32 ..............................
........................................................................
   1   -966.2727583 -0.966273E+03  0.256E-03    0.70       0.0  T
   2   -966.2727608 -0.248832E-05  0.163E-03    0.70       2.6  T
   3   -966.2727621 -0.130170E-05  0.749E-04    0.70       5.6  T
   4   -966.2727619  0.220912E-06  0.592E-04    0.70       7.1  T
   5   -966.2727623 -0.383479E-06  0.223E-04    0.70      18.8  T
   6   -966.2727624 -0.772270E-07  0.777E-05    0.70      53.8  T
   7   -966.2727624 -0.642865E-08  0.303E-05    0.70     138.2  T
     SCC iter.                  ...        0 min, 24.613 sec
     gradient                   ...        0 min,  2.978 sec
 * total energy  :  -950.4705655 Eh     change       -0.2907189E-02 Eh
   gradient norm :     0.0257772 Eh/a0  converged?    E=F G=F D=F
   step length   :     7.6973491 a0

........................................................................
.............................. CYCLE   33 ..............................
........................................................................
   1   -966.2874835 -0.966287E+03  0.242E-03    0.70       0.0  T
   2   -966.2874855 -0.200128E-05  0.148E-03    0.70       2.8  T
   3   -966.2874866 -0.107362E-05  0.698E-04    0.70       6.0  T
   4   -966.2874865  0.870547E-07  0.509E-04    0.70       8.2  T
   5   -966.2874867 -0.235043E-06  0.217E-04    0.70      19.3  T
   6   -966.2874868 -0.771371E-07  0.699E-05    0.70      59.8  T
   7   -966.2874868 -0.498972E-08  0.290E-05    0.70     144.3  T
     SCC iter.                  ...        0 min, 25.847 sec
     gradient                   ...        0 min,  3.573 sec
 * total energy  :  -950.4733355 Eh     change       -0.2769951E-02 Eh
   gradient norm :     0.0244936 Eh/a0  converged?    E=F G=F D=F
   step length   :     7.6295237 a0

........................................................................
.............................. CYCLE   34 ..............................
........................................................................
   1   -966.3003378 -0.966300E+03  0.229E-03    0.70       0.0  T
   2   -966.3003395 -0.176513E-05  0.136E-03    0.70       3.1  T
   3   -966.3003405 -0.921333E-06  0.665E-04    0.70       6.3  T
   4   -966.3003404  0.388742E-07  0.476E-04    0.70       8.8  T
   5   -966.3003406 -0.196552E-06  0.208E-04    0.70      20.1  T
   6   -966.3003407 -0.716425E-07  0.646E-05    0.70      64.7  T
   7   -966.3003407 -0.419175E-08  0.272E-05    0.70     153.9  T
     SCC iter.                  ...        0 min, 23.949 sec
     gradient                   ...        0 min,  2.999 sec
 * total energy  :  -950.4759289 Eh     change       -0.2593452E-02 Eh
   gradient norm :     0.0229069 Eh/a0  converged?    E=F G=F D=F
   step length   :     8.7349025 a0

........................................................................
.............................. CYCLE   35 ..............................
........................................................................
   1   -966.3131773 -0.966313E+03  0.222E-03    0.70       0.0  T
   2   -966.3131789 -0.167255E-05  0.128E-03    0.70       3.3  T
   3   -966.3131798 -0.841350E-06  0.634E-04    0.70       6.6  T
   4   -966.3131798 -0.743921E-08  0.421E-04    0.70       9.9  T
   5   -966.3131799 -0.116196E-06  0.200E-04    0.70      20.9  T
   6   -966.3131800 -0.712889E-07  0.607E-05    0.70      68.9  T
   7   -966.3131800 -0.386535E-08  0.254E-05    0.70     164.9  T
     SCC iter.                  ...        0 min, 25.715 sec
     gradient                   ...        0 min,  2.996 sec
 * total energy  :  -950.4783644 Eh     change       -0.2435461E-02 Eh
   gradient norm :     0.0212566 Eh/a0  converged?    E=F G=F D=F
   step length   :     8.8356111 a0

........................................................................
.............................. CYCLE   36 ..............................
........................................................................
   1   -966.3255145 -0.966326E+03  0.218E-03    0.69       0.0  T
   2   -966.3255161 -0.160701E-05  0.123E-03    0.69       3.4  T
   3   -966.3255169 -0.810459E-06  0.620E-04    0.69       6.7  T
   4   -966.3255169 -0.115515E-07  0.409E-04    0.69      10.2  T
   5   -966.3255170 -0.109842E-06  0.200E-04    0.69      20.9  T
   6   -966.3255171 -0.727205E-07  0.564E-05    0.69      74.1  T
     SCC iter.                  ...        0 min, 21.295 sec
     gradient                   ...        0 min,  3.539 sec
 * total energy  :  -950.4806312 Eh     change       -0.2266811E-02 Eh
   gradient norm :     0.0194000 Eh/a0  converged?    E=F G=F D=F
   step length   :     8.2827762 a0

........................................................................
.............................. CYCLE   37 ..............................
........................................................................
   1   -966.3363907 -0.966336E+03  0.211E-03    0.69       0.0  T
   2   -966.3363923 -0.156046E-05  0.119E-03    0.69       3.5  T
   3   -966.3363931 -0.806085E-06  0.599E-04    0.69       7.0  T
   4   -966.3363931 -0.211393E-07  0.387E-04    0.69      10.8  T
   5   -966.3363932 -0.801431E-07  0.196E-04    0.69      21.4  T
   6   -966.3363933 -0.732789E-07  0.530E-05    0.69      78.8  T
     SCC iter.                  ...        0 min, 21.293 sec
     gradient                   ...        0 min,  3.038 sec
 * total energy  :  -950.4827187 Eh     change       -0.2087547E-02 Eh
   gradient norm :     0.0174194 Eh/a0  converged?    E=F G=F D=F
   step length   :     8.2016877 a0

........................................................................
.............................. CYCLE   38 ..............................
........................................................................
   1   -966.3469109 -0.966347E+03  0.207E-03    0.69       0.0  T
   2   -966.3469125 -0.155519E-05  0.117E-03    0.69       3.6  T
   3   -966.3469133 -0.796592E-06  0.580E-04    0.69       7.2  T
   4   -966.3469133 -0.679859E-08  0.375E-04    0.69      11.1  T
   5   -966.3469134 -0.733564E-07  0.196E-04    0.69      21.3  T
   6   -966.3469134 -0.751605E-07  0.500E-05    0.69      83.6  T
     SCC iter.                  ...        0 min, 19.565 sec
     gradient                   ...        0 min,  2.009 sec
 * total energy  :  -950.4846333 Eh     change       -0.1914594E-02 Eh
   gradient norm :     0.0156326 Eh/a0  converged?    E=F G=F D=F
   step length   :     7.7127185 a0

........................................................................
.............................. CYCLE   39 ..............................
........................................................................
   1   -966.3569017 -0.966357E+03  0.204E-03    0.69       0.0  T
   2   -966.3569033 -0.157126E-05  0.115E-03    0.69       3.6  T
   3   -966.3569041 -0.811587E-06  0.572E-04    0.69       7.3  T
   4   -966.3569041 -0.115265E-07  0.366E-04    0.69      11.4  T
   5   -966.3569042 -0.601547E-07  0.192E-04    0.69      21.7  T
   6   -966.3569043 -0.731853E-07  0.489E-05    0.69      85.5  T
     SCC iter.                  ...        0 min, 16.509 sec
     gradient                   ...        0 min,  1.997 sec
 * total energy  :  -950.4863831 Eh     change       -0.1749760E-02 Eh
   gradient norm :     0.0139726 Eh/a0  converged?    E=F G=F D=F
   step length   :     7.3741515 a0

........................................................................
.............................. CYCLE   40 ..............................
........................................................................
   1   -966.3656747 -0.966366E+03  0.202E-03    0.69       0.0  T
   2   -966.3656763 -0.159362E-05  0.115E-03    0.69       3.6  T
   3   -966.3656771 -0.830590E-06  0.557E-04    0.69       7.5  T
   4   -966.3656771 -0.908699E-09  0.362E-04    0.69      11.6  T
   5   -966.3656772 -0.580055E-07  0.194E-04    0.69      21.5  T
   6   -966.3656773 -0.766935E-07  0.471E-05    0.69      88.8  T
     SCC iter.                  ...        0 min, 16.703 sec
     gradient                   ...        0 min,  1.936 sec
 * total energy  :  -950.4879773 Eh     change       -0.1594223E-02 Eh
   gradient norm :     0.0123886 Eh/a0  converged?    E=F G=F D=F
   step length   :     7.5590761 a0

........................................................................
.............................. CYCLE   41 ..............................
........................................................................
   1   -966.3741782 -0.966374E+03  0.199E-03    0.69       0.0  T
   2   -966.3741798 -0.159118E-05  0.113E-03    0.69       3.7  T
   3   -966.3741806 -0.816316E-06  0.546E-04    0.69       7.7  T
   4   -966.3741806  0.576051E-09  0.352E-04    0.69      11.9  T
   5   -966.3741807 -0.508201E-07  0.190E-04    0.69      22.0  T
   6   -966.3741807 -0.726980E-07  0.462E-05    0.69      90.4  T
     SCC iter.                  ...        0 min, 16.741 sec
     gradient                   ...        0 min,  1.997 sec
 * total energy  :  -950.4894298 Eh     change       -0.1452471E-02 Eh
   gradient norm :     0.0111658 Eh/a0  converged?    E=F G=F D=F
   step length   :     6.5622513 a0

........................................................................
.............................. CYCLE   42 ..............................
........................................................................
   1   -966.4030522 -0.966403E+03  0.379E-03    0.68       0.0  T
   2   -966.4030565 -0.429820E-05  0.221E-03    0.68       1.9  T
   3   -966.4030587 -0.219290E-05  0.122E-03    0.68       3.4  T
   4   -966.4030586  0.178491E-06  0.919E-04    0.68       4.5  T
   5   -966.4030596 -0.109450E-05  0.300E-04    0.68      13.9  T
   6   -966.4030598 -0.166131E-06  0.879E-05    0.68      47.6  T
   7   -966.4030598 -0.965019E-08  0.348E-05    0.68     120.0  T
     SCC iter.                  ...        0 min, 19.211 sec
     gradient                   ...        0 min,  1.992 sec
 * total energy  :  -950.4917187 Eh     change       -0.2288968E-02 Eh
   gradient norm :     0.0080346 Eh/a0  converged?    E=F G=F D=F
   step length   :     3.7557506 a0
 * RMSD in coord.:     0.7960861 a0     energy gain  -0.1176163E+00 Eh
 * calculating model hessian...
Using Lindh-Hessian (1995)
 Shifting diagonal of input Hessian by    1.0003574555421437E-002
 Lowest  eigenvalues of input Hessian
    0.010000    0.010003    0.010003    0.010003    0.010003    0.010003
    0.010003    0.000000    0.000000    0.000000    0.000000    0.000000
    0.000000    0.010004    0.010004    0.010004    0.010005    0.010005
 Highest eigenvalues
    2.924212    2.924432    2.935935    2.936401    2.964146    2.964473


........................................................................
.............................. CYCLE   43 ..............................
........................................................................
   1   -966.3966369 -0.966397E+03  0.126E-03    0.68       0.0  T
   2   -966.3966371 -0.198935E-06  0.743E-04    0.68       5.6  T
   3   -966.3966371  0.215449E-07  0.521E-04    0.68       8.0  T
   4   -966.3966373 -0.142493E-06  0.289E-04    0.68      14.5  T
   5   -966.3966374 -0.113189E-06  0.881E-05    0.68      47.5  T
   6   -966.3966374 -0.126086E-07  0.312E-05    0.68     133.9  T
     SCC iter.                  ...        0 min, 16.742 sec
     gradient                   ...        0 min,  2.017 sec
 * total energy  :  -950.4922872 Eh     change       -0.5684562E-03 Eh
   gradient norm :     0.0054952 Eh/a0  converged?    E=F G=F D=F
   step length   :     0.2161208 a0

........................................................................
.............................. CYCLE   44 ..............................
........................................................................
   1   -966.3690687 -0.966369E+03  0.485E-03    0.68       0.0  T
   2   -966.3690719 -0.325672E-05  0.290E-03    0.68       1.4  T
   3   -966.3690726 -0.704845E-06  0.201E-03    0.68       2.1  T
   4   -966.3690746 -0.202011E-05  0.117E-03    0.68       3.6  T
   5   -966.3690764 -0.177878E-05  0.366E-04    0.68      11.4  T
   6   -966.3690766 -0.218359E-06  0.127E-04    0.68      33.0  T
   7   -966.3690767 -0.291525E-07  0.364E-05    0.68     115.0  T
     SCC iter.                  ...        0 min, 19.802 sec
     gradient                   ...        0 min,  2.004 sec
 * total energy  :  -950.4939500 Eh     change       -0.1662768E-02 Eh
   gradient norm :     0.0170306 Eh/a0  converged?    E=F G=F D=F
   step length   :     2.1776162 a0

........................................................................
.............................. CYCLE   45 ..............................
........................................................................
   1   -966.3503099 -0.966350E+03  0.342E-03    0.68       0.0  T
   2   -966.3503121 -0.218270E-05  0.209E-03    0.68       2.0  T
   3   -966.3503143 -0.218127E-05  0.129E-03    0.68       3.2  T
   4   -966.3503152 -0.889271E-06  0.838E-04    0.68       5.0  T
   5   -966.3503159 -0.698807E-06  0.283E-04    0.68      14.8  T
   6   -966.3503160 -0.125669E-06  0.103E-04    0.68      40.8  T
   7   -966.3503160 -0.174882E-07  0.299E-05    0.68     140.0  T
     SCC iter.                  ...        0 min, 19.299 sec
     gradient                   ...        0 min,  2.018 sec
 * total energy  :  -950.4952083 Eh     change       -0.1258330E-02 Eh
   gradient norm :     0.0242624 Eh/a0  converged?    E=F G=F D=F
   step length   :     2.4963644 a0

........................................................................
.............................. CYCLE   46 ..............................
........................................................................
   1   -966.3414486 -0.966341E+03  0.287E-03    0.68       0.0  T
   2   -966.3414508 -0.216988E-05  0.169E-03    0.68       2.5  T
   3   -966.3414530 -0.227207E-05  0.885E-04    0.68       4.7  T
   4   -966.3414536 -0.589849E-06  0.579E-04    0.68       7.2  T
   5   -966.3414539 -0.278161E-06  0.227E-04    0.68      18.5  T
   6   -966.3414540 -0.677763E-07  0.886E-05    0.68      47.2  T
   7   -966.3414540 -0.115489E-07  0.273E-05    0.68     153.3  T
     SCC iter.                  ...        0 min, 19.428 sec
     gradient                   ...        0 min,  1.988 sec
 * total energy  :  -950.4963739 Eh     change       -0.1165646E-02 Eh
   gradient norm :     0.0254607 Eh/a0  converged?    E=F G=F D=F
   step length   :     2.5588308 a0

........................................................................
.............................. CYCLE   47 ..............................
........................................................................
   1   -966.3422692 -0.966342E+03  0.308E-03    0.68       0.0  T
   2   -966.3422716 -0.232217E-05  0.174E-03    0.68       2.4  T
   3   -966.3422734 -0.181646E-05  0.980E-04    0.68       4.3  T
   4   -966.3422739 -0.524992E-06  0.657E-04    0.68       6.4  T
   5   -966.3422743 -0.455136E-06  0.231E-04    0.68      18.1  T
   6   -966.3422744 -0.764182E-07  0.838E-05    0.68      49.9  T
   7   -966.3422744 -0.940099E-08  0.263E-05    0.68     158.7  T
     SCC iter.                  ...        0 min, 20.801 sec
     gradient                   ...        0 min,  2.010 sec
 * total energy  :  -950.4975222 Eh     change       -0.1148266E-02 Eh
   gradient norm :     0.0230189 Eh/a0  converged?    E=F G=F D=F
   step length   :     2.6885796 a0

........................................................................
.............................. CYCLE   48 ..............................
........................................................................
   1   -966.3559830 -0.966356E+03  0.351E-03    0.68       0.0  T
   2   -966.3559857 -0.269414E-05  0.196E-03    0.68       2.1  T
   3   -966.3559870 -0.128896E-05  0.120E-03    0.68       3.5  T
   4   -966.3559872 -0.130982E-06  0.755E-04    0.68       5.5  T
   5   -966.3559879 -0.732236E-06  0.270E-04    0.68      15.5  T
   6   -966.3559880 -0.127500E-06  0.796E-05    0.68      52.5  T
   7   -966.3559880 -0.792988E-08  0.264E-05    0.68     158.6  T
     SCC iter.                  ...        0 min, 21.902 sec
     gradient                   ...        0 min,  1.981 sec
 * total energy  :  -950.4986891 Eh     change       -0.1166849E-02 Eh
   gradient norm :     0.0182689 Eh/a0  converged?    E=F G=F D=F
   step length   :     2.5284038 a0

........................................................................
.............................. CYCLE   49 ..............................
........................................................................
   1   -966.3887838 -0.966389E+03  0.426E-03    0.68       0.0  T
   2   -966.3887868 -0.301303E-05  0.230E-03    0.68       1.8  T
   3   -966.3887871 -0.263003E-06  0.156E-03    0.68       2.7  T
   4   -966.3887876 -0.546632E-06  0.808E-04    0.68       5.2  T
   5   -966.3887885 -0.831964E-06  0.292E-04    0.68      14.3  T
   6   -966.3887886 -0.154577E-06  0.820E-05    0.68      51.0  T
   7   -966.3887886 -0.838440E-08  0.266E-05    0.68     157.4  T
     SCC iter.                  ...        0 min, 21.296 sec
     gradient                   ...        0 min,  2.025 sec
 * total energy  :  -950.4999092 Eh     change       -0.1220101E-02 Eh
   gradient norm :     0.0132409 Eh/a0  converged?    E=F G=F D=F
   step length   :     1.9478585 a0

........................................................................
.............................. CYCLE   50 ..............................
........................................................................
   1   -966.4227824 -0.966423E+03  0.402E-03    0.68       0.0  T
   2   -966.4227854 -0.304334E-05  0.219E-03    0.68       1.9  T
   3   -966.4227859 -0.455012E-06  0.147E-03    0.68       2.9  T
   4   -966.4227865 -0.629652E-06  0.753E-04    0.68       5.6  T
   5   -966.4227870 -0.515438E-06  0.307E-04    0.68      13.6  T
   6   -966.4227872 -0.156737E-06  0.758E-05    0.68      55.2  T
   7   -966.4227872 -0.792841E-08  0.255E-05    0.68     163.9  T
     SCC iter.                  ...        0 min, 20.775 sec
     gradient                   ...        0 min,  2.023 sec
 * total energy  :  -950.5003742 Eh     change       -0.4650720E-03 Eh
   gradient norm :     0.0185708 Eh/a0  converged?    E=F G=F D=F
   step length   :     1.9282301 a0

........................................................................
.............................. CYCLE   51 ..............................
........................................................................
   1   -966.4422235 -0.966442E+03  0.250E-03    0.68       0.0  T
   2   -966.4422257 -0.221805E-05  0.145E-03    0.68       2.9  T
   3   -966.4422266 -0.872900E-06  0.814E-04    0.68       5.1  T
   4   -966.4422267 -0.463516E-07  0.556E-04    0.68       7.5  T
   5   -966.4422269 -0.248748E-06  0.251E-04    0.68      16.7  T
   6   -966.4422270 -0.918371E-07  0.652E-05    0.68      64.1  T
[...]
   297   6 C      328   1 H                                       1.0781677
   298   6 C      329   1 H                                       1.0783482
   303   6 C      330   1 H                                       1.0780769
   304   6 C      331   1 H                                       1.0777453
   306   7 N      332   1 H                                       1.0145445
   309   6 C      333   1 H                                       1.0838376
   310   6 C      334   1 H                                       1.1063136
   310   6 C      335   1 H                                       1.0984706
   311   7 N      336   1 H                                       1.0097662
   312   6 C      337   1 H                                       1.0853180
   313   6 C      338   1 H                                       1.0806447
   315   6 C      339   1 H                                       1.0781648
   316   6 C      340   1 H                                       1.0783490
   341   6 C      342   6 C                                       1.4091336
   342   6 C      343   6 C                                       1.4184415
   343   6 C      344   6 C                                       1.3685024
   344   6 C      345   6 C                                       1.4211787
   342   6 C      346   7 N                                       1.3626728
   345   6 C      346   7 N                                       1.3699077
   345   6 C      347   6 C                                       1.3998072
   348   6 C      349   6 C                                       1.3414089
   350   6 C      351   7 N                                       1.4651738
   351   7 N      352   6 C                                       1.3704271
   352   6 C      353   6 C                                       1.3448119
   347   6 C      354   6 C                                       1.3953671
   354   6 C      355   6 C                                       1.4517226
   355   6 C      356   6 C                                       1.3493177
   354   6 C      357   7 N                                       1.3620682
   356   6 C      358   6 C                                       1.4493643
   357   7 N      358   6 C                                       1.3481125
   358   6 C      359   6 C                                       1.4101334
   359   6 C      360   6 C                                       1.4091349
   360   6 C      361   6 C                                       1.4184422
   361   6 C      362   6 C                                       1.3685026
   362   6 C      363   6 C                                       1.4211788
   360   6 C      364   7 N                                       1.3626726
   363   6 C      364   7 N                                       1.3699074
   363   6 C      365   6 C                                       1.3998064
   366   6 C      367   6 C                                       1.3414084
   368   6 C      369   7 N                                       1.4651737
   369   7 N      370   6 C                                       1.3704284
   370   6 C      371   6 C                                       1.3448117
   365   6 C      372   6 C                                       1.3953667
   372   6 C      373   6 C                                       1.4517219
   373   6 C      374   6 C                                       1.3493175
   341   6 C      375   6 C                                       1.4101348
   374   6 C      375   6 C                                       1.4493649
   372   6 C      376   7 N                                       1.3620693
   375   6 C      376   7 N                                       1.3481124
   343   6 C      377   1 H                                       1.0780771
   344   6 C      378   1 H                                       1.0777435
   346   7 N      379   1 H                                       1.0145435
   349   6 C      380   1 H                                       1.0838371
   350   6 C      381   1 H                                       1.1063147
   350   6 C      382   1 H                                       1.0984664
   351   7 N      383   1 H                                       1.0097657
   352   6 C      384   1 H                                       1.0853172
   353   6 C      385   1 H                                       1.0806440
   355   6 C      386   1 H                                       1.0781658
   356   6 C      387   1 H                                       1.0783491
   361   6 C      388   1 H                                       1.0780771
   362   6 C      389   1 H                                       1.0777434
   364   7 N      390   1 H                                       1.0145434
   367   6 C      391   1 H                                       1.0838369
   368   6 C      392   1 H                                       1.1063151
   368   6 C      393   1 H                                       1.0984658
   369   7 N      394   1 H                                       1.0097660
   370   6 C      395   1 H                                       1.0853172
   371   6 C      396   1 H                                       1.0806440
   373   6 C      397   1 H                                       1.0781662
   374   6 C      398   1 H                                       1.0783490
   399   6 C      400   6 C                                       1.4091390
   400   6 C      401   6 C                                       1.4184600
   401   6 C      402   6 C                                       1.3685003
   402   6 C      403   6 C                                       1.4211702
   400   6 C      404   7 N                                       1.3626629
   403   6 C      404   7 N                                       1.3699278
   403   6 C      405   6 C                                       1.3997833
   406   6 C      407   6 C                                       1.3414070
   408   6 C      409   7 N                                       1.4651808
   409   7 N      410   6 C                                       1.3704215
   410   6 C      411   6 C                                       1.3448087
   405   6 C      412   6 C                                       1.3953770
   412   6 C      413   6 C                                       1.4517137
   413   6 C      414   6 C                                       1.3493164
   412   6 C      415   7 N                                       1.3620471
   414   6 C      416   6 C                                       1.4493611
   415   7 N      416   6 C                                       1.3481062
   416   6 C      417   6 C                                       1.4100959
   417   6 C      418   6 C                                       1.4091123
   418   6 C      419   6 C                                       1.4184382
   419   6 C      420   6 C                                       1.3685028
   420   6 C      421   6 C                                       1.4211694
   418   6 C      422   7 N                                       1.3626577
   421   6 C      422   7 N                                       1.3698876
   421   6 C      423   6 C                                       1.3998171
   424   6 C      425   6 C                                       1.3414162
   426   6 C      427   7 N                                       1.4651660
   427   7 N      428   6 C                                       1.3704421
   428   6 C      429   6 C                                       1.3448122
   423   6 C      430   6 C                                       1.3953457
   430   6 C      431   6 C                                       1.4517092
   431   6 C      432   6 C                                       1.3493184
   399   6 C      433   6 C                                       1.4101553
   432   6 C      433   6 C                                       1.4493842
   430   6 C      434   7 N                                       1.3620958
   433   6 C      434   7 N                                       1.3480917
   401   6 C      435   1 H                                       1.0780768
   402   6 C      436   1 H                                       1.0777452
   404   7 N      437   1 H                                       1.0145447
   407   6 C      438   1 H                                       1.0838378
   408   6 C      439   1 H                                       1.1063131
   408   6 C      440   1 H                                       1.0984716
   409   7 N      441   1 H                                       1.0097659
   410   6 C      442   1 H                                       1.0853180
   411   6 C      443   1 H                                       1.0806447
   413   6 C      444   1 H                                       1.0781647
   414   6 C      445   1 H                                       1.0783485
   419   6 C      446   1 H                                       1.0780767
   420   6 C      447   1 H                                       1.0777419
   422   7 N      448   1 H                                       1.0145429
   425   6 C      449   1 H                                       1.0838363
   426   6 C      450   1 H                                       1.1063183
   426   6 C      451   1 H                                       1.0984596
   427   7 N      452   1 H                                       1.0097669
   428   6 C      453   1 H                                       1.0853167
   429   6 C      454   1 H                                       1.0806437
   431   6 C      455   1 H                                       1.0781675
   432   6 C      456   1 H                                       1.0783485
   457   6 C      458   6 C                                       1.4091152
   458   6 C      459   6 C                                       1.4184986
   459   6 C      460   6 C                                       1.3684882
   460   6 C      461   6 C                                       1.4211641
   458   6 C      462   7 N                                       1.3626334
   461   6 C      462   7 N                                       1.3699524
   461   6 C      463   6 C                                       1.3997340
   464   6 C      465   6 C                                       1.3414122
   466   6 C      467   7 N                                       1.4651857
   467   7 N      468   6 C                                       1.3704237
   468   6 C      469   6 C                                       1.3448052
   463   6 C      470   6 C                                       1.3954095
   470   6 C      471   6 C                                       1.4516969
   471   6 C      472   6 C                                       1.3493174
   470   6 C      473   7 N                                       1.3619936
   472   6 C      474   6 C                                       1.4493714
   473   7 N      474   6 C                                       1.3481226
   474   6 C      475   6 C                                       1.4099972
   475   6 C      476   6 C                                       1.4090549
   476   6 C      477   6 C                                       1.4184608
   477   6 C      478   6 C                                       1.3684898
   478   6 C      479   6 C                                       1.4211487
   476   6 C      480   7 N                                       1.3626371
   479   6 C      480   7 N                                       1.3698595
   479   6 C      481   6 C                                       1.3998108
   482   6 C      483   6 C                                       1.3414248
   484   6 C      485   7 N                                       1.4651599
   485   7 N      486   6 C                                       1.3704640
   486   6 C      487   6 C                                       1.3448087
   481   6 C      488   6 C                                       1.3953037
   488   6 C      489   6 C                                       1.4516809
   489   6 C      490   6 C                                       1.3493142
   457   6 C      491   6 C                                       1.4101587
   490   6 C      491   6 C                                       1.4494217
   488   6 C      492   7 N                                       1.3621237
   491   6 C      492   7 N                                       1.3480367
   459   6 C      493   1 H                                       1.0780770
   460   6 C      494   1 H                                       1.0777478
   462   7 N      495   1 H                                       1.0145452
   465   6 C      496   1 H                                       1.0838388
   466   6 C      497   1 H                                       1.1063123
   466   6 C      498   1 H                                       1.0984766
   467   7 N      499   1 H                                       1.0097670
   468   6 C      500   1 H                                       1.0853194
   469   6 C      501   1 H                                       1.0806456
   471   6 C      502   1 H                                       1.0781647
   472   6 C      503   1 H                                       1.0783485
   477   6 C      504   1 H                                       1.0780753
   478   6 C      505   1 H                                       1.0777409
   480   7 N      506   1 H                                       1.0145426
   483   6 C      507   1 H                                       1.0838360
   484   6 C      508   1 H                                       1.1063232
   484   6 C      509   1 H                                       1.0984532
   485   7 N      510   1 H                                       1.0097689
   486   6 C      511   1 H                                       1.0853168
   487   6 C      512   1 H                                       1.0806444
   489   6 C      513   1 H                                       1.0781690
   490   6 C      514   1 H                                       1.0783469
   515   6 C      516   6 C                                       1.4088637
   516   6 C      517   6 C                                       1.4187210
   517   6 C      518   6 C                                       1.3682952
   518   6 C      519   6 C                                       1.4213894
   516   6 C      520   7 N                                       1.3626085
   519   6 C      520   7 N                                       1.3700007
   519   6 C      521   6 C                                       1.3993274
   522   6 C      523   6 C                                       1.3414379
   524   6 C      525   7 N                                       1.4651982
   525   7 N      526   6 C                                       1.3703956
   526   6 C      527   6 C                                       1.3448125
   521   6 C      528   6 C                                       1.3959029
   528   6 C      529   6 C                                       1.4519626
   529   6 C      530   6 C                                       1.3491280
   528   6 C      531   7 N                                       1.3610553
   530   6 C      532   6 C                                       1.4496044
   531   7 N      532   6 C                                       1.3490502
   532   6 C      533   6 C                                       1.4085698
   533   6 C      534   6 C                                       1.4078095
   534   6 C      535   6 C                                       1.4189515
   535   6 C      536   6 C                                       1.3681506
   536   6 C      537   6 C                                       1.4214793
   534   6 C      538   7 N                                       1.3630109
   537   6 C      538   7 N                                       1.3696053
   537   6 C      539   6 C                                       1.3996087
   540   6 C      541   6 C                                       1.3414246
   542   6 C      543   7 N                                       1.4651481
   543   7 N      544   6 C                                       1.3704566
   544   6 C      545   6 C                                       1.3448143
   539   6 C      546   6 C                                       1.3953964
   546   6 C      547   6 C                                       1.4517251
   547   6 C      548   6 C                                       1.3492776
   515   6 C      549   6 C                                       1.4100436
   548   6 C      549   6 C                                       1.4495400
   546   6 C      550   7 N                                       1.3619802
   549   6 C      550   7 N                                       1.3480297
   517   6 C      551   1 H                                       1.0780830
   518   6 C      552   1 H                                       1.0777539
   520   7 N      553   1 H                                       1.0145415
   523   6 C      554   1 H                                       1.0838442
   524   6 C      555   1 H                                       1.1062984
   524   6 C      556   1 H                                       1.0984945
   525   7 N      557   1 H                                       1.0097694
   526   6 C      558   1 H                                       1.0853224
   527   6 C      559   1 H                                       1.0806499
   529   6 C      560   1 H                                       1.0781619
   530   6 C      561   1 H                                       1.0783358
   535   6 C      562   1 H                                       1.0780850
   536   6 C      563   1 H                                       1.0777488
   538   7 N      564   1 H                                       1.0145330
   541   6 C      565   1 H                                       1.0838416
   542   6 C      566   1 H                                       1.1063357
   542   6 C      567   1 H                                       1.0984495
   543   7 N      568   1 H                                       1.0097653
   544   6 C      569   1 H                                       1.0853192
   545   6 C      570   1 H                                       1.0806472
   547   6 C      571   1 H                                       1.0781719
   548   6 C      572   1 H                                       1.0783486

 * 4 distinct bonds (by element types)

   Z      Z             #   av. dist./Å        max./Å        min./Å
   1 H    6 C         164     1.0852303     1.1063357     1.0777409
   6 C    6 C         238     1.3786606     1.4519711     1.2234893
   1 H    7 N          36     1.0121590     1.0147121     1.0096478
   6 C    7 N         108     1.3797459     1.4654653     1.3480297


optimized geometry written to: xtbopt.xyz


           -------------------------------------------------
          | TOTAL ENERGY             -950.531392283428 Eh   |
          | GRADIENT NORM               0.000433348272 Eh/α |
          | HOMO-LUMO GAP               0.653136500455 eV   |
           -------------------------------------------------

------------------------------------------------------------------------
 * finished run on 2022/07/28 at 06:07:06.045     
------------------------------------------------------------------------
 total:
 * wall-time:     0 d,  1 h, 48 min, 40.808 sec
 *  cpu-time:     0 d,  1 h, 48 min,  1.186 sec
 * ratio c/w:     0.994 speedup
 SCF:
 * wall-time:     0 d,  0 h, 10 min, 40.612 sec
 *  cpu-time:     0 d,  0 h, 10 min, 36.590 sec
 * ratio c/w:     0.994 speedup
 ANC optimizer:
 * wall-time:     0 d,  1 h, 37 min, 58.784 sec
 *  cpu-time:     0 d,  1 h, 37 min, 23.307 sec
 * ratio c/w:     0.994 speedup

