572
 energy: -950.531392283428 gnorm: 0.000433348272 xtb: 6.5.1 (b24c23e)
C          101.55346545013713        0.08012729256214        0.03311422497755
C          102.15860134288793        1.25575560988312        0.45784473034239
C          101.50223237360662        2.43580280844362        0.90756001090914
C          102.46103836702640        3.35599362403089        1.22594216765449
C          103.73474476816712        2.77214606700422        0.97077852305348
N          103.50086722420801        1.50348540487425        0.51973268550105
C          104.99526531178536        3.35102476190608        1.15310342284767
C          105.02625412858917        4.75643569447636        1.62734627138708
C          104.48080152020817        5.75314199955840        0.91409212711745
C          104.48659476228923        7.18421315889767        1.38545228427339
N          105.45201646120576        7.38187924464175        2.46978351117078
C          105.83212352980370        6.33440449896493        3.26732192675916
C          105.68111625541901        5.05142883944607        2.89361917071342
C          106.21189179801355        2.70436213401089        0.92053708009341
C          107.50750147614663        3.34311238372463        1.06623844909063
C          108.43108940442784        2.41272721080051        0.74830193021123
N          106.36980555697858        1.41688287095720        0.50794420730952
C          107.69857935725904        1.20950701299830        0.40294766797484
C          108.33816911035281        0.01257466741396        0.02500953113577
C          107.70701516564728       -1.18732695219456       -0.35318209551195
C          108.35601828946197       -2.40084065484667       -0.70395631063870
C          107.39243105042942       -3.32091810271258       -1.01168153238775
C          106.12401927558858       -2.69421180364334       -0.86637062268586
N          106.36634008917234       -1.40795644800119       -0.46065414280515
C          104.86463356923393       -3.26921375342289       -1.06897262935720
C          104.84126054950860       -4.68132709478252       -1.51997171574199
C          104.25418144325560       -5.64233842191598       -0.79080536473507
C          104.20543048137014       -7.08047129987346       -1.23637503809296
N          105.18006995247674       -7.33907510040417       -2.29975779718486
C          105.60154152696035       -6.32383633747691       -3.11880225364625
C          105.49410377243089       -5.02830524195556       -2.77476010779949
C          103.64677927466235       -2.60837402120965       -0.87615779881873
C          102.34424192432635       -3.19338759583176       -1.15329949735557
C          101.42826469995948       -2.25444884303801       -0.84044023401220
C          102.17003523179291       -1.09285510275630       -0.38361171045730
N          103.50220994955166       -1.33833900770299       -0.42777165660984
H          100.46801090809068        0.08741803126316        0.02996954627658
H          100.43230296699251        2.55031014440261        0.97995108134987
H          102.30628392298691        4.35041541430064        1.61209289611359
H          104.22901831210100        0.84258541297830        0.27018308191919
H          103.99571071020489        5.57495230752676       -0.03863693257825
H          103.47447505315198        7.47994666827988        1.72023997549025
H          104.76249782824864        7.85342124225030        0.55913877443078
H          105.38473729144556        8.28417822149038        2.91779977081881
H          106.33827786882949        6.62117954978139        4.18357885761672
H          106.03235733909308        4.23869028720530        3.51323329801825
H          107.66557203422236        4.36742847504743        1.36272838069824
H          109.50518870870279        2.50717689617820        0.73480115194788
H          109.42466717743396       -2.54325071229492       -0.71137286699308
H          107.54311339399997       -4.34601267842021       -1.30869652930182
H          105.64163361234336       -0.72658199962035       -0.26022979162676
H          103.77007936916824       -5.42609879383228        0.15436310413312
H          103.18728677991191       -7.33818018748103       -1.58375143615139
H          104.43852792748228       -7.74558131162195       -0.39399183515863
H          105.08096386321225       -8.24692071853261       -2.73070552821000
H          106.10370589008544       -6.64886429663935       -4.02446510643705
H          105.87500317649152       -4.24305279193870       -3.41226472867944
H          102.17830659447341       -4.18305918502123       -1.54750465465739
H          100.35301253138636       -2.30986715060727       -0.91034141982430
C          236.65547924127270       -0.06877835752541       -0.04798541855939
C          236.05173455416545       -1.29043258970734       -0.31582933305477
C          236.70929188831258       -2.52947776118913       -0.55659069388199
C          235.75165875833241       -3.47784970755231       -0.78232842023906
C          234.47759563109824       -2.84699991699334       -0.69794244512000
N          234.70996308759356       -1.53263768677627       -0.40450017977237
C          233.21793609630978       -3.43335873960901       -0.86135293173738
C          233.18853477332991       -4.87599495474384       -1.20618255864290
C          233.74354531882867       -5.34262220118359       -2.33485667718258
C          233.73958167392527       -6.80566311565120       -2.69499104670822
N          232.76627604033274       -7.54786637347117       -1.88957048221964
C          232.37568693184807       -7.08307753804700       -0.66107218599189
C          232.52466582023621       -5.79754173414082       -0.29548212526964
C          232.00065671429917       -2.76108051434438       -0.72432548582907
C          230.70639971957411       -3.37831882007186       -0.95181960785822
C          229.78162387957298       -2.42132371930513       -0.73115855404204
N          231.84092056845984       -1.45184534525398       -0.38803358828665
C          230.51208899049351       -1.21999056662121       -0.37507379908800
C          229.87076500572951       -0.00707305268228       -0.05552982898836
C          230.50026303721378        1.20883610512503        0.27059080362851
C          229.84956407223308        2.42192998763801        0.61965489778141
C          230.81194893440394        3.36494634722768        0.85261983356938
C          232.08128884615132        2.75816065236201        0.64444789473220
N          231.84072032933136        1.45355324638786        0.30114616597108
C          233.33988481565288        3.35373193390766        0.78219030739168
C          233.36108841997913        4.78976015152641        1.15006430304503
C          233.94500822388113        5.21774131479997        2.27955689871797
C          233.99167931496419        6.67315315482793        2.66523745081334
N          233.01837545871882        7.45597570531793        1.89878023004870
C          232.60017414353317        7.02981642217635        0.66481822950733
C          232.70956448033826        5.74927659217489        0.26916462921354
C          234.55869515734713        2.69210863553770        0.59834555730227
C          235.86073205963839        3.33535268043290        0.67948731295913
C          236.77794916447215        2.37368817314692        0.45053259338708
C          236.03747015206446        1.14659038706385        0.21784900052175
N          234.70484675453321        1.37784684566805        0.30455995159255
H          237.74095242040920       -0.07344669868245       -0.04802499754125
H          237.77912688665862       -2.66544416610556       -0.54830158708615
H          235.90740245130701       -4.52561754192930       -0.98198075060382
H          233.98113842461814       -0.83981662992716       -0.27004304315107
H          234.23554952403987       -4.68638030813978       -3.04340154706707
H          234.75014276603602       -7.23492017039802       -2.55921526233214
H          233.47297855351707       -6.93399004065586       -3.75291944312264
H          232.83371008436680       -8.55043648009762       -1.98806597290664
H          231.86331935728768       -7.81197358438582       -0.04127854114777
H          232.16524648012697       -5.43728440569061        0.65786313218643
H          230.55005014932161       -4.40273645038136       -1.24887426478886
H          228.70797428846808       -2.49345745181655       -0.80089336661482
H          228.78065235420971        2.54567476309581        0.68648671291333
H          230.65987586539197        4.39036456061243        1.14780725388636
H          232.56635092141474        0.77071789103149        0.10922729926773
H          234.42794027501466        4.53325316939231        2.96709245141612
H          235.00991289672677        7.07668046994810        2.51010055820532
H          233.75585168828439        6.78965889652810        3.73159697646429
H          233.11650470720232        8.45420634254330        2.01551476586485
H          232.09885236724381        7.78552730008204        0.06848108231381
H          232.33114331173357        5.42172741756789       -0.68876796638075
H          236.02560826512257        4.38340156975497        0.87129532843022
H          237.85330519291890        2.45798880262253        0.42550234038639
C          113.54282526475143       -0.03496257686810        0.01492350984428
C          112.31492976868752       -0.02493410173086        0.01719611864118
C          110.96920801767872       -0.01363814951945        0.01944708055706
C          109.74580046197188        0.00020693276929        0.02228641205820
C          114.88841748853274       -0.04368376910121        0.01389045656521
C          116.11207481889961       -0.05135279233246        0.00887321743654
C          129.59038400747556       -0.03793579058460        0.00074216866361
C          128.36122067119911       -0.03504327792145        0.00449330453427
C          127.01775220096620       -0.03140024745428        0.00673170952441
C          125.79300146505494       -0.02916495193660        0.01140929354869
C          130.93381882536792       -0.04157333247701       -0.00165503180552
C          132.15860947267777       -0.04414434560986       -0.00688120121346
C          145.63990494728324       -0.02766363809842       -0.01892580247111
C          144.41063516918535       -0.02425402248748       -0.01403600648356
C          143.06721153380866       -0.01947385255766       -0.01395562907128
C          141.84233753465409       -0.01588832805278       -0.00879579659564
C          146.98332915702008       -0.03272369405195       -0.01795465004468
C          148.20821720266207       -0.03622012897302       -0.02159916166427
C          161.69235621195077       -0.02345823573054       -0.01082721688454
C          160.46304690604936       -0.01954906497895       -0.00850548598102
C          159.11956882045240       -0.01568654324241       -0.00914975557724
C          157.89465286390205       -0.01278849827151       -0.00677200676161
C          163.03582961553400       -0.02750532107072       -0.01003699758526
C          164.26074273975800       -0.03033872469067       -0.01248767377758
C          177.74589094623002       -0.01322387251058        0.00029755196942
C          176.51658982796110       -0.00930185943809        0.00202489354699
C          175.17311011201033       -0.00554685987086        0.00158196211702
C          173.94819224277040       -0.00279041573226        0.00411330803311
C          179.08936775282265       -0.01706094379070        0.00068029533593
C          180.31429110600808       -0.01970502498084       -0.00177622343181
C          193.79828633589710       -0.00632910086291        0.00865428127787
C          192.56900951640114       -0.00215960911058        0.01035166441348
C          191.22558349862823        0.00219242524090        0.01074300311236
C          190.00069915984611        0.00567423978630        0.01353024258160
C          195.14171116985449       -0.01099900279458        0.00809899874831
C          196.36659682932850       -0.01417503185339        0.00441832489552
C          209.84768432763619        0.00792977722439       -0.00340218039956
C          208.61851937862124        0.00949688146270        0.00137050842208
C          207.27508834460923        0.01387759630676        0.00442311888617
C          206.05029936848530        0.01548691049999        0.00957736869507
C          211.19115382165111        0.00601579328874       -0.00747890823549
C          212.41589105668197        0.00469279324304       -0.01502603407136
C          225.89390922636193        0.02399201807448       -0.05144458062345
C          224.66602811512686        0.03318510112267       -0.04605683482250
C          223.32040545025492        0.03918840891963       -0.04426564600724
C          222.09675247853747        0.04326874991825       -0.03837537608660
C          227.23967403277891        0.01570265155285       -0.05312663408189
C          228.46311037250086        0.00423492631425       -0.05535254267511
C          117.51857516614768       -0.06233061389396        0.00793715324799
C          118.14384865889184       -0.26714706724677        1.25256347451723
C          117.49493056354478       -0.43961266157966        2.50259926390481
C          118.46031707093479       -0.58756847608550        3.46071007244994
C          119.72789303168651       -0.51807861535694        2.82116554707361
N          119.48536762038792       -0.31948368500748        1.48790706740507
C          120.98677917956485       -0.60567226196445        3.42652631203867
C          121.00328278477095       -0.84423288143565        4.89169632789254
C          120.50447777818530       -1.96826612563330        5.42758905179009
C          120.55977043065238       -2.25086421820289        6.90599549014279
N          120.82197371751764       -1.02752655783049        7.66846566993665
C          121.47553449187420        0.02947548465354        7.09075943064574
C          121.57026467672587        0.17889488502563        5.75763110903159
C          122.21293543878035       -0.48750862194999        2.77099355421505
C          123.49654148169994       -0.64191311144953        3.43131469113225
C          124.43893191931937       -0.47977559980485        2.47938411262353
N          122.39659294445411       -0.24766649027422        1.44293902776012
C          123.72915937027868       -0.23275263021746        1.23988722300183
C          124.38901687214596       -0.02192535428195        0.01174576819736
C          123.76258329473023        0.18660607787714       -1.23285387002370
C          124.41126655335371        0.36411778081646       -2.48204016326605
C          123.44564617027775        0.50993280805868       -3.44044755353084
C          122.17816089320020        0.43420566026507       -2.80163606154996
N          122.42131662535203        0.23449394478980       -1.46825942822658
C          120.91943902545997        0.51637327950849       -3.40743909881223
C          120.90114333175015        0.75461898439000       -4.87254908413795
C          121.39392064982941        1.88108941921272       -5.40890444291191
C          121.33421301063123        2.16476191628756       -6.88689975806632
N          121.07068779322189        0.94219314385594       -7.65024280364047
C          120.42428014626930       -0.11831182966076       -7.07104613346139
C          120.33616614058887       -0.27024070665322       -5.73775071210134
C          119.69306055186243        0.39450474281322       -2.75196451667824
C          118.40913133581596        0.54479217735528       -3.41312911719769
C          117.46689460119428        0.38402998582351       -2.46102861728028
C          118.17674922057863        0.14186993136701       -1.22054351888329
N          119.51022774818124        0.15762898572436       -1.42420456456718
H          116.42597995981261       -0.44138667994910        2.64261694050288
H          118.31141902156614       -0.72355077101655        4.51942724680823
H          120.20550217335386       -0.21755381706316        0.78059566493514
H          120.10290290197104       -2.76471968100221        4.81186845327632
H          121.33731611487933       -3.00764697389048        7.12203672044649
H          119.60132843693123       -2.66488834948202        7.24741602877799
H          121.01100920102684       -1.18881252045334        8.64717791831665
H          121.83464438007262        0.77789751289877        7.78991933333483
H          122.02188510158318        1.05764679601566        5.31987349785109
H          123.63463434618347       -0.85829105601713        4.47848496452931
H          125.51178396716338       -0.52474803412056        2.57840427001455
H          125.48024334174630        0.37030498807502       -2.62171837235493
H          123.59444195198736        0.64835705102586       -4.49886639067152
H          121.70137469972738        0.12885259577426       -0.76128184669217
H          121.79271095415052        2.67918449103255       -4.79349590873744
H          120.55540795380473        2.92107868767865       -7.09982719616873
H          122.29128588279259        2.58012454416818       -7.23066441449340
H          120.87513029808052        1.10497012049905       -8.62742935653380
H          120.06490183516790       -0.86705993769212       -7.76972430335282
H          119.89013498237794       -1.15157778382454       -5.29945056897722
H          118.27076731446795        0.75800460449205       -4.46090158085965
H          116.39399849546986        0.42716274076857       -2.56025186581281
C          133.56242598349431       -0.05170384047006       -0.00806104554456
C          134.19011902877284       -0.26353557945903        1.23553891995977
C          133.54305178336799       -0.44359789872531        2.48490199493618
C          134.51011655755568       -0.59345313764714        3.44151141808519
C          135.77648308152044       -0.51772923784678        2.80100009571906
N          135.53172198571104       -0.31366769416232        1.46872299608681
C          137.03629422640427       -0.60452999170368        3.40500091527703
C          137.05398625655914       -0.84786478981326        4.86938611567147
C          136.55931767717533       -1.97534695637678        5.40184039564577
C          136.61646760552941       -2.26262793912793        6.87925707187927
N          136.87531402743227       -1.04103540813164        7.64568073796339
C          137.52487879255312        0.02009136571445        7.07101358330807
C          137.61804843567074        0.17432165802886        5.73833099722084
C          138.26223751098300       -0.48199953873745        2.75006750158047
C          139.54582581572839       -0.63685935349355        3.41022172217626
C          140.48834284972628       -0.47157286888233        2.45891229515338
N          138.44609158710509       -0.23821640730157        1.42260861878675
C          139.77871837549733       -0.22188048370267        1.21999941847628
C          140.43853156477553       -0.00790685719072       -0.00776589462843
C          139.81072599033124        0.20438754670772       -1.25130806539446
C          140.45768226330935        0.38512223991687       -2.50067663254283
C          139.49056833775799        0.53513346795274       -3.45720631712857
C          138.22420481258328        0.45877917267653       -2.81674353565007
N          138.46911817455290        0.25433742956789       -1.48445795012712
C          136.96445811216998        0.54519182720924       -3.42074415356710
C          136.94580028321118        0.78862887284209       -4.88509546801216
C          137.43875980770341        1.91671401161333       -5.41782098140104
C          137.37893197934756        2.20494988608529       -6.89494598045662
N          137.11677064844065        0.98439258789131       -7.66194101290006
C          136.46974288207369       -0.07771823957513       -7.08632098639063
C          136.38072577293272       -0.23343639865964       -5.75353156048959
C          135.73844000102733        0.42238283157745       -2.76580311252624
C          134.45481871855389        0.57705696918335       -3.42596004308264
C          133.51233954724870        0.41159475451701       -2.47464369251555
C          134.22204294121570        0.16207929762277       -1.23579251862101
N          135.55473968027800        0.17860845277106       -1.43844964347375
H          132.47429052602050       -0.44872971570683        2.62621866907365
H          134.36254323476379       -0.73463575119873        4.49972460159388
H          136.25049342560084       -0.20670499847347        0.76075097189487
H          136.16022706898107       -2.77117974797583        4.78371643807647
H          137.39652318818267       -3.01767067021427        7.09226819437654
H          135.65955118036507       -2.68081547395285        7.21989012491433
H          137.06599151131920       -1.20510865411881        8.62361474684337
H          137.88203932706273        0.76735342578043        7.77240395385303
H          138.06646423389068        1.05599185807132        5.30316060758986
H          139.68393639957716       -0.85577727537693        4.45685857898115
H          141.56120303129936       -0.51593434557283        2.55808953019679
H          141.52643880003785        0.39060913251345       -2.64202056305403
H          139.63799801861899        0.67687978204004       -4.51537120140599
H          137.75037340341893        0.14694838177007       -0.77651973638518
H          137.83796561294125        2.71267103117701       -4.79992684409583
H          136.59939938991874        2.96115426444796       -7.10568559436746
H          138.33564221919076        2.62225054135020       -7.23731228040989
H          136.92238700906464        1.14974732249939       -8.63892738616810
H          136.11075368995179       -0.82440019370295       -7.78739943105153
H          135.93412167920494       -1.11583710706041       -5.31797594871785
H          134.31656027771317        0.79599833808317       -4.47256785410927
H          132.43946720450640        0.45577989522665       -2.57376906883767
C          149.61200782341538       -0.04475976958646       -0.02047332609511
C          150.23783595956706       -0.25596133879907        1.22424951936483
C          149.58910927975111       -0.43470093102058        2.47291890373896
C          150.55490862284091       -0.58432837865841        3.43085252962216
C          151.82215951163820       -0.50977458821394        2.79191825023073
N          151.57913398157064       -0.30666725942045        1.45914740099571
C          153.08100380513028       -0.59670632832827        3.39791650889919
C          153.09616432939112       -0.83890674395347        4.86255874068479
C          152.60098085747879       -1.96616172781703        5.39499453340347
C          152.65593468645116       -2.25251597358902        6.87267402219433
N          152.91407322801294       -1.03056187615048        7.63877049885074
C          153.56399602048751        0.03042492949898        7.06429955258360
C          153.65869892413559        0.18399357125844        5.73164520393378
C          154.30835880499373       -0.47531758942771        2.74534438166426
C          155.59045240123967       -0.63011001004713        3.40846428316335
C          156.53516233685525       -0.46593212841708        2.45913357079797
N          154.49526986066158       -0.23273844712089        1.41811960037151
C          155.82840135292005       -0.21709285585579        1.21845559363060
C          156.49081772669450       -0.00456604515110       -0.00815706362555
C          155.86494510029638        0.20641764209383       -1.25292270721223
C          156.51361883841673        0.38533075537805       -2.50161757774619
C          155.54779509312783        0.53438803064290       -3.45961512751290
C          154.28053669914166        0.45931530365513       -2.82075105903604
N          154.52362890085843        0.25649367685219       -1.48790687672255
C          153.02171333148456        0.54566908543653       -3.42680771990173
C          153.00596267721377        0.78729442581300       -4.89153750478126
C          153.50008142877073        1.91467552604812       -5.42466854438199
C          153.44350374073781        2.20087633979451       -6.90231799524177
N          153.18362903675231        0.97910996818582       -7.66815424720906
C          152.53518590377092       -0.08218912264308       -7.09263308172633
C          152.44286078410784       -0.23596572567899       -5.75983918808208
C          151.79432865094716        0.42447669042897       -2.77418278388983
C          150.51222741009343        0.57924683867098       -3.43731346047960
C          149.56753350137240        0.41568006329950       -2.48786145174308
C          150.27433209442731        0.16718454086415       -1.24716372847643
N          151.60747349708581        0.18244627973179       -1.44690232168573
H          148.52016878107315       -0.43915644276645        2.61290208284763
H          150.40592090247068       -0.72461696097797        4.48898706653728
H          152.29868901646458       -0.20066358658351        0.75182833836306
H          152.20307565466518       -2.76251146682492        4.77677143869055
H          153.43546758334077       -3.00765168507267        7.08723807760037
H          151.69841721730106       -2.67024286977716        7.21220118082883
H          153.10371814446688       -1.19414183291355        8.61698573610487
H          153.92017960378845        0.77812763943525        7.76571661409183
H          154.10743524127309        1.06553288702999        5.29654225367542
H          155.72619209742581       -0.84819447874036        4.45558378756136
H          157.60778639811505       -0.51057702594841        2.56071696616909
H          157.58256370773339        0.39028506411854       -2.64155281196203
H          155.69671801887199        0.67468301430429       -4.51776159355017
H          153.80407819205570        0.15026041750021       -0.78061517461239
H          153.89802876029867        2.71140907296180       -4.80696529691904
H          152.66414408588912        2.95646008095196       -7.11590964704040
H          154.40082947666298        2.61807505790012       -7.24306735484655
H          152.99188024238711        1.14292922378755       -8.64591868045750
H          152.17798829149083       -0.82991122601027       -7.79351565223029
H          151.99517402349045       -1.11771709155820       -5.32408244356928
H          150.37642740361431        0.79695481579327       -4.48450055888415
H          148.49490968267469        0.46051170514325       -2.58937350102839
C          165.66457651504436       -0.03822010685664       -0.01091715814465
C          166.29043716651211       -0.24907603440732        1.23387012464629
C          165.64183732672313       -0.42821971057716        2.48255012677356
C          166.60773727956322       -0.57722455174963        3.44048184371125
C          167.87496422486342       -0.50186141004732        2.80157267613326
N          167.63178263564478       -0.29891735163882        1.46878491619105
C          169.13379874955410       -0.58806998044451        3.40767784098615
C          169.14913723798057       -0.83015184125268        4.87235285139089
C          168.65508950044781       -1.95784463406478        5.40489710073667
C          168.71076993034805       -2.24429700379172        6.88253088561559
N          168.96903049780539       -1.02241439704525        7.64871514397442
C          169.61762408097243        0.03921292654540        7.07395970926541
C          169.71120002030440        0.19315281445751        5.74126895470192
C          170.36128550034553       -0.46624277218426        2.75538704995316
C          171.64324450677341       -0.62057733861672        3.41890808877564
C          172.58819477270961       -0.45620319307380        2.46985170910550
N          170.54851487022233       -0.22372100223864        1.42822545583459
C          171.88172382269946       -0.20768433696019        1.22896748388757
C          172.54435820358034        0.00494919341867        0.00251796624129
C          171.91849848119014        0.21580897948883       -1.24227059369970
C          172.56710171480276        0.39500786777957       -2.49094166402624
C          171.60120330656414        0.54391844724866       -3.44889001441332
C          170.33397345194473        0.46845076415693       -2.80999875995512
N          170.57715271223068        0.26554301142520       -1.47720537532473
C          169.07513981275446        0.55454153405827       -3.41612074646860
C          169.05979675585948        0.79651679120557       -4.88081489636350
C          169.55372566875630        1.92422237623833       -5.41344085760610
C          169.49802749568096        2.21054617700772       -6.89109956457984
N          169.23997521628232        0.98855681792927       -7.65718350779202
C          168.59147549511079       -0.07309253913299       -7.08235960156490
C          168.49786649828329       -0.22692257445582       -5.74965859141305
C          167.84765394652115        0.43270429399485       -2.76383085118701
C          166.56569673037549        0.58696629712184       -3.42737071433583
C          165.62074500213015        0.42269713551685       -2.47829788797012
C          166.32721276906832        0.17429453443736       -1.23738790606484
N          167.66042167520189        0.19029333752030       -1.43664836632434
H          164.57289879898664       -0.43336293448760        2.62252827530672
H          166.45885571627508       -0.71763917855221        4.49861640916763
H          168.35121624485919       -0.19246283285764        0.76140874534025
H          168.25774561800853       -2.75453822906093        4.78675487239326
H          169.49057026534302       -2.99928534350870        7.09662462046662
H          167.75350857701301       -2.66230278177500        7.22245750105066
H          169.15970256384080       -1.18615218722605        8.62670318341410