215
 energy: -345.464845326789 gnorm: 0.000998970115 xtb: 6.5.1 (b24c23e)
Co          28.54833510512548        0.17083618636608       -0.64304614869863
C           25.54101554674398        0.55313437530018       -2.02636457389043
C           26.06616664920535        1.61737717747582       -1.32055517168283
C           25.35621916691244        2.83551551476218       -1.07389152546465
C           26.09030814062120        3.53920951308236       -0.17867078364084
C           27.28842617885487        2.78844483657072        0.05867321407960
N           27.24470389845062        1.59870457556758       -0.62070158608358
C           28.38473956862303        3.25262061038275        0.77702279448753
C           29.60542896683492        2.59211876780164        0.73606860690761
C           30.84527225476836        3.18267926505680        1.14083936073529
C           31.82992111744881        2.33972122763872        0.74241702765927
N           29.83277599203092        1.37224311122050        0.14568481951243
C           31.18727627548033        1.20795948780384        0.15346672530914
C           31.86334232375175        0.03525704091715       -0.20798618259250
C           31.17032422535726       -1.16008999565631       -0.44019566012203
C           31.79359563169858       -2.44539135607142       -0.45490211429797
C           30.79544798868035       -3.36105611631057       -0.52031004318694
C           29.56796439196374       -2.62945956967452       -0.61137111993048
C           28.34617642487799       -3.20803731975824       -0.92671626638673
C           28.24527609271261       -4.68670196421200       -0.93189351486526
C           28.03847419532210       -5.38909121832717       -2.11665556830219
C           27.95078111309664       -6.77844492228060       -2.10699315413157
C           27.71263774429709       -7.52685437161782       -3.39068230225111
C           28.06801108799059       -7.46030201204445       -0.90116626226772
C           28.28254771208448       -6.77165433043250        0.29084533529273
C           28.41760058470696       -7.53119382867140        1.58281116691053
C           28.37586927628529       -5.38578381374303        0.26836106267777
C           27.26925456894793       -2.43648207319861       -1.34883846243315
C           26.07942559034222       -2.95743863874200       -1.95547413137476
C           25.35775649638420       -1.89361189849169       -2.38300995731431
C           26.06669828442757       -0.72194927653672       -1.96615851532888
N           27.23589521107342       -1.06655891425463       -1.33859709714373
N           29.81502115385600       -1.27936419403226       -0.53855587798809
C           28.30531033395216        4.54402864228539        1.49922496835965
C           28.05663012927582        5.73447218515161        0.81873011953944
C           27.98613479160331        6.94029463177686        1.50906921225213
C           27.73965157450009        8.22470747484105        0.76449918636378
C           28.16898959181238        6.94847738292336        2.88794343102453
C           28.42880683262786        5.76894261474586        3.58014253422697
C           28.60974621608137        5.78972513862559        5.07379785398557
C           28.49934890891137        4.57009288783219        2.87973118357181
H           24.59824592217715        0.69517700176543       -2.54206012910330
H           24.39924849637668        3.08399610623624       -1.50474289672872
H           25.85651224378646        4.48940322031625        0.27326992435298
H           30.93990453704599        4.13884562875451        1.62928617637098
H           32.89634012568436        2.44683512218265        0.85882885398066
H           32.85702967529941       -2.61142392098882       -0.39124610877123
H           30.87340606503206       -4.43586455583867       -0.54761450259655
H           27.96929086634400       -4.84955886100053       -3.05480028964259
H           28.03342588870687       -8.56479145954630       -3.30233766230831
H           26.64768379456061       -7.51772885212201       -3.63366445437201
H           28.25080711675422       -7.05965421218282       -4.21597925353517
H           27.99756658157446       -8.54310450131120       -0.88711295969715
H           28.51320465391220       -6.85063406232632        2.42852216656072
H           27.54528661919535       -8.16714416020255        1.74241661852470
H           29.30009442276570       -8.17309925868460        1.55185244106507
H           28.53802514862898       -4.83499431444918        1.18835833721643
H           25.84294527540974       -4.00459386073928       -2.05176567487469
H           24.40912192777254       -1.88470342635602       -2.89600703143730
H           27.94083017582974        5.72118649952117       -0.25941859317416
H           27.26720515634438        8.96450668460279        1.41081852217498
H           27.10115423375542        8.05370217661473       -0.10250002239453
H           28.68751054467732        8.63717953680395        0.41121849722851
H           28.11261384760268        7.88651895767002        3.43059395648690
H           27.63686316705923        5.72855106917549        5.56673892534462
H           29.09272464861642        6.71372039330356        5.39261613612202
H           29.21213687118863        4.94357811314664        5.40437390608030
H           28.69240667543267        3.64219678092582        3.40689063255513
Co          60.31765374136131        0.42761691145094       -0.32563541215370
C           63.42367842946570        1.51086600913348       -0.93336559965555
C           62.91214649772600        0.52454953026724       -1.75231717064395
C           63.66413137485891       -0.12212888374727       -2.78408549838496
C           62.88000731096662       -1.11060246809089       -3.27611387629339
C           61.62024269505311       -1.01888471704440       -2.59703356609948
N           61.67172844802097       -0.04542020499843       -1.63061292013678
C           60.47584944702839       -1.71278369464779       -2.96650444485455
C           59.23723358545456       -1.41143092310975       -2.41456243340757
C           57.99094306844319       -1.84987008056379       -2.96562613633367
C           57.01087859355437       -1.25003229681629       -2.24664354212428
N           59.01795750962397       -0.57308368597723       -1.34922727284621
C           57.65859885242332       -0.48947932901911       -1.22525572443008
C           56.97781734840899        0.09802091632037       -0.15564623921310
C           57.65772092653508        0.57885300491721        0.96762091701567
C           57.01796296780164        0.89294041734536        2.20567877809423
C           58.00058557553242        1.22219833038700        3.07927208660506
C           59.23463749752915        1.16487732722306        2.35483203022637
C           60.42949642428048        1.68121106473243        2.83433335632890
C           60.49468220898434        2.12737564491708        4.24741659848190
C           60.61517036320645        3.47774560592704        4.56566324096012
C           60.67363046455387        3.88669167151830        5.89512009463005
C           60.81825323870918        5.34723877293606        6.22808279828111
C           60.61531511865763        2.93258424938868        6.90451549027709
C           60.48932500884516        1.57866501645987        6.60108208688252
C           60.41891861179592        0.56416994641899        7.71031553345378
C           60.42401550628312        1.18263097020429        5.27096876082971
C           61.51899403463603        1.88489060257993        1.99706779352883
C           62.68751609892855        2.63658216335696        2.34947030364934
C           63.47272628845304        2.68326121736540        1.24719552163577
C           62.81813187715191        1.90022260035291        0.24311773070531
N           61.61384299716335        1.43387771796365        0.70617689721321
N           59.01072900584485        0.73460052704840        1.06796222311194
C           60.53737327394339       -2.71383725451911       -4.05741381225225
C           60.93850223501934       -2.34857540137374       -5.34143590917646
C           60.98957588328908       -3.29352941411949       -6.36101399764126
C           61.40325782467377       -2.88685680985804       -7.74974964666914
C           60.63225587435994       -4.61026417178065       -6.08901557247196
C           60.21980622539158       -4.98845825455356       -4.81431030153690
C           59.84939564607628       -6.41905003235741       -4.53018863163077
C           60.17200115520341       -4.03536857916985       -3.80314291629140
H           64.40342934790566        1.91275911158510       -1.16408398530403
H           64.67473110673319        0.13690825620452       -3.05783519838201
H           63.11792659925884       -1.83153541076617       -4.04126240007568
H           57.89159499040134       -2.50684928155841       -3.81434936085818
H           55.94234590494842       -1.32963180085604       -2.36577562894866
H           55.95446148238061        0.84111411605567        2.37543780913840
H           57.90810381058604        1.51938717248148        4.11132220629041
H           60.64251354241499        4.21513188042388        3.77096894291644
H           60.48505348111375        5.55032886828777        7.24583256325420
H           61.86601992803895        5.64504677448551        6.14554722361676
H           60.23817444591391        5.96018604346882        5.53752739945530
H           60.66396783079838        3.24497071874104        7.94264238625945
H           60.40628643981969       -0.45029309091699        7.31240841089433
H           61.27750249454829        0.66848362242781        8.37575252568000
H           59.51448885578399        0.71607487706849        8.30259897472247
H           60.33044845745589        0.13211316003865        5.01851955018430
H           62.86841476227632        3.07769544066324        3.31616586976232
H           64.43055878749252        3.16255602887754        1.12059710899722
H           61.19177806290124       -1.31484038053717       -5.54929610442609
H           61.84834679218470       -3.72622684731111       -8.28429735284340
H           62.12228305242977       -2.06795912961563       -7.71610412521418
H           60.53049650579930       -2.54902957515992       -8.31335002507611
H           60.67131955878434       -5.35095850621372       -6.88116270951166
H           60.74530581063564       -6.99220647863115       -4.28098075223192
H           59.38522248201348       -6.87955201891018       -5.40272131889239
H           59.16005864222922       -6.48251670900913       -3.68817107814823
H           59.86120202027736       -4.31824954040841       -2.80333782996367
C           37.05982528678214        0.01671559835492       -0.22435871325822
C           35.82973745939717        0.01797115388310       -0.22060868749428
C           34.48803739857922        0.01889699601234       -0.21252349326408
C           33.26279534427943        0.02241207977744       -0.19852343827366
C           38.40173663567742        0.02312901522305       -0.22184866486809
C           39.62709849605163        0.02852825075216       -0.21560893422040
C           53.00432151324677        0.12185625282725       -0.16670949961746
C           51.77633611669334        0.12587621205680       -0.17116335322039
C           50.43097396998009        0.12663203737757       -0.17251745487184
C           49.20740052461639        0.12617587513376       -0.17239859525919
C           54.34975265000420        0.11269954203727       -0.15968540091418
C           55.57328773756249        0.09735212716144       -0.15442219465920
Co          44.41530447952415        0.08120437889717       -0.16401754022825
C           41.02698275163437        0.04246519229126       -0.20104516991470
C           41.69506955886209        1.26009350914780       -0.02990036313999
C           41.03604069543044        2.50854688007356        0.18594186909586
C           41.98390078825712        3.47207111944869        0.07631961592295
C           43.21630141142010        2.80704047968957       -0.22146884937803
N           43.03635611696453        1.44282949533415       -0.20851035319407
C           44.38160909854679        3.44664567824531       -0.62060732769498
C           45.55941021957253        2.74479748930421       -0.84738205224185
C           46.77507086170967        3.33081871419535       -1.32484206864885
C           47.74074388039530        2.38740974138677       -1.19707684491283
N           45.76524128346190        1.42887216823235       -0.50820338296906
C           47.10988114862500        1.22733755416864       -0.65308835069789
C           47.80341053128124        0.11424389890905       -0.17082353663884
C           47.13292092263002       -1.00882694229409        0.32202940125297
C           47.78687419859112       -2.14788015786083        0.88276198213898
C           46.83793798310678       -3.10440689648902        1.03635900891733
C           45.61033307348208       -2.54956767365081        0.55236732007047
C           44.44696884590304       -3.27752269022074        0.33557642948309
C           44.45450188224241       -4.73863484880776        0.57092847865619
C           43.55284110709701       -5.30715076649874        1.47021340093628
C           43.55223347459203       -6.67867821585077        1.69916121319007
C           42.59189976475606       -7.28359379623025        2.68727563757017
C           44.46137369495716       -7.48345751627619        1.01939008509618
C           45.36562890993550       -6.93198383335270        0.11585055618937
C           46.35061842526032       -7.81499564325993       -0.60148318627215
C           45.35937115163156       -5.55914597032926       -0.10260593395240
C           43.27517213043076       -2.67002247314468       -0.09450942184648
C           42.06439266567358       -3.36719412079093       -0.40675232099387
C           41.09953720462388       -2.42658821241911       -0.55937580247436
C           41.72619940585710       -1.16040169121532       -0.34992745623441
N           43.06698257964976       -1.31083538797114       -0.13783601156098
N           45.79195681359258       -1.23675518901767        0.18645076421444
C           44.36996692210290        4.91382585806855       -0.81438649037693
C           45.25864845715366        5.72381180899763       -0.10925127685660
C           45.25014442296970        7.10404052474405       -0.28552580864211
C           46.22454947761708        7.96550989321434        0.47139377139538
C           44.34720479570235        7.67139047012519       -1.17820954612724
C           43.45334530707193        6.87600165639529       -1.89101041601933
C           42.49448732940767        7.50411091400210       -2.86594556344762
C           43.46879766849147        5.49901879458121       -1.70473691892068
H           39.98222880376780        2.61838364666141        0.38561080936255
H           41.86811981312716        4.53850017354067        0.18158481644869
H           46.86808639361331        4.33548951033859       -1.70398108782631
H           48.79000317608721        2.45918997590924       -1.43447943727231
H           48.83836265863831       -2.19707801609862        1.11592491995341
H           46.95041780801751       -4.09940604354042        1.43520967439376
H           42.85916871318598       -4.66793436870448        2.00531571132341
H           42.28817038336484       -8.28186385392368        2.37109478917120
H           43.07037161020023       -7.36882343514199        3.66558517367418
H           41.70330626311772       -6.66173608242313        2.79648704982042
H           44.46341988911131       -8.55471316985038        1.19273510366264
H           46.75178172230999       -7.31611799993394       -1.48351544503724
H           45.87956610440254       -8.74962549989141       -0.90783980785804
H           47.18305276081492       -8.05835053724427        0.06254351837244
H           46.04652635470774       -5.12047425454209       -0.81775983772488
H           41.97411903927924       -4.43779452367655       -0.49322963124487
H           40.05351236262499       -2.56273764328606       -0.78242610943028
H           45.94638955259786        5.27274772196253        0.59765093257751
H           45.88832851054238        9.00185780536851        0.50121836015613
H           47.20161126898456        7.93650962522728       -0.01616000137309
H           46.34696906545262        7.60412011781826        1.49292238470568
H           44.33598881360728        8.74723165138344       -1.31989440116954
H           42.09914420715366        8.43986682225341       -2.46932414186514
H           41.66313115340920        6.83331570995941       -3.08234648582445
H           43.00898208066145        7.72544722328805       -3.80368995391726
H           42.78874046776950        4.86783911260536       -2.26615483184381
