320
 energy: -588.932136569673 gnorm: 0.000786733558 xtb: 6.5.1 (b24c23e)
C           73.02715739765965       -0.05337599796993       -0.07257947115090
C           73.63539343734713       -1.30129318568573       -0.03513397436375
C           72.98331945342393       -2.56532674632183        0.01388087502826
C           73.94563966782329       -3.53507281401091        0.02933133694422
C           75.21693772910578       -2.89442711037060       -0.02055586590353
N           74.97893241126340       -1.54996549743862       -0.04711829400805
C           76.48026520172898       -3.49678402715032       -0.02283782227846
C           77.69794164813428       -2.81174583583027       -0.03474879476980
C           78.99287055351398       -3.46434418315968       -0.10981264689733
C           79.91631401839683       -2.48120220470334       -0.10866217465290
N           77.85655430558995       -1.46012646316483       -0.00819077030813
C           79.18547832515178       -1.23028122869356       -0.03970597624062
C           79.82448654362508        0.02514392161292       -0.01971383036538
C           79.19046468200317        1.28141128578337       -0.01267818148177
C           79.83261333871638        2.54621251952732        0.05566349502633
C           78.86558548489168        3.51285382442425        0.05018737325789
C           77.60080434163616        2.86682270451676       -0.02952176640638
C           76.33821784383649        3.46989619809542       -0.04357584095730
C           76.30352750930811        4.95097940639720       -0.02280356808264
C           76.89699168055550        5.69108648338381       -1.04914544493381
C           76.85428034706474        7.07295049321924       -1.02821580831228
C           76.22314664639575        7.74188907232531        0.02228458807992
C           76.20337199676018        9.22415103381204        0.00006647166844
O           75.57638500525564        9.76852179899821        1.05385116601953
O           76.69523834090809        9.89778779660579       -0.86919588818762
C           75.63313509484635        7.00812186745782        1.05194153726370
C           75.67203329432283        5.62521264656303        1.02596720532707
C           75.12023104703459        2.78188582762347       -0.07238775105110
C           73.81838816851241        3.42681468934008       -0.15394744196925
C           72.90228207196937        2.43805290570611       -0.16322360293659
C           73.64314327803758        1.19064744222614       -0.09612207512868
N           74.97596733278689        1.43611878221709       -0.05352217632695
N           77.84876783673246        1.52007427595656       -0.05775405836709
C           76.50756885832281       -4.97895311854738       -0.02003679585704
C           75.92659415271598       -5.69726996682448       -1.06837873990411
C           75.94540270213909       -7.08100331141826       -1.06893733213557
C           76.54241009038337       -7.77062879838550       -0.01327565654381
C           76.58032326686183       -9.25192189570515        0.03710741600368
O           76.00369728865729       -9.83971560705096       -1.02223990896284
O           77.07299890470254       -9.88980636451857        0.93233321323119
C           77.12378335681422       -7.05717580815655        1.03666303168323
C           77.10922718679778       -5.67457731920884        1.03209704010986
H           71.94195064703972       -0.06099836101551       -0.08408398708060
H           71.91392199073681       -2.70099041303790        0.03975564611856
H           73.79420407037883       -4.60107684277469        0.07989828050199
H           75.70352984250820       -0.84027346468128       -0.06940108303709
H           79.15182143542691       -4.52860127380476       -0.17238810613961
H           80.98929417157687       -2.56887777748014       -0.16423237252535
H           80.89932594279414        2.69000422180961        0.11387569137695
H           79.01230991564350        4.57893140130202        0.10894265125476
H           77.37403899124878        5.17423681088162       -1.87417715049012
H           77.30612404876582        7.65288707478244       -1.82549082272156
H           75.60742908218302       10.73492688677079        0.96451944061491
H           75.14573061654023        7.52297738452127        1.87140911153461
H           75.22422786815805        5.05564890809780        1.83247621691675
H           73.65341735561877        4.49062344047311       -0.21174877938748
H           71.82756027758448        2.51316887909570       -0.21711247742514
H           77.12758109694120        0.80705985724575       -0.09146462724823
H           75.47388887718174       -5.16203750724686       -1.89553423130626
H           75.49754307145844       -7.63035791540962       -1.88856181121040
H           76.07061619569748      -10.80230221735674       -0.91362840448214
H           77.58301486904881       -7.60337557077201        1.85328869974495
H           77.54955106071802       -5.12244756096421        1.85452350472906
C          123.42383615240348        0.04986271013918       -0.05992871152951
C          122.83066441865797        1.28504294780019        0.16550724153171
C          123.49762710093761        2.51883116645429        0.40811416351029
C          122.54715251934691        3.48684406469084        0.56894296812864
C          121.26825175060549        2.87800866259193        0.41579082729454
N          121.49034439656020        1.54994409677476        0.18683387871018
C          120.01218350490524        3.48956854416527        0.49374636603401
C          118.78725114565951        2.82830924105284        0.36563186958683
C          117.50001465283589        3.50057089345165        0.37199655417196
C          116.56579681235732        2.53766831557477        0.23216211234570
N          118.61448735232351        1.48905488856147        0.20311738362685
C          117.28249198006536        1.28058423555266        0.13441895849376
C          116.63198001557465        0.03693443550866        0.03025422788368
C          117.25191113071362       -1.22060221420544       -0.08138497179591
C          116.59492113859594       -2.47704262426156       -0.16527205978636
C          117.54979171774880       -3.44464167778185       -0.31203306312573
C          118.82094060570363       -2.80632648761268       -0.33378545344103
C          120.07477028350840       -3.41251883828306       -0.47207034577451
C          120.08881788573261       -4.87918143299984       -0.68051349107126
C          119.44974330184417       -5.44246119527183       -1.78878630136265
C          119.47286919812197       -6.81035404751949       -1.98801398469531
C          120.13052051248081       -7.64270224853287       -1.08020248648732
C          120.12842055306605       -9.10255582533589       -1.33784710711288
O          120.78927607437552       -9.81250278218499       -0.41087586620110
O          119.59281080822028       -9.62573186886661       -2.28175835688616
C          120.76600461935419       -7.08641130871465        0.03043188006754
C          120.74581025032511       -5.71653748255132        0.22516216227393
C          121.29962939896508       -2.73733498845772       -0.43588674951681
C          122.59224654806759       -3.37301903224565       -0.64204017037098
C          123.51890164476912       -2.40124632608209       -0.52395915914579
C          122.79332908494790       -1.17132194423563       -0.25838648374987
N          121.45924007791447       -1.40968794118854       -0.22424266672086
N          118.59001238044185       -1.46587016968355       -0.17583686918293
C          119.99821533428175        4.95184789135526        0.73504732154749
C          120.60521342953525        5.82729819334854       -0.16908611053544
C          120.59950260742735        7.19204104582888        0.06082317565915
C          119.98869517634611        7.70394867055969        1.20596984562862
C          119.96259512654984        9.15632688111385        1.50224237574472
O          120.57655107819787        9.90477858862526        0.57328917438502
O          119.44714047819393        9.64257572028489        2.47654754600610
C          119.38006677301388        6.83308319115051        2.11188161127856
C          119.38266735768568        5.47060318128524        1.87765122233010
H          124.50896351399379        0.04749830891076       -0.07935006347351
H          124.56841666401945        2.63535230066849        0.45848924749072
H          122.71158396515779        4.53041244714075        0.78289336079947
H          120.75708645004369        0.86144205497785        0.05477269613539
H          117.35348659821489        4.56511885458931        0.45669677050353
H          115.49346943167153        2.64309313263217        0.19518428142181
H          115.52677604006124       -2.61473499349127       -0.11704474836531
H          117.39075585030395       -4.50766822536897       -0.39087822009355
H          118.95241314804306       -4.79718153929586       -2.50409249389405
H          118.98542031363930       -7.25266729670316       -2.84993019068706
H          120.74201880050364      -10.75195827771206       -0.65180676947966
H          121.27394172406494       -7.72898332196386        0.73983386416758
H          121.22866516590280       -5.28602486299435        1.09513901817951
H          122.74432380886158       -4.41773849647239       -0.86036612065257
H          124.59142650443574       -2.47612052576187       -0.61154367584031
H          119.31887159411031       -0.76075055681004       -0.14060558326342
H          121.06786690922071        5.43183559469635       -1.06638340972842
H          121.06814822122591        7.86453557865126       -0.64789978391271
H          120.51441227825845       10.83667893447877        0.83886333175659
H          118.91013747753557        7.24141228071388        2.99988007192652
H          118.92193451135205        4.79480988220129        2.58911799459733
C           81.23443840473050        0.03957006327459       -0.00301181420319
C           82.45120722274656        0.04843505480219        0.01554892497619
C           92.15077540435807        0.11293838398967        0.10059135810402
C           93.36877890497976        0.11700013224561        0.11189865597120
C          103.08504282519687        0.07651619140086        0.12339086608239
C          104.30352611764442        0.06260298847738        0.11831265681594
C          114.00380075813783        0.03136204526298        0.04768250092042
C          115.22008861637022        0.03473218725979        0.04103635685053
C           83.86025027305681        0.05998757403810        0.03347027333820
C           84.48524617181948        1.17980748552112       -0.54658983791609
C           83.83981909061274        2.26749985741751       -1.18930826030285
C           84.80435061725470        3.14450828412140       -1.60454204185409
C           86.06816923554527        2.61991598141571       -1.21962427477641
N           85.82535231084293        1.42647397932370       -0.59476770494537
C           87.32674274802993        3.19383856685295       -1.43991315941642
C           88.55389072352325        2.62532710523213       -1.09386903552516
C           89.82927123854144        3.29889472101761       -1.26092731311900
C           90.77441172139041        2.43809987538701       -0.83018155885303
N           88.74466547920986        1.39145499277982       -0.55075491416522
C           90.07673178068075        1.24335253684462       -0.39889375207797
C           90.74294211668060        0.10248489846212        0.09286741815630
C           90.11739147500198       -1.06021568336210        0.58359698174705
C           90.76149544111921       -2.24073856133988        1.03518781769995
C           89.79583195604518       -3.11582352391285        1.45132361165703
C           88.53156811567121       -2.49223792176009        1.26879806390783
C           87.27332650483642       -3.03072203658458        1.56568944770241
C           87.26550681503126       -4.36642789141806        2.21015834797040
C           86.64809452875123       -5.45136941157145        1.58190019154766
C           86.64296583028501       -6.69603774220567        2.18395923376043
C           87.24978867019388       -6.87860442652030        3.42799018720052
C           87.21576153313858       -8.23166794996899        4.03426649879116
O           87.81669289180222       -8.29821304418017        5.23164086032051
O           86.70297693870580       -9.19333363030429        3.52133648488111
C           87.86536607253498       -5.79835743594704        4.06070441981378
C           87.87499860017670       -4.55477904362810        3.45333248597598
C           86.04369053481997       -2.42135087734792        1.30812136352068
C           84.76403133854203       -2.98795076054263        1.69649804010340
C           83.81879898097250       -2.12764478974991        1.26537814980380
C           84.52136939505471       -1.03476802372997        0.62272160273778
N           85.85554251899073       -1.23010299242711        0.67778133164621
N           88.77611505105877       -1.25791195285771        0.72872959200953
C           87.33795633864327        4.51975244189747       -2.10386825393174
C           86.70676423047304        5.61743592563395       -1.51262817617994
C           86.71871112863458        6.85007965886931       -2.13914758253193
C           87.35628271923706        7.00724601120432       -3.37116534113210
C           87.33739219210311        8.34750771714360       -4.00568709564167
O           87.97625252231123        8.39193090071415       -5.18422019955735
O           86.80629875015650        9.31771188976042       -3.52856270977666
C           87.98681820726847        5.91430839710082       -3.96640190533573
C           87.97872147399644        4.68303718515498       -3.33489411325504
H           82.77408144032913        2.35617998225237       -1.32411238248584
H           84.65490572585757        4.06759503938716       -2.14023414976752
H           86.54386398173207        0.80988906712928       -0.23035694889131
H           89.96078014631212        4.30016695539503       -1.63776402053143
H           91.84174820986044        2.58171812110266       -0.78490051154395
H           91.82719755457651       -2.39970679652691        1.02869513817416
H           89.94424098607156       -4.11065861662469        1.83826487600322
H           86.18658042468721       -5.31410152285723        0.61068729643933
H           86.17063320219030       -7.54347215780341        1.69934017037018
H           87.75146221170009       -9.21034838463983        5.55835753419672
H           88.33424782121362       -5.93443083960082        5.02808040435370
H           88.34214327039075       -3.71271830376935        3.95166793348677
H           84.62915212174728       -3.90940144978895        2.23915113231464
H           82.74841991386572       -2.19677009322314        1.37307929455139
H           88.05793617269774       -0.59053243248146        0.46798945034529
H           86.22258116622720        5.50139586254975       -0.54957666623556
H           86.23591305827577        7.70754702037766       -1.68328974407501
H           87.92096306377523        9.29737292322361       -5.53072500425525
H           88.48045285400353        6.03101350754567       -4.92390975832441
H           88.45803138132183        3.83054830473817       -3.80275505185107
C           94.77627007322043        0.12380217472169        0.12085193456499
C           95.41392782010874        1.05270191566944       -0.72432059086912
C           94.78735341541945        1.94481536700450       -1.63121596022571
C           95.76313707205304        2.70231392526035       -2.21985425606349
C           97.01548450551985        2.29737112933995       -1.68328662253638
N           96.75557029127962        1.28494168696243       -0.79951976868895
C           98.27734192224725        2.82757356831804       -1.98292658117354
C           99.49751385411035        2.35898384502151       -1.49157955696877
C          100.77091197040016        3.00889985338732       -1.74460173661219
C          101.71239444990093        2.24730378403960       -1.14982767061711
N           99.68476319926197        1.24573312536055       -0.73037612665447
C          101.01504158429330        1.13691884978982       -0.53415494043118
C          101.67757722028411        0.08656283782037        0.13433080335401
C          101.03741530689138       -0.96435231645593        0.82084235647743
C          101.66053466510247       -2.06689879000413        1.45849392733272
C          100.68452175470965       -2.81545026736039        2.05786616671466
C           99.43460829550250       -2.18807334271869        1.80514753187787
C           98.17466332254531       -2.60228682737556        2.25644687245862
C           98.15491938449358       -3.76924647725728        3.17016923176268
C           97.45052398008740       -4.92610615495006        2.82505484730089
C           97.43229877331601       -6.01322147923407        3.67899152856363
C           98.11407245154848       -5.96338033401486        4.89636529072758
C           98.06126337630134       -7.15286367731272        5.78021894640792
O           98.75346309136792       -7.00579427879038        6.91961044099728
O           97.46101800681365       -8.16501221086854        5.52229525975010
C           98.81759900060176       -4.81066179496216        5.24669398677722
C           98.83870928019998       -3.72552368024993        4.38817316878939
C           96.95325524771633       -2.01477568474037        1.92109321100025
C           95.67862187167474       -2.42304429619618        2.48424193691523
C           94.73693375604853       -1.66386109400012        1.88663913186329
C           95.43664139054650       -0.79022371054732        0.96671515573371
N           96.76706387332744       -1.00473759937576        1.02782055833932
N           99.69622222804483       -1.08630447114393        1.03585959360683
C           98.30156006271079        3.98478570269705       -2.90881655646078
C           97.61875401210986        5.16312532672100       -2.59437488334239
C           97.64254185995279        6.23734739061346       -3.46459316085818
C           98.34495842236669        6.15286994016407       -4.66820139093004
C           98.33487527261615        7.32889820730378       -5.57132615111253
O           99.04426514825985        7.14821613588944       -6.69525795650895
O           97.75229502438928        8.35783687980472       -5.34078406864764
C           99.02851417461777        4.97915569107516       -4.98718349322302
C           99.00741973264039        3.90709253891877       -4.11262500525249
H           93.72647973895720        1.98959738470981       -1.81454308569583
H           95.62839871934055        3.46576423142421       -2.96842536365524
H           97.46252329683979        0.77679877675486       -0.27886384651763
H          100.90338531217861        3.93189748574715       -2.28532070700282
H          102.77643103149349        2.41145771207219       -1.10361145796132
H          102.71939381236271       -2.26466624743693        1.44800048352900
H          100.81706006762427       -3.72857809184273        2.61466493279967
H           96.93115879110081       -4.97119075898067        1.87461443709136
H           96.89171588234642       -6.91554821173959        3.41508045518956
H           98.67053120609708       -7.82283629118175        7.43776484590756
H           99.34476679492018       -4.76599961850444        6.19233242059644
H           99.37323993184853       -2.82458555248395        4.66781625632539
H           95.54491402362503       -3.17467416980959        3.24514419786121
H           93.67141459152836       -1.66503481969409        2.04961359408827
H           98.99098414163052       -0.45203839572793        0.67610576284268
H           97.08458770157699        5.23721600659712       -1.65388252865043
H           97.11920701494802        7.15624726345593       -3.22402409627660
H           98.99001587451457        7.95855137416508       -7.22752156759999
H           99.57310093695159        4.90810882968005       -5.92125876675376
H           99.52729056767264        2.99026372894784       -4.36667795661405
C          105.71119078954069        0.05623990954677        0.10313499818888
C          106.34008682640557        0.93595225802182       -0.80039220300921
C          105.70270940194193        1.77366711219837       -1.75075979520376
C          106.66918959764226        2.50354080306455       -2.38702936163457
C          107.92764321177219        2.13549904282171       -1.83836148458742
N          107.67982743071859        1.17061186319172       -0.89907230163324
C          109.18363188215369        2.65198897666565       -2.18138209929124
C          110.40976621047055        2.21205699034959       -1.67763592534398
C          111.68542736599660        2.82783164412961       -1.99892321095629
C          112.63050531628114        2.09904542965806       -1.37015990537393
N          110.59816671100063        1.15408883992847       -0.84392180077374
C          111.93114270725329        1.04682777202833       -0.65951431356494
C          112.59301268403952        0.03235339706425        0.05660847773908
C          111.96857902221126       -0.99490663082792        0.78665567687493
C          112.61166271811858       -2.04461574416420        1.49227618825999
C          111.64653052533457       -2.78036122856455        2.12419108370387
C          110.38554247431573       -2.19232357192393        1.83187664960711
C          109.13012043077121       -2.59392877554600        2.30579913945971
C          109.11789754968824       -3.72392568084053        3.26524092316447
C          108.42214801145172       -4.89807681173796        2.96358469948857
C          108.41428095444786       -5.95392048573513        3.85600159880652
C          109.09704597868668       -5.85456802057202        5.06990286976391
C          109.05828710011369       -7.01284822745944        5.99451322549379
O          109.74927428086491       -6.81814913740563        7.12799417163965
O          108.46993903686499       -8.04051972214383        5.77317366491117
C          109.78933570903382       -4.68318812655700        5.37822397085617
C          109.80069886068695       -3.62972453996098        4.48083231731327
C          107.90639398042737       -2.01850889114418        1.95743695077241
C          106.63892267451088       -2.39569162255820        2.55662696785815
C          105.69316974415116       -1.65033666923025        1.94832044437601
C          106.38186953521920       -0.82001087361096        0.98128809076922
N          107.71161341034234       -1.04290817959308        1.02800164525434
N          110.62904776202195       -1.13091754380773        1.00313918330516
C          109.19450042773386        3.75545374035321       -3.17103004489081
C          108.52096537000888        4.95176832538812       -2.90872926801406
C          108.53464574847192        5.97834108850181       -3.83481615631332
C          109.21693123501976        5.82689169805254       -5.04351914871743
C          109.19837768928095        6.95404499950536       -6.00642464711785
O          109.88771724691968        6.71033664986283       -7.13133562727642
O          108.62619123957329        7.99782962037245       -5.82083500436552
C          109.88918825801035        4.63403978138101       -5.31149322562270
C          109.87857296135905        3.60994322039938       -4.38097041897832
H          104.64112617337554        1.80043665695048       -1.93155027113482
H          106.52480760571602        3.22424138487202       -3.17514650661656
H          108.39466879730054        0.69784068075910       -0.35635819993761
H          111.81731393461048        3.70559426456225       -2.61047398509971
H          113.69928375790859        2.24065129348255       -1.37078423608114
H          113.67687404131409       -2.20951364421358        1.50998914077759
H          111.79377624835128       -3.65674252244128        2.73393019179911
H          107.90152926284115       -4.98147234286290        2.01641821816395
H          107.88176651448319       -6.87007382942071        3.62535190495271
H          109.67375378099821       -7.61676901724633        7.67512463975627
H          110.31593863956569       -4.59917658517987        6.32151005836345
H          110.32697416272597       -2.71451810692196        4.72784928816794
H          106.51339679952561       -3.11765720265077        3.34711525895923
H          104.63133650140341       -1.63507404836788        2.13149108653245
H          109.91279619374060       -0.52769056493518        0.61292442639492
H          108.00227182728767        5.07763273058300       -1.96508432912325
H          108.01924552490632        6.91133371388153       -3.63476562415482
H          109.82662827692567        7.49143236162690       -7.70491656749509
H          110.41728285443449        4.51053351705994       -6.24956783650856
H          110.38997959481219        2.67830317891326       -4.59508525426701
