166
 energy: -290.900764015480 gnorm: 9.866004743359 xtb: 6.5.1 (b24c23e)
Zn          16.13429700000000        0.02814500000000        0.02953600000000
C           12.76064000000000       -0.08148700000000       -0.08051600000000
C           13.43354600000000       -0.89627100000000       -0.89896800000000
C           12.80484500000000       -1.82669400000000       -1.83349500000000
C           13.76566800000000       -2.46800000000000       -2.47767800000000
C           15.04879000000000       -1.97429000000000       -1.98182300000000
N           14.85460400000000       -0.97872900000000       -0.98184500000000
C           16.23702800000000       -2.40516300000000       -2.41458400000000
C           17.53671200000000       -1.91374400000000       -1.92093700000000
C           18.81639500000000       -2.41193800000000       -2.42106100000000
C           19.77214499999999       -1.77069800000000       -1.77695000000000
N           17.69033100000000       -1.00480600000000       -1.00811800000000
C           19.10161900000000       -0.85495800000000       -0.85742800000000
C           19.71034900000000       -0.00854600000000       -0.00732800000000
C           18.96253500000000        0.89738500000000        0.90241100000000
C           19.53394000000000        1.74436900000000        1.75300900000000
C           18.47184900000000        2.44172800000000        2.45340800000000
C           17.32549100000000        1.97560600000000        1.98531700000000
N           17.53796500000000        0.97898800000000        0.98439300000000
C           16.01019600000000        2.44601200000000        2.45789800000000
C           14.84332300000000        1.98859200000000        1.99856600000000
C           13.53550700000000        2.43789500000000        2.45005000000000
C           12.65447900000000        1.74326000000000        1.75243600000000
C           13.40138800000000        0.85447000000000        0.85956500000000
N           14.68273700000000        0.99124900000000        0.99678400000000
H           11.67752900000000       -0.10401200000000       -0.10306800000000
H           11.74342700000000       -1.97640600000000       -1.98382200000000
H           13.61200300000000       -3.22397300000000       -3.23698100000000
H           16.25672600000000       -3.16964700000000       -3.18242500000000
H           18.96727500000000       -3.16806800000000       -3.18035700000000
H           20.83381800000000       -1.91748300000000       -1.92415000000000
H           20.59357100000000        1.89662000000000        1.90590500000000
H           18.59165700000000        3.20083700000000        3.21582300000000
H           15.99356600000000        3.21090200000000        3.22618700000000
H           13.31176800000000        3.18497500000000        3.20051800000000
H           11.57882200000000        1.82621500000000        1.83593300000000
Zn          72.81250599999998       -0.06049300000000       -0.00474100000000
C           76.18616299999998        0.09465900000000       -0.01239900000000
C           75.51325700000000        1.24811000000000       -0.06971300000000
C           76.14195800000000        2.56521100000000       -0.13510000000000
C           75.18113500000000        3.47307100000000       -0.18020400000000
C           73.89801300000001        2.77420100000000       -0.14553200000000
N           74.09219899999999        1.36487500000000       -0.07554900000000
C           72.70977499999999        3.38413300000000       -0.17580300000000
C           71.41009099999998        2.68844300000000       -0.14122300000000
C           70.13040800000000        3.39350300000000       -0.17603700000000
C           69.17465799999999        2.48574000000000       -0.13094100000000
N           71.25647200000000        1.40184300000000       -0.07744100000000
C           69.84518399999999        1.18959800000000       -0.06677600000000
C           69.23645399999999       -0.00854600000000       -0.00732800000000
C           69.98426800000000       -1.29084900000000        0.05619800000000
C           69.41286299999999       -2.48975200000000        0.11563000000000
C           70.47495400000000       -3.47690300000000        0.16461100000000
C           71.62131200000000       -2.81712300000000        0.13191800000000
N           71.40883800000000       -1.40637800000000        0.06194600000000
C           72.93660600000000       -3.48309400000000        0.16505000000000
C           74.10348000000000       -2.83564400000000        0.13298400000000
C           75.41129599999999       -3.47180900000000        0.16470600000000
C           76.29232399999999       -2.48854500000000        0.11595200000000
C           75.54541500000001       -1.23027300000000        0.05337300000000
N           74.26406600000000       -1.42378700000000        0.06286500000000
H           77.26927400000000        0.12649600000000       -0.01392900000000
H           77.20337599999999        2.77711200000000       -0.14558700000000
H           75.33479999999999        4.54321700000000       -0.23332700000000
H           72.69007699999999        4.46632100000000       -0.22951600000000
H           69.97952799999999        4.46376100000000       -0.22904800000000
H           68.11298499999999        2.69337100000000       -0.14108400000000
H           68.35323200000001       -2.70525900000000        0.12631000000000
H           70.35514599999999       -4.55146300000000        0.21792700000000
H           72.95323700000000       -4.56588300000000        0.21882300000000
H           75.63503500000000       -4.52943200000000        0.21727600000000
H           77.36798100000000       -2.60609400000000        0.12191200000000
C           22.48941599999999        0.00127400000000       -0.00045800000000
C           23.94764200000000       -0.02056200000000       -0.01833200000000
C           25.08157000000000       -0.04131600000000       -0.01982200000000
C           26.44295200000000       -0.05390600000000       -0.02201400000000
C           27.71717100000000       -0.04359900000000       -0.02677900000000
C           28.90563300000000       -0.02480100000000       -0.03293500000000
C           30.25799400000000       -0.00001700000000       -0.01706700000000
C           31.35826200000000        0.00127400000000       -0.00045800000000
C           39.99751900000000        0.00127400000000       -0.00045800000000
C           41.45574600000000       -0.02056200000000       -0.01833200000000
C           42.58967400000000       -0.04131600000000       -0.01982200000000
C           43.95105600000000       -0.05390600000000       -0.02201400000000
C           45.22527400000000       -0.04359900000000       -0.02677900000000
C           46.41373700000000       -0.02480100000000       -0.03293500000000
C           47.76609800000000       -0.00001700000000       -0.01706700000000
C           48.86636500000000        0.00127400000000       -0.00045800000000
C           57.50562300000000        0.00127400000000       -0.00045800000000
C           58.96384900000000       -0.02056200000000       -0.01833200000000
C           60.09777699999999       -0.04131600000000       -0.01982200000000
C           61.45915899999999       -0.05390600000000       -0.02201400000000
C           62.73337799999999       -0.04359900000000       -0.02677900000000
C           63.92184000000000       -0.02480100000000       -0.03293500000000
C           65.27420100000001       -0.00001700000000       -0.01706700000000
C           66.37446799999999        0.00127400000000       -0.00045800000000
Zn          35.67420700000000       -0.04586800000000       -0.04052000000000
C           32.24075500000000        0.00835400000000        0.00769400000000
C           32.90728800000000        0.88178700000000        0.78492500000000
C           32.28297500000000        1.87377800000000        1.66761400000000
C           33.24134700000000        2.55234400000000        2.27149100000000
C           34.52255599999999        2.03211600000000        1.80862400000000
N           34.33046500000000        0.97653800000000        0.86930900000000
C           35.70494099999999        2.49716800000000        2.22250000000000
C           37.01461600000000        1.99398000000000        1.77476700000000
C           38.28125900000000        2.53890800000000        2.25977500000000
C           39.25343900000000        1.87347600000000        1.66760900000000
N           37.19059299999999        1.03453900000000        0.92091200000000
C           38.60580800000000        0.89581800000000        0.79751000000000
C           39.23485700000000        0.00835400000000        0.00769400000000
C           38.50493400000000       -0.95718200000000       -0.85161100000000
C           39.09167700000000       -1.84798100000000       -1.64448500000000
C           38.04160600000000       -2.59530600000000       -2.30949100000000
C           36.88742600000000       -2.11191600000000       -1.87915800000000
N           37.08173699999999       -1.05578500000000       -0.93922600000000
C           35.58234800000000       -2.62190000000000       -2.33283200000000
C           34.40316499999999       -2.15422900000000       -1.91658100000000
C           33.11605300000000       -2.65617600000000       -2.36311000000000
C           32.20948400000000       -1.94054100000000       -1.72631600000000
C           32.91717400000000       -0.97813400000000       -0.87005800000000
N           34.20467900000000       -1.10021700000000       -0.97876300000000
H           31.22560500000000        2.04450100000000        1.81947900000000
H           33.08608300000000        3.35267700000000        2.98366500000000
H           35.71135000000000        3.30683200000000        2.94299500000000
H           38.41240400000000        3.34132800000000        2.97389500000000
H           40.31124299999999        2.04286600000000        1.81839600000000
H           40.15398199999999       -1.99908200000000       -1.77906100000000
H           38.17419700000000       -3.39788700000000       -3.02376600000000
H           35.58387700000000       -3.43201500000000       -3.05369300000000
H           32.92155200000000       -3.45164500000000       -3.07087900000000
H           31.14012200000000       -2.06151500000000       -1.83388800000000
Zn          53.18230999999999       -0.04586800000000       -0.04052000000000
C           49.74885800000000        0.00835400000000        0.00769400000000
C           50.41539200000000        0.88178700000000        0.78492500000000
C           49.79107800000000        1.87377800000000        1.66761400000000
C           50.74945000000000        2.55234400000000        2.27149100000000
C           52.03066000000000        2.03211600000000        1.80862400000000
N           51.83856900000000        0.97653800000000        0.86930900000000
C           53.21304400000000        2.49716800000000        2.22250000000000
C           54.52271900000000        1.99398000000000        1.77476700000000
C           55.78936199999999        2.53890800000000        2.25977500000000
C           56.76154200000000        1.87347600000000        1.66760900000000
N           54.69869600000000        1.03453900000000        0.92091200000000
C           56.11391199999999        0.89581800000000        0.79751000000000
C           56.74296100000000        0.00835400000000        0.00769400000000
C           56.01303700000000       -0.95718200000000       -0.85161100000000
C           56.59978000000000       -1.84798100000000       -1.64448500000000
C           55.54970900000000       -2.59530600000000       -2.30949100000000
C           54.39552900000000       -2.11191600000000       -1.87915800000000
N           54.58984000000000       -1.05578500000000       -0.93922600000000
C           53.09045099999999       -2.62190000000000       -2.33283200000000
C           51.91126800000000       -2.15422900000000       -1.91658100000000
C           50.62415600000000       -2.65617600000000       -2.36311000000000
C           49.71758800000000       -1.94054100000000       -1.72631600000000
C           50.42527700000000       -0.97813400000000       -0.87005800000000
N           51.71278200000000       -1.10021700000000       -0.97876300000000
H           48.73370900000000        2.04450100000000        1.81947900000000
H           50.59418700000000        3.35267700000000        2.98366500000000
H           53.21945300000000        3.30683200000000        2.94299500000000
H           55.92050700000000        3.34132800000000        2.97389500000000
H           57.81934600000000        2.04286600000000        1.81839600000000
H           57.66208500000000       -1.99908200000000       -1.77906100000000
H           55.68230000000000       -3.39788700000000       -3.02376600000000
H           53.09198000000000       -3.43201500000000       -3.05369300000000
H           50.42965600000000       -3.45164500000000       -3.07087900000000
H           48.64822599999999       -2.06151500000000       -1.83388800000000
166
 energy: -294.431678012654 gnorm: 1.897480695006 xtb: 6.5.1 (b24c23e)
Zn          16.13496928985846        0.02808191663408        0.02947281503665
C           12.76076791622370       -0.07909620746837       -0.07811459502874
C           13.43560128343018       -0.89703965575599       -0.89974001980148
C           12.80427332276535       -1.82593157677873       -1.83272915287044
C           13.76678881992182       -2.46837392002394       -2.47805356854462
C           15.04764625424787       -1.97296838874144       -1.98049543711699
N           14.85149210383554       -0.98099980737715       -0.98412612164055
C           16.24025034999827       -2.40492894340554       -2.41434895602570
C           17.53501847373760       -1.91597121171423       -1.92317371737610
C           18.81463556533066       -2.41298035019234       -2.42210786156315
C           19.77282979176791       -1.76962383377562       -1.77587171542680
N           17.69173618349704       -1.00419540450789       -1.00750310597283
C           19.10264537216226       -0.85490556664815       -0.85737610871991
C           19.70741050808878       -0.00691639950897       -0.00570089797205
C           18.96156793360767        0.89420011215277        0.89921200047938
C           19.53406014723157        1.74762070672768        1.75627462036406
C           18.47675677467742        2.44208607510446        2.45376752962533
C           17.32141710689043        1.97391928703266        1.98362361140212
N           17.53942747444428        0.98035117074959        0.98576269878827
C           16.01296590414339        2.44527640134211        2.45715885642210
C           14.84241249355280        1.98815046545751        1.99812260540844
C           13.53676115859965        2.43829606346761        2.45045272910603
C           12.65310888895147        1.74202471265846        1.75119537415823
C           13.39795761829564        0.85300727784253        0.85809618754075
N           14.68350676876674        0.99287725226083        0.99841920236306
H           11.67753365789452       -0.10386576220339       -0.10292113640036
H           11.74343279629894       -1.97610009415758       -1.98351475456513
H           13.61243655683997       -3.22395380203255       -3.23696177166854
H           16.25695370064738       -3.16963463377959       -3.18241269884060
H           18.96690542969298       -3.16811323119367       -3.18040246663467
H           20.83380823602137       -1.91708742229518       -1.92375278942709
H           20.59353154684961        1.89665519253156        1.90594010981972
H           18.59186109191766        3.20077371165230        3.21575934938787
H           15.99389413125300        3.21082933873052        3.22611386824224
H           13.31219507988505        3.18492728495052        3.20046997784605
H           11.57877353383239        1.82594787820650        1.83566463574198
Zn          72.81184397819101       -0.06040311949582       -0.00474533594852
C           76.18603261414260        0.09127914374336       -0.01223116165424
C           75.51120647220448        1.24919567115933       -0.06976701010837
C           76.14252897425106        2.56413489881678       -0.13504653597000
C           75.18001788639450        3.47359977060285       -0.18023037899651
C           73.89916319043313        2.77232074580759       -0.14543852609985
N           74.09530319227558        1.36809249341136       -0.07570866553618
C           72.70653731377584        3.38379554786724       -0.17578610047241
C           71.41179495668599        2.69160803800594       -0.14138033309603
C           70.13215548514275        3.39497399599984       -0.17611025384002
C           69.17397456438293        2.48424432646798       -0.13086642014180
N           71.25501188978967        1.40091429177065       -0.07739566979713
C           69.84408989691212        1.18956722645136       -0.06677334755983
C           69.23859209178814       -0.01081681244578       -0.00721251905293
C           69.98514290695638       -1.28638267370405        0.05597744172890
C           69.41273955376815       -2.49436605672497        0.11585890920553
C           70.47004580589790       -3.47740514219687        0.16463575030442
C           71.62537786673172       -2.81473671503497        0.13179991970438
N           71.40734011419337       -1.40826681568098        0.06203953072089
C           72.93383983240182       -3.48204915960578        0.16499788933455
C           74.10438759268108       -2.83502048465012        0.13295311513596
C           75.41004665815458       -3.47237570966558        0.16473403300192
C           76.29369281835322       -2.48680124171473        0.11586547495169
C           75.54884159383423       -1.22820438653814        0.05327051249559
N           74.26329424524532       -1.42608712422415        0.06297914355431
H           77.26926835020684        0.12628909990383       -0.01391870430639
H           77.20336910670397        2.77667871110860       -0.14556548845116
H           75.33436615758751        4.54318877180846       -0.23332563467106
H           72.68984824713151        4.46630143064267       -0.22951491282496
H           69.97989764660113        4.46382175188957       -0.22905111124254
H           68.11300174082804        2.69280242568255       -0.14105522998281
H           68.35327619764803       -2.70530313921377        0.12631205985778
H           70.35494189347604       -4.55137069086152        0.21792234547275
H           72.95290806254428       -4.56577852976473        0.21881782395265
H           75.63460774133179       -4.52936346514674        0.21727253534738
H           77.36802828803691       -2.60571561849801        0.12189317185002
C           22.49645625262826        0.00115881965171       -0.00053628406504
C           23.92489079890206       -0.02020621007838       -0.01822790583008
C           25.09978240923443       -0.04159498813004       -0.01983834851875
C           26.43784966813850       -0.05389479084160       -0.02202182026072
C           27.71074839642941       -0.04366894904387       -0.02676512787915
C           28.91209892616998       -0.02466582458420       -0.03293196550272
C           30.22137692515814       -0.00027678100342       -0.01762355607743
C           31.27896261766668       -0.00036122653103       -0.00192151974609
C           40.18808782133112       -0.00201076832218       -0.00401829473966
C           41.44848571677061       -0.02058807647851       -0.01849327963611
C           42.60621935181033       -0.04154187924334       -0.01978051290301
C           43.94823956901289       -0.05389704927846       -0.02203660141792
C           45.21763989665309       -0.04368281673733       -0.02676424211244
C           46.42104098362308       -0.02466620693711       -0.03293006586453
C           47.72907498356543       -0.00027792887928       -0.01763034639465
C           48.78712643475034       -0.00033636466256       -0.00190347232763
C           57.69661636314144       -0.00201050595047       -0.00402065119951
C           58.95599612384670       -0.02059599250960       -0.01849974385348
C           60.11507219698975       -0.04154009776114       -0.01978392871292
C           61.45491945946239       -0.05389944676256       -0.02203532462887
C           62.72784481758880       -0.04368734782018       -0.02673041184178
C           63.92717970856956       -0.02470826922702       -0.03296225063854
C           65.25833145826493       -0.00004843131965       -0.01739024153342
C           66.39455070565434        0.00129025854913       -0.00015175319508
Zn          35.67473403296513       -0.04587966912486       -0.04053036172273
C           32.34207810328554        0.00660772679602        0.00644967490796
C           32.91880938730676        0.88686683059198        0.78947597947282
C           32.28204952246756        1.87183051736684        1.66588076727953
C           33.24335009327680        2.55290301781668        2.27198792999167
C           34.52095998248271        2.03129668728072        1.80789290361143
N           34.32716612289210        0.97919715258071        0.87167437866486
C           35.70850068277467        2.49685714135215        2.22222286412594
C           37.01315800469729        1.99783361824592        1.77819563556843
C           38.27798941976520        2.54024630363287        2.26096568395739
C           39.25438923235149        1.87075484154394        1.66518873005657
N           37.19292179549007        1.03364611893742        0.92011583038691
C           38.59175746647297        0.90344476325533        0.80431430537154
C           39.05876649225317        0.00723690293369        0.00724342222086
C           38.49340914003445       -0.95871852918043       -0.85296881625614
C           39.09219491230694       -1.85041956022850       -1.64665347952733
C           38.04583483731601       -2.59568639712993       -2.30983003996607
C           36.88373487353417       -2.11047053865451       -1.87787105885791
N           37.08311173663385       -1.05752818415592       -0.94077893106277
C           35.58480723636796       -2.62108859421321       -2.33211046957704
C           34.40241065481126       -2.15408243080164       -1.91645283605917
C           33.11746628156394       -2.65663447595479       -2.36351850123444
C           32.20786443934564       -1.93882234874430       -1.72478712487570
C           32.92058620836452       -0.97953647962785       -0.87128089308411
N           34.20577651743670       -1.10221886012067       -0.98054532629114
H           31.22556658492027        2.04404680058671        1.81907523154277
H           33.08651114074414        3.35262679178751        2.98362036791851
H           35.71154202563927        3.30681281112581        2.94297847920866
H           38.41203856579811        3.34133554025762        2.97390177451717
H           40.31123201681593        2.04236828195628        1.81795334132984
H           40.15395798391215       -1.99906152007234       -1.77904252557040
H           38.17442697921354       -3.39778022768982       -3.02367108825303
H           35.58418143003838       -3.43192524164955       -3.05361279074426
H           32.92196270684121       -3.45156006901366       -3.07080336018125
H           31.14003311835120       -2.06114308452383       -1.83355685811341
Zn          53.18285192384667       -0.04588450936371       -0.04053439976662
C           49.85010436010927        0.00656959901783        0.00641940499932
C           50.42712713289460        0.88691947199269        0.78952563550336
C           49.79015146045329        1.87184976948428        1.66589762165647
C           50.75144916651500        2.55289970345756        2.27198490526251
C           52.02912436831242        2.03136475095143        1.80795263820382
N           51.83513086813884        0.97916117199468        0.87164108735423
C           53.21654101755459        2.49683492458069        2.22220306410106
C           54.52127047623004        1.99782088765225        1.77818455270956
C           55.78611500284003        2.54023743778864        2.26095776436717
C           56.76248019339702        1.87077920239685        1.66521035660153
N           54.70101779193322        1.03366514253999        0.92013318290750
C           56.09984199874977        0.90339405959829        0.80426818716876
C           56.56675678359133        0.00727829565015        0.00728042531824
C           56.00148896881125       -0.95870096841122       -0.85295177720396
C           56.60028129409326       -1.85043701507307       -1.64666916221148
C           55.55395418856934       -2.59568548697254       -2.30982936680260
C           54.39182754223629       -2.11047191605006       -1.87787241849395
N           54.59120620362174       -1.05753439920738       -0.94078453473387
C           53.09287231990834       -2.62106573440523       -2.33209021562167
C           51.91058231954910       -2.15412316592460       -1.91648945953829
C           50.62552734713576       -2.65662501339788       -2.36351004795869
C           49.71598102128037       -1.93887344825444       -1.72483273423925
C           50.42886287911684       -0.97954557439389       -0.87128756281439
N           51.71379356095876       -1.10220580999401       -0.98053416858568
H           48.73367061169138        2.04404556122469        1.81907414998132
H           50.59461453660826        3.35262719903215        2.98362084161712
H           53.21964372456190        3.30681242107221        2.94297833402403
H           55.92014120003790        3.34133386032976        2.97390026816843
H           57.81933089469312        2.04237012877699        1.81795506020688
H           57.66205726324708       -1.99906247331158       -1.77904331308062
H           55.68252916868034       -3.39777959677557       -3.02367048216807
H           53.09228344552221       -3.43192556288064       -3.05361287583982
H           50.43006643068853       -3.45156078776204       -3.07080397090665
H           48.64813702874552       -2.06114298053921       -1.83355679306459
166
 energy: -295.048147963452 gnorm: 0.995785787765 xtb: 6.5.1 (b24c23e)
Zn          16.13747646928818        0.02693185941153        0.02832513344915
C           12.76172195801235       -0.07062440389926       -0.06960469930216
C           13.44057349435095       -0.89826246253475       -0.90096691910771
C           12.80309275300622       -1.82288972721356       -1.82967316269979
C           13.77121611127618       -2.46915481214056       -2.47883732725585
C           15.04567161193480       -1.96976055955109       -1.97727248344803
N           14.83785166167522       -0.99109174995533       -0.99426496813254
C           16.25200054651047       -2.40360113866850       -2.41301546907991
C           17.53016460613652       -1.92459648629706       -1.93183294224794
C           18.80797254766173       -2.41709872433834       -2.42624299393804
C           19.77377295299747       -1.76620316787650       -1.77244099173282
N           17.69928151185222       -1.00432877129645       -1.00762536253012
C           19.10746613687839       -0.85417518658175       -0.85665401117609
C           19.69119820502414        0.00099811500892        0.00216659644967
C           18.95809025136375        0.88632560533170        0.89129572503057
C           19.53488648307902        1.75868595413488        1.76738675593273
C           18.49386314721529        2.44278868961367        2.45447425648941
C           17.31200456993009        1.96803069893061        1.97771442294070
N           17.54520284737400        0.98509892613007        0.99053793106273
C           16.02392757799245        2.44085407140888        2.45271650226711
C           14.84061370685911        1.98723424021763        1.99720314719891
C           13.54035082223567        2.43806947205912        2.45022573221085
C           12.64697790413548        1.73691118826463        1.74606041121502
C           13.38437609417872        0.84860339001055        0.85367490267807
N           14.68240851357578        0.99950277166524        1.00507076371812
H           11.67795700380197       -0.10218868628080       -0.10123634059405
H           11.74321025289306       -1.97345964763540       -1.98086235270665
H           13.61619419204279       -3.22401159466459       -3.23702001082449
H           16.25952820049026       -3.16915871723053       -3.18193589357118
H           18.96396568575778       -3.16942821158997       -3.18172307563278
H           20.83391278764651       -1.91382201653955       -1.92047463762931
H           20.59412683609209        1.89798281963831        1.90727192027097
H           18.59492340416415        3.20078562744749        3.21577132684444
H           15.99790484847315        3.20902132469080        3.22429696716958
H           13.31580812638765        3.18451024284005        3.20005112073822
H           11.57683803617544        1.82376974124473        1.83347731984621
Zn          72.80934291896476       -0.05878253845139       -0.00482147210868
C           76.18506844863923        0.07929831170038       -0.01163304844033
C           75.50624429550714        1.25092401587922       -0.06985083502634
C           76.14371163519458        2.55983787754852       -0.13482986262761
C           75.17559997072641        3.47470041605948       -0.18028291867472
C           73.90114935977830        2.76773842355135       -0.14520785783735
N           74.10891974638773        1.38238291040987       -0.07641273433949
C           72.69471598824551        3.38184597225427       -0.17568499785785
C           71.41661447859300        2.70368935009532       -0.14198123729354
C           70.13881145072126        3.40079976681143       -0.17639872459089
C           69.17299316755317        2.47955850726410       -0.13062586452859
N           71.24693699190681        1.40069955110123       -0.07739420779734
C           69.83835354298768        1.18844072421912       -0.06670158326246