      -----------------------------------------------------------      
     |                   =====================                   |     
     |                           x T B                           |     
     |                   =====================                   |     
     |                         S. Grimme                         |     
     |          Mulliken Center for Theoretical Chemistry        |     
     |                    University of Bonn                     |     
      -----------------------------------------------------------      

   * xtb version 6.5.1 (b24c23e) compiled by 'conda@728c89f4b128' on 2022-07-12

   xtb is free software: you can redistribute it and/or modify it under
   the terms of the GNU Lesser General Public License as published by
   the Free Software Foundation, either version 3 of the License, or
   (at your option) any later version.
   
   xtb is distributed in the hope that it will be useful,
   but WITHOUT ANY WARRANTY; without even the implied warranty of
   MERCHANTABILITY or FITNESS FOR A PARTICULAR PURPOSE.  See the
   GNU Lesser General Public License for more details.
   
   Cite this work as:
   * C. Bannwarth, E. Caldeweyher, S. Ehlert, A. Hansen, P. Pracht,
     J. Seibert, S. Spicher, S. Grimme, WIREs Comput. Mol. Sci., 2020, 11,
     e01493. DOI: 10.1002/wcms.1493
   
   for GFN2-xTB:
   * C. Bannwarth, S. Ehlert and S. Grimme., J. Chem. Theory Comput., 2019,
     15, 1652-1671. DOI: 10.1021/acs.jctc.8b01176
   for GFN1-xTB:
   * S. Grimme, C. Bannwarth, P. Shushkov, J. Chem. Theory Comput., 2017,
     13, 1989-2009. DOI: 10.1021/acs.jctc.7b00118
   for GFN0-xTB:
   * P. Pracht, E. Caldeweyher, S. Ehlert, S. Grimme, ChemRxiv, 2019, preprint.
     DOI: 10.26434/chemrxiv.8326202.v1
   for GFN-FF:
   * S. Spicher and S. Grimme, Angew. Chem. Int. Ed., 2020, 59, 15665-15673.
     DOI: 10.1002/anie.202004239
   
   for ALPB and GBSA implicit solvation:
   * S. Ehlert, M. Stahn, S. Spicher, S. Grimme, J. Chem. Theory Comput.,
     2021, 17, 4250-4261. DOI: 10.1021/acs.jctc.1c00471
   
   for DFT-D4:
   * E. Caldeweyher, C. Bannwarth and S. Grimme, J. Chem. Phys., 2017,
     147, 034112. DOI: 10.1063/1.4993215
   * E. Caldeweyher, S. Ehlert, A. Hansen, H. Neugebauer, S. Spicher,
     C. Bannwarth and S. Grimme, J. Chem. Phys., 2019, 150, 154122.
     DOI: 10.1063/1.5090222
   * E. Caldeweyher, J.-M. Mewes, S. Ehlert and S. Grimme, Phys. Chem. Chem. Phys.
     2020, 22, 8499-8512. DOI: 10.1039/D0CP00502A
   
   for sTDA-xTB:
   * S. Grimme and C. Bannwarth, J. Chem. Phys., 2016, 145, 054103.
     DOI: 10.1063/1.4959605
   
   in the mass-spec context:
   * V. Asgeirsson, C. Bauer and S. Grimme, Chem. Sci., 2017, 8, 4879.
     DOI: 10.1039/c7sc00601b
   * J. Koopman and S. Grimme, ACS Omega 2019, 4, 12, 15120-15133.
     DOI: 10.1021/acsomega.9b02011
   
   for metadynamics refer to:
   * S. Grimme, J. Chem. Theory Comput., 2019, 155, 2847-2862
     DOI: 10.1021/acs.jctc.9b00143
   
   for SPH calculations refer to:
   * S. Spicher and S. Grimme, J. Chem. Theory Comput., 2021, 17, 1701-1714
     DOI: 10.1021/acs.jctc.0c01306
   
   with help from (in alphabetical order)
   P. Atkinson, C. Bannwarth, F. Bohle, G. Brandenburg, E. Caldeweyher
   M. Checinski, S. Dohm, S. Ehlert, S. Ehrlich, I. Gerasimov, C. Hölzer
   A. Katbashev, J. Koopman, C. Lavigne, S. Lehtola, F. März, M. Müller,
   F. Musil, H. Neugebauer, J. Pisarek, C. Plett, P. Pracht, F. Pultar,
   J. Seibert, P. Shushkov, S. Spicher, M. Stahn, M. Steiner, T. Strunk,
   J. Stückrath, T. Rose, and J. Unsleber
   
 * started run on 2022/07/29 at 22:08:32.828     

           -------------------------------------------------
          |                Calculation Setup                |
           -------------------------------------------------

          program call               : xtb Fe_Ph3OH_C6_4.xyz --gfn 1 --opt -T 48
          hostname                   : cx3-15-15.cx3.hpc.ic.ac.uk
          coordinate file            : Fe_Ph3OH_C6_4.xyz
          omp threads                :                     1

   ID    Z sym.   atoms
    1   26 Fe     1, 63, 143, 204
    2    6 C      2-6, 8-11, 13, 15, 17-20, 22-27, 29-32, 34, 36, 38-42,
                  64-68, 70-73, 75, 77, 79-82, 84-89, 91-94, 96, 98, 100-104,
                  125-142, 144-148, 150-153, 155, 157, 159-162, 164-169,
                  171-174, 176, 178, 180-184, 205-209, 211-214, 216, 218,
                  220-223, 225-230, 232-235, 237, 239, 241-245
    3    7 N      7, 21, 28, 43, 69, 83, 90, 105, 149, 163, 170, 185, 210,
                  224, 231, 246
    4    8 O      12, 14, 16, 33, 35, 37, 74, 76, 78, 95, 97, 99, 154, 156,
                  158, 175, 177, 179, 215, 217, 219, 236, 238, 240
    5    1 H      44-62, 106-124, 186-203, 247-264

molecular fragmentation (1/2 indicates fragments):
111111111111111111111111111111111111111111111111111111111111112222222222
222222222222222222222222222222222222222222222222222222222222222222222222
222222222222222222222222222222222222222222222222222222222222222222222222
222222222222222222222222222222222222222222222222
# atoms in fragment 1/2:    62   202
 fragment masses (1/2) :      611.36     2048.27
CMA distance (Bohr)    :  62.893
constraining FC (au)   :  0.0500
########################################################################
[WARNING] Please study the warnings concerning your input carefully
-1- prog_main_parseArguments: Unknown option '-T' provided
########################################################################

           -------------------------------------------------
          |                 G F N 1 - x T B                 |
           -------------------------------------------------

        Reference                      10.1021/acs.jctc.7b00118
      * Hamiltonian:
        H0-scaling (s, p, d)           1.850000    2.250000    2.000000
        zeta-weighting                 0.000000
      * Dispersion:
        s8                             2.400000
        a1                             0.630000
        a2                             5.000000
        s9                             0.000000
      * Repulsion:
        kExp                           1.500000
        rExp                           1.000000
      * Coulomb:
        alpha                          2.000000
        third order                    atomic
        anisotropic                    false
      * Halogen bond correction:
        rad-scale                      1.300000
        damping                        0.440000


          ...................................................
          :                      SETUP                      :
          :.................................................:
          :  # basis functions                 932          :
          :  # atomic orbitals                 928          :
          :  # shells                          532          :
          :  # electrons                       914          :
          :  # halogen bonds                     0          :
          :  max. iterations                   250          :
          :  Hamiltonian                  GFN1-xTB          :
          :  restarted?                      false          :
          :  GBSA solvation                  false          :
          :  PC potential                    false          :
          :  electronic temp.          300.0000000     K    :
          :  accuracy                    1.0000000          :
          :  -> integral cutoff          0.2500000E+02      :
          :  -> integral neglect         0.1000000E-07      :
          :  -> SCF convergence          0.1000000E-05 Eh   :
          :  -> wf. convergence          0.2000000E-04 e    :
          :  Broyden damping             0.4000000          :
          ...................................................

 iter      E             dE          RMSdq      gap      omega  full diag
   1   -483.1761525 -0.483176E+03  0.119E+01    0.05       0.0  T
   2   -271.1432705  0.212033E+03  0.137E+01    0.01       1.0  T
   3   -375.4611293 -0.104318E+03  0.959E+00    0.07       1.0  T
   4   1043.8844683  0.141935E+04  0.165E+01    0.03       1.0  T
   5   3278.7056990  0.223482E+04  0.219E+01    0.01       1.0  T
   6   -119.2486709 -0.339795E+04  0.121E+01    0.01       1.0  T
   7   -422.8405837 -0.303592E+03  0.717E+00    0.05       1.0  T
   8    540.0357354  0.962876E+03  0.129E+01    0.06       1.0  T
   9   -189.6474214 -0.729683E+03  0.885E+00    0.01       1.0  T
  10   -467.8143031 -0.278167E+03  0.556E+00    0.01       1.0  T
  11   -442.4816819  0.253326E+02  0.633E+00    0.02       1.0  T
  12   -473.1094141 -0.306277E+02  0.488E+00    0.07       1.0  T
  13   -462.1915484  0.109179E+02  0.660E+00    0.10       1.0  T
  14   -453.1133220  0.907823E+01  0.653E+00    0.13       1.0  T
  15   -464.7904444 -0.116771E+02  0.662E+00    0.04       1.0  T
  16   -493.9985202 -0.292081E+02  0.465E+00    0.06       1.0  T
  17   -494.8086262 -0.810106E+00  0.513E+00    0.01       1.0  T
  18   -516.2428688 -0.214342E+02  0.344E+00    0.01       1.0  T
  19   -501.1626556  0.150802E+02  0.484E+00    0.02       1.0  T
  20   -496.0163662  0.514629E+01  0.496E+00    0.01       1.0  T
  21   -499.6479284 -0.363156E+01  0.485E+00    0.08       1.0  T
  22   -500.3094120 -0.661484E+00  0.473E+00    0.04       1.0  T
  23   -499.9825323  0.326880E+00  0.473E+00    0.02       1.0  T
  24   -499.1621628  0.820370E+00  0.475E+00    0.00       1.0  T
  25   -499.0900389  0.721239E-01  0.480E+00    0.00       1.0  T
  26   -500.5774736 -0.148743E+01  0.466E+00    0.04       1.0  T
  27   -480.5050798  0.200724E+02  0.595E+00    0.10       1.0  T
  28   -489.4216429 -0.891656E+01  0.544E+00    0.04       1.0  T
  29   -480.9122891  0.850935E+01  0.595E+00    0.17       1.0  T
  30   -501.7681729 -0.208559E+02  0.472E+00    0.04       1.0  T
  31   -510.1519466 -0.838377E+01  0.405E+00    0.08       1.0  T
  32   -513.4781465 -0.332620E+01  0.368E+00    0.04       1.0  T
  33   -511.9456092  0.153254E+01  0.384E+00    0.00       1.0  T
  34   -513.1230978 -0.117749E+01  0.374E+00    0.04       1.0  T
  35   -511.1391000  0.198400E+01  0.383E+00    0.12       1.0  T
  36   -510.8328531  0.306247E+00  0.384E+00    0.11       1.0  T
  37   -514.2572933 -0.342444E+01  0.351E+00    0.06       1.0  T
  38   -516.1097622 -0.185247E+01  0.324E+00    0.08       1.0  T
  39   -517.0301803 -0.920418E+00  0.311E+00    0.07       1.0  T
  40   -523.5944610 -0.656428E+01  0.227E+00    0.01       1.0  T
  41   -525.4066450 -0.181218E+01  0.199E+00    0.05       1.0  T
  42   -525.8313475 -0.424702E+00  0.187E+00    0.03       1.0  T
  43   -524.2148951  0.161645E+01  0.216E+00    0.01       1.0  T
  44   -525.2589066 -0.104401E+01  0.197E+00    0.00       1.0  T
  45   -524.9508747  0.308032E+00  0.197E+00    0.05       1.0  T
  46   -524.3865807  0.564294E+00  0.210E+00    0.02       1.0  T
  47   -526.2097634 -0.182318E+01  0.171E+00    0.02       1.0  T
  48   -519.9699273  0.623984E+01  0.266E+00    0.05       1.0  T
  49   -526.2095662 -0.623964E+01  0.167E+00    0.06       1.0  T
  50   -527.6886597 -0.147909E+01  0.136E+00    0.02       1.0  T
  51   -524.0263225  0.366234E+01  0.210E+00    0.01       1.0  T
  52   -526.0130154 -0.198669E+01  0.173E+00    0.02       1.0  T
  53   -526.9948195 -0.981804E+00  0.150E+00    0.03       1.0  T
  54   -527.7842914 -0.789472E+00  0.136E+00    0.01       1.0  T
  55   -529.1665175 -0.138223E+01  0.912E-01    0.01       1.0  T
  56   -528.2150370  0.951481E+00  0.121E+00    0.02       1.0  T
  57   -527.6080626  0.606974E+00  0.138E+00    0.01       1.0  T
  58   -528.1527719 -0.544709E+00  0.124E+00    0.01       1.0  T
  59   -529.0940517 -0.941280E+00  0.930E-01    0.01       1.0  T
  60   -529.4735455 -0.379494E+00  0.750E-01    0.00       1.0  T
  61   -529.7877165 -0.314171E+00  0.547E-01    0.01       1.0  T
  62   -529.0135468  0.774170E+00  0.895E-01    0.02       1.0  T
  63   -529.8050475 -0.791501E+00  0.518E-01    0.01       1.0  T
  64   -529.8762801 -0.712326E-01  0.439E-01    0.01       1.0  T
  65   -530.0494957 -0.173216E+00  0.297E-01    0.00       1.0  T
  66   -529.7780288  0.271467E+00  0.531E-01    0.00       1.0  T
  67   -529.8994769 -0.121448E+00  0.448E-01    0.00       1.0  T
  68   -529.6885040  0.210973E+00  0.584E-01    0.00       1.0  T
  69   -530.0037882 -0.315284E+00  0.347E-01    0.01       1.0  T
  70   -529.7507953  0.252993E+00  0.549E-01    0.00       1.0  T
  71   -529.8494041 -0.986088E-01  0.485E-01    0.01       1.0  T
  72   -529.9474600 -0.980559E-01  0.405E-01    0.01       1.0  T
  73   -529.9752650 -0.278051E-01  0.380E-01    0.01       1.0  T
  74   -529.9253795  0.498856E-01  0.429E-01    0.01       1.0  T
  75   -529.9840055 -0.586260E-01  0.378E-01    0.01       1.0  T
  76   -530.0052495 -0.212440E-01  0.355E-01    0.01       1.0  T
  77   -530.0301989 -0.249494E-01  0.325E-01    0.01       1.0  T
  78   -530.1020975 -0.718986E-01  0.234E-01    0.01       1.0  T
  79   -530.1086761 -0.657857E-02  0.219E-01    0.01       1.0  T
  80   -530.1369511 -0.282751E-01  0.166E-01    0.01       1.0  T
  81   -530.1529458 -0.159947E-01  0.122E-01    0.01       1.0  T
  82   -530.1598245 -0.687864E-02  0.967E-02    0.02       1.0  T
  83   -530.1643016 -0.447711E-02  0.744E-02    0.02       1.0  T
  84   -530.1634151  0.886470E-03  0.775E-02    0.02       1.0  T
  85   -530.1592182  0.419690E-02  0.938E-02    0.02       1.0  T
  86   -530.1578826  0.133564E-02  0.990E-02    0.02       1.0  T
  87   -530.1656412 -0.775865E-02  0.622E-02    0.03       1.0  T
  88   -530.1633452  0.229602E-02  0.716E-02    0.03       1.0  T
  89   -530.1671637 -0.381851E-02  0.492E-02    0.03       1.0  T
  90   -530.1696110 -0.244725E-02  0.248E-02    0.03       1.0  T
  91   -530.1695179  0.930768E-04  0.266E-02    0.03       1.0  T
  92   -530.1686286  0.889247E-03  0.374E-02    0.03       1.0  T
  93   -530.1687656 -0.136995E-03  0.355E-02    0.03       1.0  T
  94   -530.1688194 -0.537624E-04  0.347E-02    0.03       1.0  T
  95   -530.1693498 -0.530393E-03  0.278E-02    0.03       1.0  T
  96   -530.1693953 -0.454723E-04  0.271E-02    0.03       1.0  T
  97   -530.1698756 -0.480360E-03  0.197E-02    0.03       1.0  T
  98   -530.1700616 -0.185946E-03  0.158E-02    0.03       1.0  T
  99   -530.1702071 -0.145528E-03  0.122E-02    0.03       1.0  T
 100   -530.1701969  0.102259E-04  0.125E-02    0.03       1.0  T
 101   -530.1702424 -0.455410E-04  0.111E-02    0.03       1.0  T
 102   -530.1702866 -0.441513E-04  0.956E-03    0.03       1.0  T
 103   -530.1703528 -0.661946E-04  0.662E-03    0.03       1.0  T
 104   -530.1703828 -0.300594E-04  0.465E-03    0.03       1.3  T
 105   -530.1703897 -0.691521E-05  0.400E-03    0.03       1.5  T
 106   -530.1703932 -0.344262E-05  0.363E-03    0.03       1.7  T
 107   -530.1703990 -0.581331E-05  0.296E-03    0.03       2.1  T
 108   -530.1704038 -0.483133E-05  0.215E-03    0.03       2.9  T
 109   -530.1704032  0.655245E-06  0.222E-03    0.03       2.8  T
 110   -530.1704049 -0.176038E-05  0.190E-03    0.03       3.2  T
 111   -530.1704089 -0.396627E-05  0.937E-04    0.03       6.6  T
 112   -530.1704082  0.647202E-06  0.118E-03    0.03       5.2  T
 113   -530.1704088 -0.577405E-06  0.969E-04    0.03       6.4  T
 114   -530.1704070  0.182785E-05  0.151E-03    0.03       4.1  T
 115   -530.1704086 -0.156808E-05  0.101E-03    0.03       6.1  T
 116   -530.1704093 -0.757934E-06  0.670E-04    0.03       9.2  T
 117   -530.1704096 -0.252877E-06  0.484E-04    0.03      12.7  T
 118   -530.1704098 -0.252138E-06  0.211E-04    0.03      29.2  T
 119   -530.1704097  0.966843E-07  0.339E-04    0.03      18.1  T
 120   -530.1704098 -0.854784E-07  0.218E-04    0.03      28.3  T
 121   -530.1704098 -0.103986E-07  0.186E-04    0.03      33.0  T
 122   -530.1704098 -0.122492E-07  0.166E-04    0.03      37.2  T

   *** convergence criteria satisfied after 122 iterations ***

         #    Occupation            Energy/Eh            Energy/eV
      -------------------------------------------------------------
         1        2.0000           -0.8036243             -21.8677
       ...           ...                  ...                  ...
       451        1.9987           -0.3824408             -10.4067
       452        1.9973           -0.3817335             -10.3875
       453        1.9972           -0.3817070             -10.3868
       454        1.4751           -0.3764317             -10.2432
       455        1.4643           -0.3764055             -10.2425
       456        1.3665           -0.3761805             -10.2364
       457        1.3635           -0.3761739             -10.2362 (HOMO)
       458        0.7331           -0.3749304             -10.2024 (LUMO)
       459        0.7278           -0.3749196             -10.2021
       460        0.5596           -0.3745520             -10.1921
       461        0.3210           -0.3738783             -10.1737
       462        0.0000           -0.3646002              -9.9213
       ...           ...                  ...                  ...
       928                          1.5166762              41.2709
      -------------------------------------------------------------
                  HL-Gap            0.0012435 Eh            0.0338 eV
             Fermi-level           -0.3754501 Eh          -10.2165 eV

 SCC (total)                   0 d,  0 h,  0 min, 41.199 sec
 SCC setup                      ...        0 min,  0.022 sec (  0.053%)
 Dispersion                     ...        0 min,  0.012 sec (  0.030%)
 classical contributions        ...        0 min,  0.004 sec (  0.009%)
 integral evaluation            ...        0 min,  0.347 sec (  0.841%)
 iterations                     ...        0 min, 40.005 sec ( 97.103%)
 molecular gradient             ...        0 min,  0.745 sec (  1.808%)
 printout                       ...        0 min,  0.064 sec (  0.156%)

         :::::::::::::::::::::::::::::::::::::::::::::::::::::
         ::                     SUMMARY                     ::
         :::::::::::::::::::::::::::::::::::::::::::::::::::::
         :: total energy            -523.252164388624 Eh    ::
         :: gradient norm              0.572354702830 Eh/a0 ::
         :: HOMO-LUMO gap              0.033838260451 eV    ::
         ::.................................................::
         :: SCC energy              -530.170409835169 Eh    ::
         :: -> electrostatic           1.176653196174 Eh    ::
         :: repulsion energy           7.148911970800 Eh    ::
         :: dispersion energy         -0.230666524254 Eh    ::
         :: halogen bond corr.         0.000000000000 Eh    ::
         :: add. restraining           0.000000000000 Eh    ::
         :: total charge               0.000000000094 e     ::
         :::::::::::::::::::::::::::::::::::::::::::::::::::::

      ----------------------------------------------------------- 
     |                   =====================                   |
     |                        A N C O P T                        |
     |                   =====================                   |
     |               Approximate Normal Coordinate               |
     |                Rational Function Optimizer                |
      ----------------------------------------------------------- 

          ...................................................
          :                      SETUP                      :
          :.................................................:
          :   optimization level            normal          :
          :   max. optcycles                   792          :
          :   ANC micro-cycles                  20          :
          :   degrees of freedom               786          :
          :.................................................:
          :   RF solver                   davidson          :
          :   write xtbopt.log                true          :
          :   linear?                        false          :
          :   energy convergence         0.5000000E-05 Eh   :
          :   grad. convergence          0.1000000E-02 Eh/α :
          :   maximium RF displ.         1.0000000          :
          :   Hlow (freq-cutoff)         0.1000000E-01      :
          :   Hmax (freq-cutoff)         5.0000000          :
          :   S6 in model hess.         20.0000000          :
          ...................................................

generating ANC from model Hessian ...
Using Lindh-Hessian (1995)
 Shifting diagonal of input Hessian by    1.0031535310491167E-002
 Lowest  eigenvalues of input Hessian
    0.010000    0.010001    0.010009    0.010017    0.010019    0.010020
    0.010023    0.010024    0.010027    0.010029    0.010030    0.000000
    0.000000    0.000000    0.000000    0.000000    0.000000    0.010033
 Highest eigenvalues
    2.413036    2.439984    2.530420    2.790737    2.801985    2.825715


........................................................................
.............................. CYCLE    1 ..............................
........................................................................
   1   -530.1704099 -0.530170E+03  0.807E-05    0.03       0.0  T
   2   -530.1697765  0.633379E-03  0.209E-02    0.03       1.0  T
   3   -530.1704066 -0.630073E-03  0.150E-03    0.03       4.1  T
   4   -530.1702957  0.110895E-03  0.887E-03    0.03       1.0  T
   5   -530.1702078  0.878962E-04  0.120E-02    0.03       1.0  T
   6   -530.1703979 -0.190086E-03  0.295E-03    0.03       2.1  T
   7   -530.1704086 -0.107573E-04  0.929E-04    0.03       6.6  T
   8   -530.1703886  0.200124E-04  0.376E-03    0.03       1.6  T
   9   -530.1704094 -0.208191E-04  0.551E-04    0.03      11.2  T
  10   -530.1704098 -0.369294E-06  0.242E-04    0.03      25.4  T
  11   -530.1704099 -0.664742E-07  0.119E-04    0.03      51.7  T
  12   -530.1704099 -0.194258E-07  0.301E-05    0.03     204.4  T
     SCC iter.                  ...        0 min,  3.948 sec
     gradient                   ...        0 min,  0.749 sec
 * total energy  :  -523.2521644 Eh     change       -0.3868092E-07 Eh
   gradient norm :     0.5723558 Eh/α   predicted     0.0000000E+00 (-100.00%)
   displ. norm   :     0.5435672 α      lambda       -0.2298640E+00
   maximum displ.:     0.1235786 α      in ANC's #286, #308, #349, ...

........................................................................
.............................. CYCLE    2 ..............................
........................................................................
   1   -530.1283724 -0.530128E+03  0.291E-01    0.00       0.0  T
   2   -497.2076827  0.329207E+02  0.461E+00    0.10       1.0  T
   3   -523.1210149 -0.259133E+02  0.251E+00    0.01       1.0  T
   4   -523.6663410 -0.545326E+00  0.216E+00    0.11       1.0  T
   5   -524.8705191 -0.120418E+01  0.194E+00    0.09       1.0  T
   6   -515.6189062  0.925161E+01  0.312E+00    0.02       1.0  T
   7   -527.5193108 -0.119004E+02  0.136E+00    0.02       1.0  T
   8   -523.8061412  0.371317E+01  0.208E+00    0.09       1.0  T
   9   -529.7151880 -0.590905E+01  0.617E-01    0.00       1.0  T
  10   -528.8108796  0.904308E+00  0.993E-01    0.02       1.0  T
  11   -528.8849335 -0.740539E-01  0.969E-01    0.00       1.0  T
  12   -529.0954453 -0.210512E+00  0.886E-01    0.01       1.0  T
  13   -529.4532254 -0.357780E+00  0.735E-01    0.00       1.0  T
  14   -529.5532491 -0.100024E+00  0.689E-01    0.00       1.0  T
  15   -529.5851001 -0.318509E-01  0.676E-01    0.01       1.0  T
  16   -529.7285854 -0.143485E+00  0.596E-01    0.01       1.0  T
  17   -529.9790385 -0.250453E+00  0.425E-01    0.00       1.0  T
  18   -530.2064714 -0.227433E+00  0.142E-01    0.00       1.0  T
  19   -530.1608736  0.455978E-01  0.230E-01    0.00       1.0  T
  20   -530.2146503 -0.537766E-01  0.124E-01    0.00       1.0  T
  21   -530.2140529  0.597332E-03  0.125E-01    0.00       1.0  T
  22   -530.2337442 -0.196913E-01  0.404E-02    0.00       1.0  T
  23   -530.2342639 -0.519713E-03  0.351E-02    0.00       1.0  T
  24   -530.2355041 -0.124021E-02  0.196E-02    0.00       1.0  T
  25   -530.2360150 -0.510897E-03  0.475E-03    0.00       1.3  T
  26   -530.2359690  0.460639E-04  0.741E-03    0.00       1.0  T
  27   -530.2360383 -0.693262E-04  0.258E-03    0.00       2.4  T
  28   -530.2360392 -0.941254E-06  0.245E-03    0.00       2.5  T
  29   -530.2360478 -0.860383E-05  0.215E-04    0.00      28.7  T
  30   -530.2360462  0.164333E-05  0.109E-03    0.00       5.6  T
  31   -530.2360469 -0.673021E-06  0.830E-04    0.00       7.4  T
  32   -530.2360476 -0.743984E-06  0.446E-04    0.00      13.8  T
  33   -530.2360477 -0.109646E-06  0.350E-04    0.00      17.6  T
  34   -530.2360476  0.948086E-07  0.436E-04    0.00      14.1  T
  35   -530.2360478 -0.127938E-06  0.322E-04    0.00      19.1  T
  36   -530.2360479 -0.109194E-06  0.170E-04    0.00      36.2  T
  37   -530.2360479 -0.379466E-07  0.520E-05    0.00     118.3  T
     SCC iter.                  ...        0 min, 12.272 sec
     gradient                   ...        0 min,  0.752 sec
 * total energy  :  -523.4367771 Eh     change       -0.1846126E+00 Eh
   gradient norm :     0.3320035 Eh/α   predicted    -0.1489856E+00 ( -19.30%)
   displ. norm   :     0.6223074 α      lambda       -0.1606671E+00
   maximum displ.:     0.1499173 α      in ANC's #286, #308, #349, ...

........................................................................
.............................. CYCLE    3 ..............................
........................................................................
   1   -530.2864925 -0.530286E+03  0.240E-01    0.02       0.0  T
   2   -513.5832688  0.167032E+02  0.334E+00    0.02       1.0  T
   3   -503.3647659  0.102185E+02  0.420E+00    0.36       1.0  T
   4   -524.4924972 -0.211277E+02  0.215E+00    0.02       1.0  T
   5   -505.4995236  0.189930E+02  0.403E+00    0.26       1.0  T
   6   -528.3147197 -0.228152E+02  0.121E+00    0.01       1.0  T
   7   -509.8414107  0.184733E+02  0.366E+00    0.10       1.0  T
   8   -527.5959518 -0.177545E+02  0.138E+00    0.02       1.0  T
   9   -528.9934024 -0.139745E+01  0.965E-01    0.01       1.0  T
  10   -528.2769602  0.716442E+00  0.120E+00    0.02       1.0  T
  11   -529.4296917 -0.115273E+01  0.805E-01    0.04       1.0  T
  12   -528.4992796  0.930412E+00  0.116E+00    0.00       1.0  T
  13   -527.5710212  0.928258E+00  0.137E+00    0.02       1.0  T
  14   -529.0796387 -0.150862E+01  0.953E-01    0.01       1.0  T
  15   -529.1904339 -0.110795E+00  0.889E-01    0.01       1.0  T
  16   -529.7087511 -0.518317E+00  0.670E-01    0.03       1.0  T
  17   -530.0964458 -0.387695E+00  0.423E-01    0.01       1.0  T
  18   -530.1993919 -0.102946E+00  0.331E-01    0.01       1.0  T
  19   -530.1767058  0.226861E-01  0.347E-01    0.01       1.0  T
  20   -530.2776047 -0.100899E+00  0.232E-01    0.01       1.0  T
  21   -530.3184815 -0.408768E-01  0.156E-01    0.01       1.0  T
  22   -530.3302320 -0.117505E-01  0.132E-01    0.01       1.0  T
  23   -530.3150785  0.151535E-01  0.166E-01    0.01       1.0  T
  24   -530.3404524 -0.253739E-01  0.991E-02    0.01       1.0  T
  25   -530.3515744 -0.111220E-01  0.473E-02    0.01       1.0  T
  26   -530.3532948 -0.172042E-02  0.334E-02    0.01       1.0  T
  27   -530.3536428 -0.347932E-03  0.301E-02    0.01       1.0  T
  28   -530.3528535  0.789292E-03  0.387E-02    0.01       1.0  T
  29   -530.3533449 -0.491463E-03  0.338E-02    0.01       1.0  T
  30   -530.3544191 -0.107418E-02  0.197E-02    0.01       1.0  T
  31   -530.3548546 -0.435504E-03  0.101E-02    0.01       1.0  T
  32   -530.3549099 -0.552855E-04  0.784E-03    0.01       1.0  T
  33   -530.3549687 -0.587699E-04  0.486E-03    0.01       1.3  T
  34   -530.3549882 -0.194894E-04  0.303E-03    0.01       2.0  T
  35   -530.3549983 -0.101106E-04  0.158E-03    0.01       3.9  T
  36   -530.3549963  0.200744E-05  0.195E-03    0.01       3.2  T
  37   -530.3549952  0.103036E-05  0.215E-03    0.01       2.9  T
  38   -530.3549992 -0.390823E-05  0.139E-03    0.01       4.4  T
  39   -530.3550009 -0.175769E-05  0.865E-04    0.01       7.1  T
  40   -530.3550018 -0.868563E-06  0.399E-04    0.01      15.4  T
  41   -530.3550020 -0.208982E-06  0.104E-04    0.01      59.4  T
  42   -530.3550020  0.188744E-07  0.156E-04    0.01      39.5  T
     SCC iter.                  ...        0 min, 13.909 sec
     gradient                   ...        0 min,  0.750 sec
 * total energy  :  -523.5522931 Eh     change       -0.1155160E+00 Eh
   gradient norm :     0.1387057 Eh/α   predicted    -0.1114441E+00 (  -3.52%)
   displ. norm   :     0.6741740 α      lambda       -0.6879187E-01
   maximum displ.:     0.1714241 α      in ANC's #286, #58, #161, ...

........................................................................
.............................. CYCLE    4 ..............................
........................................................................
   1   -530.4568508 -0.530457E+03  0.843E-02    0.04       0.0  T
   2   -511.9100253  0.185468E+02  0.347E+00    0.06       1.0  T
   3   -524.0017445 -0.120917E+02  0.213E+00    0.01       1.0  T
   4   -525.8218423 -0.182010E+01  0.180E+00    0.04       1.0  T
   5   -528.3173086 -0.249547E+01  0.125E+00    0.03       1.0  T
   6   -527.2737692  0.104354E+01  0.148E+00    0.05       1.0  T
   7   -525.5937050  0.168006E+01  0.182E+00    0.03       1.0  T
   8   -527.4671115 -0.187341E+01  0.145E+00    0.03       1.0  T
   9   -529.5997586 -0.213265E+01  0.773E-01    0.01       1.0  T
  10   -528.8615448  0.738214E+00  0.106E+00    0.03       1.0  T
  11   -529.1496922 -0.288147E+00  0.978E-01    0.03       1.0  T
  12   -528.9590465  0.190646E+00  0.100E+00    0.01       1.0  T
  13   -530.0768949 -0.111785E+01  0.520E-01    0.01       1.0  T
  14   -529.7877987  0.289096E+00  0.693E-01    0.01       1.0  T
  15   -529.6540378  0.133761E+00  0.758E-01    0.01       1.0  T
  16   -529.8487494 -0.194712E+00  0.657E-01    0.02       1.0  T
  17   -530.1899944 -0.341245E+00  0.445E-01    0.02       1.0  T
  18   -530.3527104 -0.162716E+00  0.281E-01    0.03       1.0  T
  19   -530.3351356  0.175749E-01  0.303E-01    0.02       1.0  T
  20   -530.3920127 -0.568772E-01  0.226E-01    0.03       1.0  T
  21   -530.4042277 -0.122150E-01  0.204E-01    0.03       1.0  T
  22   -530.4254796 -0.212519E-01  0.161E-01    0.03       1.0  T
  23   -530.4289834 -0.350373E-02  0.152E-01    0.03       1.0  T
  24   -530.4284957  0.487680E-03  0.153E-01    0.03       1.0  T
  25   -530.4402225 -0.117268E-01  0.123E-01    0.03       1.0  T
  26   -530.4585223 -0.182997E-01  0.447E-02    0.04       1.0  T
  27   -530.4575383  0.983926E-03  0.513E-02    0.04       1.0  T
  28   -530.4609071 -0.336881E-02  0.166E-02    0.04       1.0  T
  29   -530.4603882  0.518935E-03  0.254E-02    0.04       1.0  T
  30   -530.4605756 -0.187346E-03  0.220E-02    0.04       1.0  T
  31   -530.4610607 -0.485109E-03  0.116E-02    0.04       1.0  T
  32   -530.4612155 -0.154789E-03  0.495E-03    0.04       1.2  T
  33   -530.4612341 -0.186345E-04  0.333E-03    0.04       1.9  T
  34   -530.4612388 -0.474519E-05  0.278E-03    0.04       2.2  T
  35   -530.4612374  0.139568E-05  0.297E-03    0.04       2.1  T
  36   -530.4612434 -0.598102E-05  0.213E-03    0.04       2.9  T
  37   -530.4612447 -0.125374E-05  0.190E-03    0.04       3.2  T
  38   -530.4612472 -0.257897E-05  0.131E-03    0.04       4.7  T
  39   -530.4612485 -0.124621E-05  0.904E-04    0.04       6.8  T
  40   -530.4612492 -0.754701E-06  0.511E-04    0.04      12.0  T
  41   -530.4612496 -0.336810E-06  0.133E-04    0.04      46.3  T
  42   -530.4612496  0.115724E-07  0.159E-04    0.04      38.7  T
     SCC iter.                  ...        0 min, 13.983 sec
     gradient                   ...        0 min,  0.750 sec
 * total energy  :  -523.6059114 Eh     change       -0.5361837E-01 Eh
   gradient norm :     0.0749782 Eh/α   predicted    -0.5002925E-01 (  -6.69%)
   displ. norm   :     0.7698743 α      lambda       -0.4390937E-01
   maximum displ.:     0.2298863 α      in ANC's #58, #82, #16, ...

........................................................................
.............................. CYCLE    5 ..............................
........................................................................
   1   -530.5144541 -0.530514E+03  0.711E-02    0.06       0.0  T
   2   -524.9742162  0.554024E+01  0.205E+00    0.04       1.0  T
   3   -528.3059980 -0.333178E+01  0.129E+00    0.02       1.0  T
   4   -511.8462015  0.164598E+02  0.349E+00    0.06       1.0  T
   5   -529.9514274 -0.181052E+02  0.634E-01    0.03       1.0  T
   6   -516.7308920  0.132205E+02  0.306E+00    0.01       1.0  T
   7   -529.5708417 -0.128399E+02  0.824E-01    0.01       1.0  T
   8   -522.7164364  0.685441E+01  0.229E+00    0.03       1.0  T
   9   -526.0333345 -0.331690E+01  0.174E+00    0.04       1.0  T
  10   -526.1046098 -0.712753E-01  0.176E+00    0.02       1.0  T
  11   -528.5200427 -0.241543E+01  0.118E+00    0.01       1.0  T
  12   -529.9552816 -0.143524E+01  0.625E-01    0.03       1.0  T
  13   -528.8783422  0.107694E+01  0.106E+00    0.01       1.0  T
  14   -529.8790345 -0.100069E+01  0.659E-01    0.03       1.0  T
  15   -529.8483631  0.306714E-01  0.678E-01    0.02       1.0  T
  16   -530.3061589 -0.457796E+00  0.383E-01    0.03       1.0  T
  17   -530.4876554 -0.181497E+00  0.143E-01    0.06       1.0  T
  18   -530.4789921  0.866331E-02  0.169E-01    0.04       1.0  T
  19   -530.4793057 -0.313610E-03  0.173E-01    0.04       1.0  T
  20   -530.4737128  0.559285E-02  0.181E-01    0.04       1.0  T
  21   -530.4907502 -0.170373E-01  0.144E-01    0.04       1.0  T
  22   -530.4920232 -0.127301E-02  0.139E-01    0.04       1.0  T
  23   -530.4871470  0.487616E-02  0.150E-01    0.04       1.0  T
  24   -530.5010522 -0.139052E-01  0.112E-01    0.04       1.0  T
  25   -530.4994343  0.161791E-02  0.117E-01    0.04       1.0  T
  26   -530.5108841 -0.114498E-01  0.735E-02    0.05       1.0  T
  27   -530.5086042  0.227990E-02  0.836E-02    0.05       1.0  T
  28   -530.5138789 -0.527471E-02  0.561E-02    0.05       1.0  T
  29   -530.5147488 -0.869910E-03  0.497E-02    0.05       1.0  T
  30   -530.5159748 -0.122598E-02  0.399E-02    0.05       1.0  T
  31   -530.5163888 -0.413994E-03  0.360E-02    0.05       1.0  T
  32   -530.5167510 -0.362278E-03  0.322E-02    0.05       1.0  T
  33   -530.5169447 -0.193646E-03  0.299E-02    0.05       1.0  T
  34   -530.5176018 -0.657117E-03  0.206E-02    0.05       1.0  T
  35   -530.5178048 -0.203050E-03  0.166E-02    0.05       1.0  T
  36   -530.5180261 -0.221261E-03  0.108E-02    0.05       1.0  T
  37   -530.5181101 -0.839972E-04  0.748E-03    0.05       1.0  T
  38   -530.5181515 -0.413659E-04  0.506E-03    0.05       1.2  T
  39   -530.5181616 -0.101677E-04  0.429E-03    0.05       1.4  T
  40   -530.5181634 -0.180382E-05  0.411E-03    0.05       1.5  T
  41   -530.5181650 -0.156613E-05  0.396E-03    0.05       1.6  T
  42   -530.5181777 -0.127343E-04  0.249E-03    0.05       2.5  T
  43   -530.5181825 -0.478776E-05  0.159E-03    0.05       3.9  T
  44   -530.5181856 -0.309884E-05  0.432E-04    0.05      14.2  T
  45   -530.5181858 -0.215963E-06  0.148E-04    0.05      41.5  T
  46   -530.5181858 -0.371881E-08  0.141E-04    0.05      43.8  T
     SCC iter.                  ...        0 min, 15.138 sec
     gradient                   ...        0 min,  0.757 sec
 * total energy  :  -523.6435178 Eh     change       -0.3760634E-01 Eh
   gradient norm :     0.0618732 Eh/α   predicted    -0.3496737E-01 (  -7.02%)
   displ. norm   :     0.8692071 α      lambda       -0.3789682E-01
   maximum displ.:     0.3255280 α      in ANC's #58, #16, #82, ...

........................................................................
.............................. CYCLE    6 ..............................
........................................................................
   1   -530.5327126 -0.530533E+03  0.101E-01    0.08       0.0  T
   2   -525.2912380  0.524147E+01  0.221E+00    0.05       1.0  T
   3   -524.7908813  0.500357E+00  0.201E+00    0.00       1.0  T
   4   -529.7348194 -0.494394E+01  0.747E-01    0.02       1.0  T
   5   -525.8260176  0.390880E+01  0.183E+00    0.04       1.0  T
   6   -529.2863430 -0.346033E+01  0.932E-01    0.00       1.0  T
   7   -528.8605076  0.425835E+00  0.109E+00    0.00       1.0  T
   8   -521.5855180  0.727499E+01  0.249E+00    0.01       1.0  T
   9   -516.7754508  0.481007E+01  0.303E+00    0.01       1.0  T
  10   -527.9348448 -0.111594E+02  0.135E+00    0.01       1.0  T
  11   -530.4367739 -0.250193E+01  0.277E-01    0.04       1.0  T
  12   -529.7451698  0.691604E+00  0.749E-01    0.02       1.0  T
  13   -530.1873243 -0.442154E+00  0.499E-01    0.04       1.0  T
  14   -530.4055175 -0.218193E+00  0.309E-01    0.05       1.0  T
  15   -530.5225670 -0.117050E+00  0.118E-01    0.06       1.0  T
  16   -530.5170950  0.547194E-02  0.131E-01    0.05       1.0  T
  17   -530.5232577 -0.616265E-02  0.117E-01    0.05       1.0  T
  18   -530.5048967  0.183609E-01  0.162E-01    0.05       1.0  T
  19   -530.5048076  0.891141E-04  0.162E-01    0.05       1.0  T
  20   -530.5309429 -0.261353E-01  0.880E-02    0.05       1.0  T
  21   -530.5407900 -0.984709E-02  0.377E-02    0.05       1.0  T
  22   -530.5376506  0.313942E-02  0.611E-02    0.05       1.0  T
  23   -530.5402571 -0.260644E-02  0.406E-02    0.05       1.0  T
  24   -530.5402459  0.111790E-04  0.409E-02    0.05       1.0  T
  25   -530.5406929 -0.447048E-03  0.353E-02    0.05       1.0  T
  26   -530.5408889 -0.195954E-03  0.320E-02    0.05       1.0  T
  27   -530.5416028 -0.713893E-03  0.219E-02    0.06       1.0  T
  28   -530.5416982 -0.954364E-04  0.203E-02    0.06       1.0  T
  29   -530.5416786  0.196551E-04  0.203E-02    0.06       1.0  T
  30   -530.5419579 -0.279344E-03  0.144E-02    0.06       1.0  T
  31   -530.5420244 -0.664882E-04  0.124E-02    0.06       1.0  T
  32   -530.5421245 -0.100156E-03  0.890E-03    0.06       1.0  T
  33   -530.5421725 -0.479146E-04  0.654E-03    0.06       1.0  T
  34   -530.5422041 -0.316093E-04  0.435E-03    0.06       1.4  T
  35   -530.5422145 -0.104268E-04  0.327E-03    0.06       1.9  T
  36   -530.5422258 -0.112681E-04  0.143E-03    0.06       4.3  T
  37   -530.5422268 -0.100758E-05  0.104E-03    0.06       5.9  T
  38   -530.5422280 -0.126239E-05  0.329E-04    0.06      18.7  T
  39   -530.5422281 -0.827372E-07  0.210E-04    0.06      29.3  T
  40   -530.5422281  0.147293E-08  0.214E-04    0.06      28.8  T
  41   -530.5422281 -0.348460E-07  0.146E-04    0.06      42.3  T
  42   -530.5422282 -0.163498E-07  0.987E-05    0.06      62.4  T
     SCC iter.                  ...        0 min, 13.818 sec
     gradient                   ...        0 min,  0.753 sec
 * total energy  :  -523.6798663 Eh     change       -0.3634850E-01 Eh
   gradient norm :     0.0667738 Eh/α   predicted    -0.3326435E-01 (  -8.48%)
   displ. norm   :     0.9495753 α      lambda       -0.4207806E-01
   maximum displ.:     0.3691158 α      in ANC's #58, #16, #82, ...

........................................................................
.............................. CYCLE    7 ..............................
........................................................................
   1   -530.5377274 -0.530538E+03  0.111E-01    0.09       0.0  T
   2   -524.5940660  0.594366E+01  0.236E+00    0.05       1.0  T
   3   -527.5855150 -0.299145E+01  0.144E+00    0.00       1.0  T
   4   -529.5967470 -0.201123E+01  0.810E-01    0.01       1.0  T
   5   -520.0854338  0.951131E+01  0.268E+00    0.02       1.0  T
   6   -530.2605251 -0.101751E+02  0.446E-01    0.04       1.0  T
   7   -526.7424431  0.351808E+01  0.165E+00    0.01       1.0  T
   8   -529.7512214 -0.300878E+01  0.767E-01    0.04       1.0  T
   9   -525.3385312  0.441269E+01  0.190E+00    0.02       1.0  T
  10   -530.3214500 -0.498292E+01  0.401E-01    0.03       1.0  T
  11   -529.1832328  0.113822E+01  0.987E-01    0.01       1.0  T
  12   -529.9859787 -0.802746E+00  0.637E-01    0.04       1.0  T
  13   -529.7155732  0.270405E+00  0.754E-01    0.00       1.0  T
  14   -530.0278209 -0.312248E+00  0.605E-01    0.04       1.0  T
  15   -529.3857893  0.642032E+00  0.898E-01    0.02       1.0  T
  16   -529.4568371 -0.710478E-01  0.870E-01    0.02       1.0  T
  17   -530.4323874 -0.975550E+00  0.284E-01    0.05       1.0  T
  18   -530.5364440 -0.104057E+00  0.906E-02    0.06       1.0  T
  19   -530.5340511  0.239292E-02  0.996E-02    0.06       1.0  T
  20   -530.5447494 -0.106983E-01  0.515E-02    0.06       1.0  T
  21   -530.5433361  0.141331E-02  0.609E-02    0.06       1.0  T
  22   -530.5448854 -0.154935E-02  0.516E-02    0.06       1.0  T
  23   -530.5440335  0.851975E-03  0.574E-02    0.06       1.0  T
  24   -530.5456154 -0.158192E-02  0.463E-02    0.06       1.0  T
  25   -530.5475226 -0.190722E-02  0.268E-02    0.06       1.0  T
  26   -530.5483153 -0.792657E-03  0.105E-02    0.06       1.0  T
  27   -530.5483154 -0.130133E-06  0.105E-02    0.06       1.0  T
  28   -530.5482657  0.496655E-04  0.121E-02    0.06       1.0  T
  29   -530.5482430  0.227139E-04  0.125E-02    0.06       1.0  T
  30   -530.5482444 -0.142139E-05  0.123E-02    0.06       1.0  T
  31   -530.5482739 -0.294732E-04  0.112E-02    0.06       1.0  T
  32   -530.5482829 -0.896141E-05  0.109E-02    0.06       1.0  T
  33   -530.5482570  0.258993E-04  0.116E-02    0.06       1.0  T
  34   -530.5483405 -0.835496E-04  0.841E-03    0.06       1.0  T
  35   -530.5483754 -0.349165E-04  0.667E-03    0.06       1.0  T
  36   -530.5484160 -0.405460E-04  0.380E-03    0.06       1.6  T
  37   -530.5484286 -0.126130E-04  0.226E-03    0.06       2.7  T
  38   -530.5484298 -0.122544E-05  0.203E-03    0.06       3.0  T
  39   -530.5484333 -0.352359E-05  0.126E-03    0.06       4.9  T
  40   -530.5484347 -0.139262E-05  0.759E-04    0.06       8.1  T
  41   -530.5484353 -0.582652E-06  0.390E-04    0.06      15.8  T
  42   -530.5484355 -0.191325E-06  0.103E-04    0.06      59.7  T
  43   -530.5484355 -0.927230E-08  0.593E-05    0.06     103.8  T
     SCC iter.                  ...        0 min, 14.137 sec
     gradient                   ...        0 min,  0.753 sec
 * total energy  :  -523.7219692 Eh     change       -0.4210293E-01 Eh
   gradient norm :     0.0746735 Eh/α   predicted    -0.4000986E-01 (  -4.97%)
   displ. norm   :     0.9406659 α      lambda       -0.4736209E-01
   maximum displ.:     0.3416786 α      in ANC's #58, #16, #82, ...

........................................................................
.............................. CYCLE    8 ..............................
........................................................................
   1   -530.5302500 -0.530530E+03  0.119E-01    0.09       0.0  T
   2   -525.3183540  0.521190E+01  0.220E+00    0.02       1.0  T
   3   -524.4533026  0.865051E+00  0.204E+00    0.01       1.0  T
   4   -527.8950735 -0.344177E+01  0.138E+00    0.03       1.0  T
   5   -509.1936415  0.187014E+02  0.375E+00    0.10       1.0  T
   6   -513.3587064 -0.416506E+01  0.335E+00    0.03       1.0  T
   7   -526.5065803 -0.131479E+02  0.170E+00    0.03       1.0  T
   8   -518.9624023  0.754418E+01  0.277E+00    0.01       1.0  T
   9   -526.6518305 -0.768943E+01  0.165E+00    0.01       1.0  T
  10   -528.7292003 -0.207737E+01  0.112E+00    0.00       1.0  T
  11   -528.1904657  0.538735E+00  0.128E+00    0.00       1.0  T
  12   -528.6701836 -0.479718E+00  0.117E+00    0.01       1.0  T
  13   -529.0149674 -0.344784E+00  0.103E+00    0.01       1.0  T
  14   -529.4896694 -0.474702E+00  0.856E-01    0.02       1.0  T
  15   -530.4839019 -0.994233E+00  0.191E-01    0.05       1.0  T
  16   -530.4418537  0.420482E-01  0.278E-01    0.05       1.0  T
  17   -530.3977526  0.441011E-01  0.328E-01    0.03       1.0  T
  18   -530.4411321 -0.433796E-01  0.278E-01    0.04       1.0  T
  19   -530.1329203  0.308212E+00  0.540E-01    0.02       1.0  T
  20   -530.4871626 -0.354242E+00  0.201E-01    0.05       1.0  T
  21   -530.5359220 -0.487594E-01  0.703E-02    0.06       1.0  T
  22   -530.4656433  0.702786E-01  0.232E-01    0.05       1.0  T
  23   -530.5304779 -0.648345E-01  0.888E-02    0.06       1.0  T
  24   -530.5222489  0.822895E-02  0.116E-01    0.06       1.0  T
  25   -530.5403010 -0.180521E-01  0.320E-02    0.07       1.0  T
  26   -530.5405640 -0.263024E-03  0.282E-02    0.07       1.0  T
  27   -530.5405174  0.466046E-04  0.283E-02    0.07       1.0  T
  28   -530.5404083  0.109108E-03  0.293E-02    0.07       1.0  T
  29   -530.5408038 -0.395518E-03  0.237E-02    0.07       1.0  T
  30   -530.5411187 -0.314847E-03  0.181E-02    0.07       1.0  T
  31   -530.5412083 -0.895859E-04  0.160E-02    0.07       1.0  T
  32   -530.5413399 -0.131661E-03  0.126E-02    0.07       1.0  T
  33   -530.5413873 -0.473575E-04  0.112E-02    0.07       1.0  T
  34   -530.5414250 -0.377100E-04  0.978E-03    0.07       1.0  T
  35   -530.5414871 -0.621196E-04  0.695E-03    0.07       1.0  T
  36   -530.5415275 -0.404118E-04  0.412E-03    0.07       1.5  T
  37   -530.5415428 -0.152631E-04  0.229E-03    0.07       2.7  T
  38   -530.5415468 -0.401966E-05  0.148E-03    0.07       4.2  T
  39   -530.5415482 -0.140395E-05  0.105E-03    0.07       5.9  T
  40   -530.5415485 -0.272240E-06  0.939E-04    0.07       6.6  T
  41   -530.5415491 -0.632456E-06  0.630E-04    0.07       9.8  T
  42   -530.5415494 -0.322108E-06  0.383E-04    0.07      16.1  T
  43   -530.5415496 -0.131741E-06  0.208E-04    0.07      29.6  T
  44   -530.5415496 -0.362336E-07  0.123E-04    0.07      50.0  T
  45   -530.5415496  0.199532E-08  0.127E-04    0.07      48.5  T
     SCC iter.                  ...        0 min, 14.795 sec
     gradient                   ...        0 min,  0.755 sec
 * total energy  :  -523.7638088 Eh     change       -0.4183957E-01 Eh
   gradient norm :     0.0896690 Eh/α   predicted    -0.4463531E-01 (   6.68%)
   displ. norm   :     0.9496161 α      lambda       -0.3761649E-01
   maximum displ.:     0.4046615 α      in ANC's #58, #16, #82, ...

........................................................................
.............................. CYCLE    9 ..............................
........................................................................
   1   -530.5407879 -0.530541E+03  0.603E-02    0.07       0.0  T
   2   -519.0501675  0.114906E+02  0.278E+00    0.03       1.0  T
   3   -526.6845654 -0.763440E+01  0.164E+00    0.02       1.0  T
   4   -525.7298697  0.954696E+00  0.186E+00    0.01       1.0  T
   5   -528.8411624 -0.311129E+01  0.108E+00    0.03       1.0  T
   6   -525.0109030  0.383026E+01  0.195E+00    0.01       1.0  T
   7   -524.6345796  0.376323E+00  0.199E+00    0.02       1.0  T
   8   -530.2582409 -0.562366E+01  0.459E-01    0.07       1.0  T
   9   -530.4709854 -0.212744E+00  0.233E-01    0.04       1.0  T
  10   -529.5505829  0.920403E+00  0.822E-01    0.01       1.0  T
  11   -530.4735158 -0.922933E+00  0.214E-01    0.07       1.0  T
  12   -530.2926716  0.180844E+00  0.419E-01    0.05       1.0  T
  13   -530.3610685 -0.683969E-01  0.363E-01    0.06       1.0  T
  14   -530.4925361 -0.131468E+00  0.186E-01    0.07       1.0  T
  15   -530.5110904 -0.185543E-01  0.144E-01    0.06       1.0  T
  16   -530.5236321 -0.125417E-01  0.118E-01    0.07       1.0  T
  17   -530.5305712 -0.693906E-02  0.925E-02    0.07       1.0  T
  18   -530.5411360 -0.105648E-01  0.324E-02    0.07       1.0  T
  19   -530.5326666  0.846943E-02  0.841E-02    0.07       1.0  T
  20   -530.5399610 -0.729438E-02  0.433E-02    0.07       1.0  T
  21   -530.5397477  0.213281E-03  0.446E-02    0.07       1.0  T
  22   -530.5387133  0.103443E-02  0.516E-02    0.07       1.0  T
  23   -530.5387170 -0.373999E-05  0.513E-02    0.07       1.0  T
  24   -530.5386088  0.108201E-03  0.519E-02    0.07       1.0  T
  25   -530.5398702 -0.126143E-02  0.421E-02    0.07       1.0  T
  26   -530.5408599 -0.989672E-03  0.326E-02    0.07       1.0  T
  27   -530.5414413 -0.581409E-03  0.255E-02    0.07       1.0  T
  28   -530.5417825 -0.341187E-03  0.202E-02    0.07       1.0  T
  29   -530.5421248 -0.342309E-03  0.127E-02    0.07       1.0  T
  30   -530.5422276 -0.102744E-03  0.916E-03    0.07       1.0  T
  31   -530.5422413 -0.137361E-04  0.853E-03    0.07       1.0  T
  32   -530.5422783 -0.370449E-04  0.669E-03    0.07       1.0  T
  33   -530.5423024 -0.240191E-04  0.518E-03    0.07       1.2  T
  34   -530.5423228 -0.203986E-04  0.343E-03    0.07       1.8  T
  35   -530.5423364 -0.136529E-04  0.129E-03    0.07       4.8  T
  36   -530.5423384 -0.201885E-05  0.366E-04    0.07      16.8  T
  37   -530.5423385 -0.106765E-06  0.222E-04    0.07      27.7  T
  38   -530.5423386 -0.489907E-07  0.120E-04    0.07      51.4  T
  39   -530.5423386 -0.163883E-07  0.537E-05    0.07     114.6  T
     SCC iter.                  ...        0 min, 12.836 sec
     gradient                   ...        0 min,  0.757 sec
 * total energy  :  -523.7937692 Eh     change       -0.2996040E-01 Eh
   gradient norm :     0.0956719 Eh/α   predicted    -0.3576898E-01 (  19.39%)
   displ. norm   :     0.7195218 α      lambda       -0.3654987E-01
   maximum displ.:     0.2942102 α      in ANC's #58, #16, #82, ...

........................................................................
.............................. CYCLE   10 ..............................
........................................................................
   1   -530.5464232 -0.530546E+03  0.150E-01    0.06       0.0  T
   2   -503.3821912  0.271642E+02  0.417E+00    0.05       1.0  T
   3   -512.1259242 -0.874373E+01  0.347E+00    0.03       1.0  T
   4   -512.2883170 -0.162393E+00  0.348E+00    0.04       1.0  T
   5   -506.6194269  0.566889E+01  0.395E+00    0.20       1.0  T
   6   -528.7266101 -0.221072E+02  0.112E+00    0.06       1.0  T
   7   -506.4521529  0.222745E+02  0.392E+00    0.28       1.0  T
   8   -523.6935145 -0.172414E+02  0.215E+00    0.01       1.0  T
   9   -526.4609920 -0.276748E+01  0.172E+00    0.01       1.0  T
  10   -524.7068923  0.175410E+01  0.200E+00    0.04       1.0  T
  11   -528.5915860 -0.388469E+01  0.118E+00    0.02       1.0  T
  12   -528.6286927 -0.371066E-01  0.116E+00    0.01       1.0  T
  13   -528.5326563  0.960364E-01  0.121E+00    0.01       1.0  T
  14   -528.5035946  0.290617E-01  0.120E+00    0.02       1.0  T
  15   -530.2636089 -0.176001E+01  0.470E-01    0.05       1.0  T
  16   -530.2594010  0.420798E-02  0.467E-01    0.03       1.0  T
  17   -530.4669894 -0.207588E+00  0.277E-01    0.07       1.0  T
  18   -530.3807785  0.862109E-01  0.357E-01    0.04       1.0  T
  19   -530.4700471 -0.892686E-01  0.266E-01    0.06       1.0  T
  20   -530.5428444 -0.727973E-01  0.132E-01    0.06       1.0  T
  21   -530.5501003 -0.725590E-02  0.114E-01    0.07       1.0  T
  22   -530.5485274  0.157287E-02  0.114E-01    0.06       1.0  T
  23   -530.5515006 -0.297322E-02  0.107E-01    0.06       1.0  T
  24   -530.5414717  0.100289E-01  0.136E-01    0.06       1.0  T
  25   -530.5527126 -0.112409E-01  0.108E-01    0.06       1.0  T
  26   -530.5595321 -0.681946E-02  0.834E-02    0.06       1.0  T
  27   -530.5616775 -0.214543E-02  0.739E-02    0.07       1.0  T
  28   -530.5655721 -0.389458E-02  0.517E-02    0.07       1.0  T
  29   -530.5670083 -0.143624E-02  0.401E-02    0.07       1.0  T
  30   -530.5675437 -0.535370E-03  0.347E-02    0.07       1.0  T
  31   -530.5677234 -0.179695E-03  0.325E-02    0.07       1.0  T
  32   -530.5683211 -0.597713E-03  0.244E-02    0.07       1.0  T
  33   -530.5686813 -0.360180E-03  0.178E-02    0.07       1.0  T
  34   -530.5689209 -0.239582E-03  0.117E-02    0.07       1.0  T
  35   -530.5690459 -0.125018E-03  0.649E-03    0.07       1.0  T
  36   -530.5690866 -0.406524E-04  0.310E-03    0.07       2.0  T
  37   -530.5690953 -0.875703E-05  0.172E-03    0.07       3.6  T
  38   -530.5690988 -0.345240E-05  0.730E-04    0.07       8.4  T
  39   -530.5690994 -0.613350E-06  0.292E-04    0.07      21.1  T
  40   -530.5690992  0.184416E-06  0.460E-04    0.07      13.4  T
  41   -530.5690993 -0.654977E-07  0.410E-04    0.07      15.0  T
  42   -530.5690993 -0.783091E-07  0.333E-04    0.07      18.5  T
  43   -530.5690993 -0.991395E-08  0.320E-04    0.07      19.2  T
  44   -530.5690994 -0.168831E-07  0.299E-04    0.07      20.6  T
  45   -530.5690994 -0.601914E-07  0.214E-04    0.07      28.7  T
  46   -530.5690995 -0.489049E-07  0.983E-05    0.07      62.6  T
  47   -530.5690995 -0.921864E-08  0.501E-05    0.07     122.9  T
     SCC iter.                  ...        0 min, 15.481 sec
     gradient                   ...        0 min,  0.756 sec
 * total energy  :  -523.8133764 Eh     change       -0.1960721E-01 Eh
   gradient norm :     0.1061596 Eh/α   predicted    -0.2773608E-01 (  41.46%)
   displ. norm   :     0.6657144 α      lambda       -0.3778418E-01
   maximum displ.:     0.3096694 α      in ANC's #58, #16, #82, ...

........................................................................
.............................. CYCLE   11 ..............................
........................................................................
   1   -530.6288220 -0.530629E+03  0.685E-02    0.06       0.0  T
   2   -526.2018019  0.442702E+01  0.179E+00    0.01       1.0  T
   3   -522.1262785  0.407552E+01  0.240E+00    0.01       1.0  T
   4   -522.8349666 -0.708688E+00  0.233E+00    0.01       1.0  T
   5   -529.4768353 -0.664187E+01  0.890E-01    0.02       1.0  T
   6   -513.2270538  0.162498E+02  0.337E+00    0.05       1.0  T
   7   -528.1186024 -0.148915E+02  0.134E+00    0.02       1.0  T
   8   -524.6993250  0.341928E+01  0.201E+00    0.01       1.0  T
   9   -527.0243655 -0.232504E+01  0.158E+00    0.02       1.0  T
  10   -528.7109312 -0.168657E+01  0.117E+00    0.01       1.0  T
  11   -529.6855331 -0.974602E+00  0.854E-01    0.04       1.0  T
  12   -529.1432561  0.542277E+00  0.102E+00    0.01       1.0  T
  13   -528.2443121  0.898944E+00  0.131E+00    0.02       1.0  T
  14   -530.3430344 -0.209872E+01  0.452E-01    0.04       1.0  T
  15   -529.9271510  0.415883E+00  0.700E-01    0.01       1.0  T
  16   -530.2059662 -0.278815E+00  0.541E-01    0.04       1.0  T
  17   -530.4872423 -0.281276E+00  0.319E-01    0.06       1.0  T
  18   -530.5763983 -0.891560E-01  0.198E-01    0.06       1.0  T
  19   -530.5411375  0.352608E-01  0.250E-01    0.06       1.0  T
  20   -530.6108890 -0.697515E-01  0.121E-01    0.07       1.0  T
  21   -530.6098285  0.106051E-02  0.125E-01    0.07       1.0  T
  22   -530.6136781 -0.384957E-02  0.115E-01    0.07       1.0  T
  23   -530.6151904 -0.151233E-02  0.112E-01    0.08       1.0  T
  24   -530.6210822 -0.589178E-02  0.943E-02    0.08       1.0  T
  25   -530.6220232 -0.941037E-03  0.905E-02    0.08       1.0  T
  26   -530.6262570 -0.423374E-02  0.705E-02    0.08       1.0  T
  27   -530.6276934 -0.143637E-02  0.620E-02    0.08       1.0  T
  28   -530.6287858 -0.109239E-02  0.545E-02    0.08       1.0  T
  29   -530.6305498 -0.176407E-02  0.402E-02    0.08       1.0  T
  30   -530.6316690 -0.111919E-02  0.277E-02    0.08       1.0  T
  31   -530.6320339 -0.364866E-03  0.222E-02    0.08       1.0  T
  32   -530.6322271 -0.193187E-03  0.184E-02    0.08       1.0  T
  33   -530.6324498 -0.222752E-03  0.132E-02    0.07       1.0  T
  34   -530.6325785 -0.128697E-03  0.882E-03    0.07       1.0  T
  35   -530.6326351 -0.566093E-04  0.588E-03    0.07       1.0  T
  36   -530.6326679 -0.327556E-04  0.333E-03    0.07       1.8  T
  37   -530.6326791 -0.111868E-04  0.179E-03    0.07       3.4  T
  38   -530.6326820 -0.297343E-05  0.103E-03    0.07       6.0  T
  39   -530.6326828 -0.779030E-06  0.720E-04    0.07       8.5  T
  40   -530.6326833 -0.481072E-06  0.437E-04    0.07      14.1  T
  41   -530.6326834 -0.800949E-07  0.365E-04    0.07      16.9  T
  42   -530.6326834 -0.552816E-07  0.299E-04    0.07      20.6  T
  43   -530.6326834 -0.132657E-07  0.276E-04    0.07      22.3  T
  44   -530.6326835 -0.784419E-07  0.138E-04    0.07      44.7  T
  45   -530.6326835 -0.204614E-07  0.589E-05    0.07     104.5  T
     SCC iter.                  ...        0 min, 14.790 sec
     gradient                   ...        0 min,  0.755 sec
 * total energy  :  -523.8386575 Eh     change       -0.2528111E-01 Eh
   gradient norm :     0.0714085 Eh/α   predicted    -0.2726460E-01 (   7.85%)
   displ. norm   :     0.7935409 α      lambda       -0.2592994E-01
   maximum displ.:     0.4025450 α      in ANC's #58, #16, #82, ...

........................................................................
.............................. CYCLE   12 ..............................
........................................................................
   1   -530.6735981 -0.530674E+03  0.473E-02    0.07       0.0  T
   2   -516.3871181  0.142865E+02  0.311E+00    0.00       1.0  T
   3   -521.0233944 -0.463628E+01  0.259E+00    0.02       1.0  T
   4   -528.6173516 -0.759396E+01  0.120E+00    0.01       1.0  T
   5   -525.1659504  0.345140E+01  0.194E+00    0.01       1.0  T
   6   -529.7430716 -0.457712E+01  0.798E-01    0.04       1.0  T
   7   -521.0704965  0.867258E+01  0.254E+00    0.04       1.0  T
   8   -517.1255514  0.394495E+01  0.298E+00    0.01       1.0  T
   9   -515.8240229  0.130153E+01  0.311E+00    0.02       1.0  T
  10   -521.8215544 -0.599753E+01  0.246E+00    0.04       1.0  T
  11   -525.6427046 -0.382115E+01  0.187E+00    0.00       1.0  T
  12   -528.6630636 -0.302036E+01  0.120E+00    0.00       1.0  T
  13   -522.7914528  0.587161E+01  0.229E+00    0.03       1.0  T
  14   -529.6884023 -0.689695E+01  0.808E-01    0.01       1.0  T
  15   -528.5349913  0.115341E+01  0.121E+00    0.00       1.0  T
  16   -529.4305220 -0.895531E+00  0.956E-01    0.02       1.0  T
  17   -529.3486922  0.818298E-01  0.973E-01    0.04       1.0  T
  18   -529.9450258 -0.596334E+00  0.741E-01    0.01       1.0  T
  19   -529.1206717  0.824354E+00  0.107E+00    0.02       1.0  T
  20   -529.1996873 -0.790155E-01  0.104E+00    0.03       1.0  T
  21   -530.3898265 -0.119014E+01  0.458E-01    0.04       1.0  T
  22   -530.5215782 -0.131752E+00  0.340E-01    0.05       1.0  T
  23   -530.5424253 -0.208471E-01  0.311E-01    0.05       1.0  T
  24   -530.6383352 -0.959099E-01  0.167E-01    0.07       1.0  T
  25   -530.6542392 -0.159040E-01  0.129E-01    0.07       1.0  T
  26   -530.6642472 -0.100080E-01  0.962E-02    0.07       1.0  T
  27   -530.6721918 -0.794458E-02  0.575E-02    0.07       1.0  T
  28   -530.6733518 -0.116003E-02  0.483E-02    0.07       1.0  T
  29   -530.6734852 -0.133393E-03  0.469E-02    0.07       1.0  T
  30   -530.6743113 -0.826101E-03  0.393E-02    0.07       1.0  T
  31   -530.6751472 -0.835907E-03  0.297E-02    0.07       1.0  T
  32   -530.6752862 -0.138983E-03  0.276E-02    0.07       1.0  T
  33   -530.6757094 -0.423204E-03  0.209E-02    0.07       1.0  T
  34   -530.6759943 -0.284884E-03  0.146E-02    0.07       1.0  T
  35   -530.6761537 -0.159460E-03  0.939E-03    0.08       1.0  T
  36   -530.6762220 -0.682720E-04  0.605E-03    0.08       1.0  T
  37   -530.6762606 -0.385836E-04  0.291E-03    0.08       2.1  T
  38   -530.6762665 -0.589094E-05  0.206E-03    0.08       3.0  T
  39   -530.6762658  0.706998E-06  0.218E-03    0.08       2.8  T
  40   -530.6762674 -0.160622E-05  0.188E-03    0.08       3.3  T
  41   -530.6762692 -0.183831E-05  0.146E-03    0.08       4.2  T
  42   -530.6762709 -0.166675E-05  0.928E-04    0.08       6.6  T
  43   -530.6762716 -0.701482E-06  0.585E-04    0.08      10.5  T
  44   -530.6762717 -0.163136E-06  0.470E-04    0.08      13.1  T
  45   -530.6762719 -0.132339E-06  0.349E-04    0.08      17.6  T
  46   -530.6762720 -0.960733E-07  0.222E-04    0.08      27.8  T
  47   -530.6762720 -0.361650E-07  0.148E-04    0.08      41.7  T
  48   -530.6762720 -0.212831E-07  0.767E-05    0.08      80.2  T
     SCC iter.                  ...        0 min, 15.790 sec
     gradient                   ...        0 min,  0.757 sec
 * total energy  :  -523.8596225 Eh     change       -0.2096500E-01 Eh
   gradient norm :     0.0550782 Eh/α   predicted    -0.2112910E-01 (   0.78%)
   displ. norm   :     0.8790101 α      lambda       -0.2799934E-01
   maximum displ.:     0.4770708 α      in ANC's #58, #16, #82, ...

........................................................................
.............................. CYCLE   13 ..............................
........................................................................
   1   -530.6985541 -0.530699E+03  0.765E-02    0.07       0.0  T
   2   -514.1025459  0.165960E+02  0.334E+00    0.01       1.0  T
   3   -505.3554019  0.874714E+01  0.406E+00    0.23       1.0  T
   4   -522.2787549 -0.169234E+02  0.238E+00    0.02       1.0  T
   5   -528.1667284 -0.588797E+01  0.134E+00    0.01       1.0  T
   6   -528.8751370 -0.708409E+00  0.112E+00    0.06       1.0  T
   7   -517.7901284  0.110850E+02  0.293E+00    0.03       1.0  T
   8   -511.4319299  0.635820E+01  0.352E+00    0.06       1.0  T
   9   -516.0717199 -0.463979E+01  0.309E+00    0.02       1.0  T
  10   -527.6875350 -0.116158E+02  0.147E+00    0.01       1.0  T
  11   -524.0594533  0.362808E+01  0.213E+00    0.02       1.0  T
  12   -528.9906658 -0.493121E+01  0.107E+00    0.00       1.0  T
  13   -529.6564731 -0.665807E+00  0.848E-01    0.04       1.0  T
  14   -530.4053623 -0.748889E+00  0.464E-01    0.00       1.0  T
  15   -530.3254852  0.798771E-01  0.484E-01    0.02       1.0  T
  16   -529.1578288  0.116766E+01  0.110E+00    0.01       1.0  T
  17   -529.0838262  0.740026E-01  0.112E+00    0.01       1.0  T
  18   -529.9958948 -0.912069E+00  0.766E-01    0.02       1.0  T
  19   -529.5942747  0.401620E+00  0.876E-01    0.05       1.0  T
  20   -530.5186147 -0.924340E+00  0.363E-01    0.05       1.0  T
  21   -530.6239110 -0.105296E+00  0.240E-01    0.07       1.0  T
  22   -530.6842306 -0.603196E-01  0.131E-01    0.06       1.0  T
  23   -530.6963700 -0.121394E-01  0.868E-02    0.07       1.0  T
  24   -530.7022077 -0.583769E-02  0.556E-02    0.07       1.0  T
  25   -530.7050761 -0.286842E-02  0.306E-02    0.08       1.0  T
  26   -530.7057924 -0.716343E-03  0.190E-02    0.08       1.0  T
  27   -530.7059129 -0.120418E-03  0.166E-02    0.08       1.0  T
  28   -530.7054593  0.453593E-03  0.244E-02    0.08       1.0  T
  29   -530.7057258 -0.266512E-03  0.200E-02    0.08       1.0  T
  30   -530.7060494 -0.323654E-03  0.130E-02    0.08       1.0  T
  31   -530.7061953 -0.145888E-03  0.776E-03    0.08       1.0  T
  32   -530.7062558 -0.605242E-04  0.385E-03    0.08       1.6  T
  33   -530.7062686 -0.127931E-04  0.234E-03    0.08       2.6  T
  34   -530.7062722 -0.362008E-05  0.171E-03    0.08       3.6  T
  35   -530.7062711  0.119480E-05  0.194E-03    0.08       3.2  T
  36   -530.7062701  0.968742E-06  0.211E-03    0.08       2.9  T
  37   -530.7062697  0.387514E-06  0.216E-03    0.08       2.8  T
  38   -530.7062715 -0.180496E-05  0.181E-03    0.08       3.4  T
  39   -530.7062743 -0.283176E-05  0.106E-03    0.08       5.8  T
  40   -530.7062752 -0.895195E-06  0.676E-04    0.08       9.1  T
  41   -530.7062755 -0.271261E-06  0.506E-04    0.08      12.2  T
  42   -530.7062756 -0.631438E-07  0.456E-04    0.08      13.5  T
  43   -530.7062756 -0.520773E-07  0.410E-04    0.08      15.0  T
  44   -530.7062757 -0.773657E-07  0.331E-04    0.08      18.6  T
  45   -530.7062758 -0.934000E-07  0.200E-04    0.08      30.7  T
  46   -530.7062758 -0.481127E-07  0.679E-05    0.08      90.6  T
  47   -530.7062758 -0.574198E-08  0.211E-05    0.08     291.4  T
     SCC iter.                  ...        0 min, 15.408 sec
     gradient                   ...        0 min,  0.755 sec
 * total energy  :  -523.8788655 Eh     change       -0.1924305E-01 Eh
   gradient norm :     0.0606932 Eh/α   predicted    -0.2481665E-01 (  28.96%)
   displ. norm   :     0.7991506 α      lambda       -0.2197985E-01
   maximum displ.:     0.3825136 α      in ANC's #58, #16, #28, ...

........................................................................
.............................. CYCLE   14 ..............................
........................................................................
   1   -530.7415923 -0.530742E+03  0.747E-02    0.06       0.0  T
   2   -516.7234621  0.140181E+02  0.309E+00    0.01       1.0  T
   3   -509.8634392  0.686002E+01  0.370E+00    0.08       1.0  T
   4   -526.2762926 -0.164129E+02  0.176E+00    0.01       1.0  T
   5   -508.6250452  0.176512E+02  0.377E+00    0.12       1.0  T
   6   -530.1900704 -0.215650E+02  0.615E-01    0.02       1.0  T
   7   -507.9434397  0.222466E+02  0.382E+00    0.14       1.0  T
   8   -508.5829456 -0.639506E+00  0.376E+00    0.12       1.0  T
   9   -508.6749618 -0.920162E-01  0.376E+00    0.11       1.0  T
  10   -513.2015660 -0.452660E+01  0.336E+00    0.04       1.0  T
  11   -527.2383289 -0.140368E+02  0.155E+00    0.01       1.0  T
  12   -526.1309761  0.110735E+01  0.179E+00    0.02       1.0  T
  13   -527.8468255 -0.171585E+01  0.144E+00    0.02       1.0  T
  14   -528.0556781 -0.208853E+00  0.136E+00    0.01       1.0  T
  15   -521.0972860  0.695839E+01  0.253E+00    0.01       1.0  T
  16   -529.6664259 -0.856914E+01  0.871E-01    0.01       1.0  T
  17   -530.6904558 -0.102403E+01  0.209E-01    0.08       1.0  T
  18   -530.4832318  0.207224E+00  0.428E-01    0.04       1.0  T
  19   -530.7166520 -0.233420E+00  0.149E-01    0.08       1.0  T
  20   -530.6933624  0.232896E-01  0.194E-01    0.06       1.0  T
  21   -530.6783442  0.150182E-01  0.220E-01    0.06       1.0  T
  22   -530.7221486 -0.438044E-01  0.134E-01    0.07       1.0  T
  23   -530.7091378  0.130108E-01  0.165E-01    0.07       1.0  T
  24   -530.7345944 -0.254566E-01  0.970E-02    0.07       1.0  T
  25   -530.7393875 -0.479313E-02  0.779E-02    0.08       1.0  T
  26   -530.7425218 -0.313427E-02  0.619E-02    0.08       1.0  T
  27   -530.7455438 -0.302199E-02  0.405E-02    0.08       1.0  T
  28   -530.7456768 -0.133070E-03  0.393E-02    0.08       1.0  T
  29   -530.7457022 -0.253962E-04  0.389E-02    0.08       1.0  T
  30   -530.7458436 -0.141313E-03  0.373E-02    0.08       1.0  T
  31   -530.7459616 -0.118040E-03  0.360E-02    0.08       1.0  T
  32   -530.7461442 -0.182638E-03  0.340E-02    0.08       1.0  T
  33   -530.7464871 -0.342907E-03  0.300E-02    0.08       1.0  T
  34   -530.7468354 -0.348259E-03  0.254E-02    0.08       1.0  T
  35   -530.7469897 -0.154295E-03  0.230E-02    0.08       1.0  T
  36   -530.7473331 -0.343448E-03  0.166E-02    0.08       1.0  T
  37   -530.7475666 -0.233450E-03  0.101E-02    0.08       1.0  T
  38   -530.7476546 -0.880125E-04  0.606E-03    0.08       1.0  T
  39   -530.7476794 -0.248262E-04  0.426E-03    0.08       1.4  T
  40   -530.7476859 -0.643241E-05  0.367E-03    0.08       1.7  T
  41   -530.7476864 -0.574026E-06  0.360E-03    0.08       1.7  T
  42   -530.7476914 -0.494443E-05  0.302E-03    0.08       2.0  T
  43   -530.7476986 -0.724141E-05  0.190E-03    0.08       3.2  T
  44   -530.7477027 -0.405366E-05  0.725E-04    0.08       8.5  T
  45   -530.7477033 -0.600045E-06  0.267E-04    0.08      23.0  T
  46   -530.7477033 -0.727520E-07  0.139E-04    0.08      44.3  T
  47   -530.7477034 -0.239942E-07  0.433E-05    0.08     142.1  T
     SCC iter.                  ...        0 min, 15.345 sec
     gradient                   ...        0 min,  0.751 sec
 * total energy  :  -523.8969380 Eh     change       -0.1807249E-01 Eh
   gradient norm :     0.0400062 Eh/α   predicted    -0.1800856E-01 (  -0.35%)
   displ. norm   :     0.8790535 α      lambda       -0.1888004E-01
   maximum displ.:     0.4456564 α      in ANC's #16, #58, #28, ...

........................................................................
.............................. CYCLE   15 ..............................
........................................................................
   1   -530.7793779 -0.530779E+03  0.812E-02    0.06       0.0  T
   2   -520.2300145  0.105494E+02  0.274E+00    0.00       1.0  T
   3   -527.9854983 -0.775548E+01  0.143E+00    0.01       1.0  T
   4   -523.1999431  0.478556E+01  0.229E+00    0.02       1.0  T
   5   -522.5064410  0.693502E+00  0.238E+00    0.04       1.0  T
   6   -530.6182610 -0.811182E+01  0.337E-01    0.04       1.0  T
   7   -520.7777418  0.984052E+01  0.258E+00    0.04       1.0  T
   8   -526.4220853 -0.564434E+01  0.172E+00    0.01       1.0  T
   9   -525.7685184  0.653567E+00  0.188E+00    0.01       1.0  T
  10   -529.9486319 -0.418011E+01  0.770E-01    0.02       1.0  T
  11   -530.6276402 -0.679008E+00  0.326E-01    0.06       1.0  T
  12   -530.0837945  0.543846E+00  0.694E-01    0.02       1.0  T
  13   -530.7455125 -0.661718E+00  0.173E-01    0.08       1.0  T
  14   -530.5022188  0.243294E+00  0.441E-01    0.03       1.0  T
  15   -530.7834015 -0.281183E+00  0.534E-02    0.08       1.0  T
  16   -530.7657697  0.176318E-01  0.125E-01    0.07       1.0  T
  17   -530.7624267  0.334298E-02  0.135E-01    0.07       1.0  T
  18   -530.7683832 -0.595644E-02  0.117E-01    0.08       1.0  T
  19   -530.7675117  0.871460E-03  0.120E-01    0.08       1.0  T
  20   -530.7760468 -0.853511E-02  0.905E-02    0.08       1.0  T
  21   -530.7800537 -0.400689E-02  0.720E-02    0.08       1.0  T
  22   -530.7838781 -0.382439E-02  0.482E-02    0.08       1.0  T
  23   -530.7843593 -0.481246E-03  0.437E-02    0.08       1.0  T
  24   -530.7852734 -0.914056E-03  0.351E-02    0.08       1.0  T
  25   -530.7851772  0.961598E-04  0.359E-02    0.08       1.0  T
  26   -530.7852622 -0.850132E-04  0.348E-02    0.08       1.0  T
  27   -530.7856020 -0.339790E-03  0.308E-02    0.08       1.0  T
  28   -530.7860628 -0.460746E-03  0.243E-02    0.08       1.0  T
  29   -530.7865535 -0.490734E-03  0.150E-02    0.08       1.0  T
  30   -530.7867959 -0.242391E-03  0.681E-03    0.08       1.0  T
  31   -530.7868394 -0.434836E-04  0.382E-03    0.08       1.6  T
  32   -530.7868476 -0.818154E-05  0.295E-03    0.08       2.1  T
  33   -530.7868555 -0.792191E-05  0.178E-03    0.08       3.5  T
  34   -530.7868590 -0.353252E-05  0.864E-04    0.08       7.1  T
  35   -530.7868596 -0.609515E-06  0.579E-04    0.08      10.6  T
  36   -530.7868600 -0.387652E-06  0.260E-04    0.08      23.7  T
  37   -530.7868601 -0.785168E-07  0.110E-04    0.08      56.1  T
  38   -530.7868601 -0.821842E-08  0.769E-05    0.08      80.0  T
     SCC iter.                  ...        0 min, 12.566 sec
     gradient                   ...        0 min,  0.767 sec
 * total energy  :  -523.9116091 Eh     change       -0.1467106E-01 Eh
   gradient norm :     0.0364616 Eh/α   predicted    -0.1673466E-01 (  14.07%)
   displ. norm   :     0.8809146 α      lambda       -0.1867419E-01
   maximum displ.:     0.4385182 α      in ANC's #16, #58, #28, ...

........................................................................
.............................. CYCLE   16 ..............................
........................................................................
   1   -530.8110517 -0.530811E+03  0.813E-02    0.06       0.0  T
   2   -520.1366867  0.106744E+02  0.276E+00    0.00       1.0  T
   3   -527.9239017 -0.778722E+01  0.145E+00    0.00       1.0  T
   4   -526.6122180  0.131168E+01  0.173E+00    0.01       1.0  T
   5   -524.8328326  0.177939E+01  0.203E+00    0.03       1.0  T
   6   -530.1219861 -0.528915E+01  0.686E-01    0.02       1.0  T
   7   -512.6989204  0.174231E+02  0.343E+00    0.05       1.0  T
   8   -509.0317029  0.366722E+01  0.373E+00    0.10       1.0  T
   9   -507.1318335  0.189987E+01  0.389E+00    0.16       1.0  T
  10   -507.8205690 -0.688735E+00  0.384E+00    0.15       1.0  T
  11   -507.4433928  0.377176E+00  0.386E+00    0.17       1.0  T
  12   -515.1887418 -0.774535E+01  0.316E+00    0.01       1.0  T
  13   -529.8135731 -0.146248E+02  0.812E-01    0.03       1.0  T
  14   -530.6313050 -0.817732E+00  0.358E-01    0.02       1.0  T
  15   -528.2447871  0.238652E+01  0.134E+00    0.01       1.0  T
  16   -529.6978843 -0.145310E+01  0.898E-01    0.03       1.0  T
  17   -529.6756950  0.221893E-01  0.893E-01    0.03       1.0  T
  18   -530.0228273 -0.347132E+00  0.753E-01    0.03       1.0  T
  19   -530.7921126 -0.769285E+00  0.137E-01    0.07       1.0  T
  20   -530.7642917  0.278209E-01  0.196E-01    0.06       1.0  T
  21   -530.7971363 -0.328446E-01  0.128E-01    0.07       1.0  T
  22   -530.7307376  0.663987E-01  0.246E-01    0.06       1.0  T
  23   -530.7560589 -0.253213E-01  0.210E-01    0.06       1.0  T
  24   -530.8035032 -0.474443E-01  0.107E-01    0.07       1.0  T
  25   -530.8038965 -0.393336E-03  0.106E-01    0.07       1.0  T
  26   -530.8086964 -0.479989E-02  0.878E-02    0.07       1.0  T
  27   -530.8070598  0.163660E-02  0.929E-02    0.07       1.0  T
  28   -530.8095990 -0.253921E-02  0.821E-02    0.07       1.0  T
  29   -530.8144605 -0.486146E-02  0.570E-02    0.08       1.0  T
  30   -530.8171130 -0.265254E-02  0.356E-02    0.08       1.0  T
  31   -530.8176639 -0.550855E-03  0.288E-02    0.08       1.0  T
  32   -530.8186483 -0.984434E-03  0.113E-02    0.08       1.0  T
  33   -530.8187921 -0.143833E-03  0.507E-03    0.07       1.2  T
  34   -530.8188080 -0.158673E-04  0.402E-03    0.07       1.5  T
  35   -530.8188212 -0.132181E-04  0.252E-03    0.07       2.4  T
  36   -530.8188265 -0.526907E-05  0.157E-03    0.07       3.9  T
  37   -530.8188275 -0.979638E-06  0.125E-03    0.07       4.9  T
  38   -530.8188283 -0.813954E-06  0.927E-04    0.07       6.6  T
  39   -530.8188279  0.391783E-06  0.107E-03    0.07       5.8  T
  40   -530.8188284 -0.550220E-06  0.854E-04    0.07       7.2  T
  41   -530.8188289 -0.436271E-06  0.621E-04    0.07       9.9  T
  42   -530.8188292 -0.288674E-06  0.400E-04    0.07      15.4  T
  43   -530.8188293 -0.164687E-06  0.189E-04    0.07      32.6  T
  44   -530.8188293 -0.305461E-07  0.117E-04    0.07      52.6  T
     SCC iter.                  ...        0 min, 14.668 sec
     gradient                   ...        0 min,  0.769 sec
 * total energy  :  -523.9246022 Eh     change       -0.1299307E-01 Eh
   gradient norm :     0.0417051 Eh/α   predicted    -0.1658278E-01 (  27.63%)
   displ. norm   :     0.8084048 α      lambda       -0.1635502E-01
   maximum displ.:     0.4451604 α      in ANC's #16, #58, #28, ...

........................................................................
.............................. CYCLE   17 ..............................
........................................................................
   1   -530.8418261 -0.530842E+03  0.506E-02    0.06       0.0  T
   2   -518.1728344  0.126690E+02  0.294E+00    0.00       1.0  T
   3   -519.3649317 -0.119210E+01  0.281E+00    0.01       1.0  T
   4   -529.3847348 -0.100198E+02  0.101E+00    0.00       1.0  T
   5   -526.9915510  0.239318E+01  0.164E+00    0.01       1.0  T
   6   -529.1741166 -0.218257E+01  0.106E+00    0.05       1.0  T
   7   -518.2663733  0.109077E+02  0.288E+00    0.03       1.0  T
   8   -512.9600865  0.530629E+01  0.340E+00    0.04       1.0  T
   9   -519.4377993 -0.647771E+01  0.275E+00    0.01       1.0  T
  10   -530.3247263 -0.108869E+02  0.608E-01    0.06       1.0  T
  11   -529.0769256  0.124780E+01  0.115E+00    0.03       1.0  T
  12   -529.8744535 -0.797528E+00  0.795E-01    0.01       1.0  T
  13   -528.8801987  0.994255E+00  0.119E+00    0.01       1.0  T
  14   -529.4999158 -0.619717E+00  0.978E-01    0.01       1.0  T
  15   -528.5885379  0.911378E+00  0.127E+00    0.01       1.0  T
  16   -528.0629795  0.525558E+00  0.141E+00    0.00       1.0  T
  17   -528.7787297 -0.715750E+00  0.122E+00    0.00       1.0  T
  18   -530.2223086 -0.144358E+01  0.688E-01    0.01       1.0  T
  19   -529.6714857  0.550823E+00  0.930E-01    0.00       1.0  T
  20   -529.5632541  0.108232E+00  0.974E-01    0.00       1.0  T
  21   -529.7873229 -0.224069E+00  0.879E-01    0.01       1.0  T
  22   -530.6557847 -0.868462E+00  0.370E-01    0.03       1.0  T
  23   -530.8046068 -0.148822E+00  0.168E-01    0.05       1.0  T
  24   -530.8360204 -0.314137E-01  0.777E-02    0.06       1.0  T
  25   -530.8434224 -0.740194E-02  0.364E-02    0.07       1.0  T
  26   -530.8382267  0.519572E-02  0.715E-02    0.07       1.0  T
  27   -530.8353986  0.282807E-02  0.846E-02    0.07       1.0  T
  28   -530.8353178  0.808336E-04  0.849E-02    0.07       1.0  T
  29   -530.8391354 -0.381762E-02  0.658E-02    0.07       1.0  T
  30   -530.8414483 -0.231288E-02  0.507E-02    0.07       1.0  T
  31   -530.8415379 -0.895766E-04  0.490E-02    0.07       1.0  T
  32   -530.8429558 -0.141794E-02  0.367E-02    0.07       1.0  T
  33   -530.8440192 -0.106344E-02  0.237E-02    0.07       1.0  T
  34   -530.8443636 -0.344354E-03  0.173E-02    0.07       1.0  T
  35   -530.8445843 -0.220672E-03  0.118E-02    0.07       1.0  T
  36   -530.8446742 -0.899891E-04  0.853E-03    0.07       1.0  T
  37   -530.8446910 -0.167723E-04  0.776E-03    0.07       1.0  T
  38   -530.8447156 -0.246258E-04  0.647E-03    0.07       1.0  T
  39   -530.8447345 -0.188891E-04  0.528E-03    0.07       1.2  T
  40   -530.8447416 -0.708256E-05  0.475E-03    0.07       1.3  T
  41   -530.8447468 -0.522945E-05  0.431E-03    0.07       1.4  T
  42   -530.8447525 -0.567681E-05  0.376E-03    0.07       1.6  T
  43   -530.8447579 -0.542269E-05  0.315E-03    0.07       2.0  T
  44   -530.8447643 -0.636547E-05  0.224E-03    0.07       2.7  T
  45   -530.8447680 -0.372577E-05  0.146E-03    0.07       4.2  T
  46   -530.8447697 -0.168484E-05  0.922E-04    0.07       6.7  T
  47   -530.8447705 -0.797376E-06  0.494E-04    0.07      12.5  T
  48   -530.8447708 -0.283726E-06  0.161E-04    0.07      38.3  T
  49   -530.8447708 -0.317149E-07  0.297E-05    0.07     207.4  T
     SCC iter.                  ...        0 min, 16.423 sec
     gradient                   ...        0 min,  0.772 sec
 * total energy  :  -523.9363032 Eh     change       -0.1170107E-01 Eh
   gradient norm :     0.0371087 Eh/α   predicted    -0.1352168E-01 (  15.56%)
   displ. norm   :     0.8192129 α      lambda       -0.1324569E-01
   maximum displ.:     0.4724442 α      in ANC's #16, #58, #28, ...

........................................................................
.............................. CYCLE   18 ..............................
........................................................................
   1   -530.8826612 -0.530883E+03  0.265E-02    0.07       0.0  T
   2   -524.5505189  0.633214E+01  0.213E+00    0.00       1.0  T
   3   -530.3985736 -0.584805E+01  0.590E-01    0.05       1.0  T
   4   -528.2245277  0.217405E+01  0.136E+00    0.01       1.0  T
   5   -530.7669835 -0.254246E+01  0.298E-01    0.02       1.0  T
   6   -527.2302085  0.353678E+01  0.158E+00    0.02       1.0  T
   7   -529.5156112 -0.228540E+01  0.965E-01    0.01       1.0  T
   8   -530.4286029 -0.912992E+00  0.569E-01    0.06       1.0  T
   9   -530.7453511 -0.316748E+00  0.312E-01    0.08       1.0  T
  10   -530.6628894  0.824617E-01  0.386E-01    0.03       1.0  T
  11   -530.7357416 -0.728522E-01  0.324E-01    0.04       1.0  T
  12   -530.8485484 -0.112807E+00  0.154E-01    0.07       1.0  T
  13   -530.8565468 -0.799837E-02  0.132E-01    0.07       1.0  T
  14   -530.8729534 -0.164066E-01  0.847E-02    0.06       1.0  T
[...]
    23   6 C       24   6 C                                       1.4002552
    24   6 C       25   6 C                                       1.4294070
    25   6 C       26   6 C                                       1.3544363
    26   6 C       27   6 C                                       1.4331075
    24   6 C       28   7 N                                       1.3625830
    27   6 C       28   7 N                                       1.3754557
    27   6 C       29   6 C                                       1.3872311
    30   6 C       31   6 C                                       1.3950170
    31   6 C       32   6 C                                       1.3899459
    32   6 C       33   8 O                                       1.3552555
    32   6 C       34   6 C                                       1.3959312
    34   6 C       35   8 O                                       1.3700695
    34   6 C       36   6 C                                       1.3926760
    36   6 C       37   8 O                                       1.3701855
    30   6 C       38   6 C                                       1.3975649
    36   6 C       38   6 C                                       1.3891663
    29   6 C       39   6 C                                       1.3916314
    39   6 C       40   6 C                                       1.4343772
    40   6 C       41   6 C                                       1.3540582
     2   6 C       42   6 C                                       1.3795432
    41   6 C       42   6 C                                       1.4315092
    39   6 C       43   7 N                                       1.3682258
    42   6 C       43   7 N                                       1.3704891
     2   6 C       44   1 H                                       1.0842848
     4   6 C       45   1 H                                       1.0784634
     5   6 C       46   1 H                                       1.0778459
    10   6 C       47   1 H                                       1.0822896
    12   8 O       48   1 H                                       0.9714906
    14   8 O       49   1 H                                       0.9704911
    16   8 O       50   1 H                                       0.9662057
    17   6 C       51   1 H                                       1.0836315
    19   6 C       52   1 H                                       1.0777777
    20   6 C       53   1 H                                       1.0780999
    25   6 C       54   1 H                                       1.0780837
    26   6 C       55   1 H                                       1.0776802
    31   6 C       56   1 H                                       1.0823139
    33   8 O       57   1 H                                       0.9714378
    35   8 O       58   1 H                                       0.9704803
    37   8 O       59   1 H                                       0.9661750
    38   6 C       60   1 H                                       1.0836665
    40   6 C       61   1 H                                       1.0779972
    41   6 C       62   1 H                                       1.0784901
    64   6 C       65   6 C                                       1.3794757
    65   6 C       66   6 C                                       1.4317428
    66   6 C       67   6 C                                       1.3535453
    67   6 C       68   6 C                                       1.4346236
    65   6 C       69   7 N                                       1.3703205
    68   6 C       69   7 N                                       1.3688356
    68   6 C       70   6 C                                       1.3908360
    71   6 C       72   6 C                                       1.3943955
    72   6 C       73   6 C                                       1.3902332
    73   6 C       74   8 O                                       1.3551166
    73   6 C       75   6 C                                       1.3959368
    75   6 C       76   8 O                                       1.3701961
    75   6 C       77   6 C                                       1.3925215
    77   6 C       78   8 O                                       1.3701396
    71   6 C       79   6 C                                       1.3971380
    77   6 C       79   6 C                                       1.3893865
    70   6 C       80   6 C                                       1.3872692
    80   6 C       81   6 C                                       1.4329829
    81   6 C       82   6 C                                       1.3544273
    80   6 C       83   7 N                                       1.3752515
    82   6 C       84   6 C                                       1.4293736
    83   7 N       84   6 C                                       1.3626299
    84   6 C       85   6 C                                       1.4005161
    85   6 C       86   6 C                                       1.4003305
    86   6 C       87   6 C                                       1.4293831
    87   6 C       88   6 C                                       1.3543891
    88   6 C       89   6 C                                       1.4331157
    86   6 C       90   7 N                                       1.3625040
    89   6 C       90   7 N                                       1.3755175
    89   6 C       91   6 C                                       1.3871947
    92   6 C       93   6 C                                       1.3950361
    93   6 C       94   6 C                                       1.3899489
    94   6 C       95   8 O                                       1.3550728
    94   6 C       96   6 C                                       1.3960001
    96   6 C       97   8 O                                       1.3698106
    96   6 C       98   6 C                                       1.3927329
    98   6 C       99   8 O                                       1.3700839
    92   6 C      100   6 C                                       1.3975446
    98   6 C      100   6 C                                       1.3892139
    91   6 C      101   6 C                                       1.3916768
   101   6 C      102   6 C                                       1.4343374
   102   6 C      103   6 C                                       1.3540475
    64   6 C      104   6 C                                       1.3795355
   103   6 C      104   6 C                                       1.4314755
   101   6 C      105   7 N                                       1.3681956
   104   6 C      105   7 N                                       1.3704846
    64   6 C      106   1 H                                       1.0842884
    66   6 C      107   1 H                                       1.0784564
    67   6 C      108   1 H                                       1.0778494
    72   6 C      109   1 H                                       1.0822921
    74   8 O      110   1 H                                       0.9714751
    76   8 O      111   1 H                                       0.9704575
    78   8 O      112   1 H                                       0.9662019
    79   6 C      113   1 H                                       1.0836379
    81   6 C      114   1 H                                       1.0777712
    82   6 C      115   1 H                                       1.0780821
    87   6 C      116   1 H                                       1.0780742
    88   6 C      117   1 H                                       1.0776594
    93   6 C      118   1 H                                       1.0823163
    95   8 O      119   1 H                                       0.9714692
    97   8 O      120   1 H                                       0.9704865
    99   8 O      121   1 H                                       0.9661738
   100   6 C      122   1 H                                       1.0836605
   102   6 C      123   1 H                                       1.0779871
   103   6 C      124   1 H                                       1.0784871
   125   6 C      126   6 C                                       1.2305334
   127   6 C      128   6 C                                       1.2258453
   129   6 C      130   6 C                                       1.2261136
   131   6 C      132   6 C                                       1.2310259
   133   6 C      134   6 C                                       1.2264335
   135   6 C      136   6 C                                       1.2264485
   137   6 C      138   6 C                                       1.2306728
   139   6 C      140   6 C                                       1.2262098
   141   6 C      142   6 C                                       1.2259356
   144   6 C      145   6 C                                       1.4014600
   145   6 C      146   6 C                                       1.4282801
   146   6 C      147   6 C                                       1.3560143
   147   6 C      148   6 C                                       1.4317550
   145   6 C      149   7 N                                       1.3630114
   148   6 C      149   7 N                                       1.3728946
   148   6 C      150   6 C                                       1.3909002
   151   6 C      152   6 C                                       1.3956164
   152   6 C      153   6 C                                       1.3919714
   153   6 C      154   8 O                                       1.3580371
   153   6 C      155   6 C                                       1.3990700
   155   6 C      156   8 O                                       1.3572895
   155   6 C      157   6 C                                       1.3978878
   157   6 C      158   8 O                                       1.3705831
   151   6 C      159   6 C                                       1.3965481
   157   6 C      159   6 C                                       1.3874546
   150   6 C      160   6 C                                       1.3895800
   160   6 C      161   6 C                                       1.4321560
   161   6 C      162   6 C                                       1.3557351
   160   6 C      163   7 N                                       1.3742766
   162   6 C      164   6 C                                       1.4285040
   163   7 N      164   6 C                                       1.3618960
   164   6 C      165   6 C                                       1.4020674
   165   6 C      166   6 C                                       1.4013093
   166   6 C      167   6 C                                       1.4290479
   167   6 C      168   6 C                                       1.3553281
   168   6 C      169   6 C                                       1.4323158
   166   6 C      170   7 N                                       1.3623922
   169   6 C      170   7 N                                       1.3736642
   169   6 C      171   6 C                                       1.3891527
   172   6 C      173   6 C                                       1.3953575
   173   6 C      174   6 C                                       1.3899103
   174   6 C      175   8 O                                       1.3535578
   174   6 C      176   6 C                                       1.3965957
   176   6 C      177   8 O                                       1.3867473
   176   6 C      178   6 C                                       1.3936421
   178   6 C      179   8 O                                       1.3638577
   172   6 C      180   6 C                                       1.3951635
   178   6 C      180   6 C                                       1.3903574
   171   6 C      181   6 C                                       1.3898050
   181   6 C      182   6 C                                       1.4320812
   182   6 C      183   6 C                                       1.3555840
   144   6 C      184   6 C                                       1.4013281
   183   6 C      184   6 C                                       1.4286569
   181   6 C      185   7 N                                       1.3734112
   184   6 C      185   7 N                                       1.3626417
   146   6 C      186   1 H                                       1.0780867
   147   6 C      187   1 H                                       1.0777914
   152   6 C      188   1 H                                       1.0841276
   154   8 O      189   1 H                                       0.9662192
   156   8 O      190   1 H                                       0.9709114
   158   8 O      191   1 H                                       0.9660535
   159   6 C      192   1 H                                       1.0835947
   161   6 C      193   1 H                                       1.0777377
   162   6 C      194   1 H                                       1.0780780
   167   6 C      195   1 H                                       1.0780633
   168   6 C      196   1 H                                       1.0777071
   173   6 C      197   1 H                                       1.0822563
   175   8 O      198   1 H                                       0.9719568
   177   8 O      199   1 H                                       0.9661339
   179   8 O      200   1 H                                       0.9675424
   180   6 C      201   1 H                                       1.0822449
   182   6 C      202   1 H                                       1.0777353
   183   6 C      203   1 H                                       1.0780544
   205   6 C      206   6 C                                       1.4016819
   206   6 C      207   6 C                                       1.4285040
   207   6 C      208   6 C                                       1.3558073
   208   6 C      209   6 C                                       1.4319647
   206   6 C      210   7 N                                       1.3624888
   209   6 C      210   7 N                                       1.3734891
   209   6 C      211   6 C                                       1.3901864
   212   6 C      213   6 C                                       1.3956975
   213   6 C      214   6 C                                       1.3919161
   214   6 C      215   8 O                                       1.3578766
   214   6 C      216   6 C                                       1.3991449
   216   6 C      217   8 O                                       1.3571392
   216   6 C      218   6 C                                       1.3979082
   218   6 C      219   8 O                                       1.3705255
   212   6 C      220   6 C                                       1.3964986
   218   6 C      220   6 C                                       1.3875234
   211   6 C      221   6 C                                       1.3903394
   221   6 C      222   6 C                                       1.4319575
   222   6 C      223   6 C                                       1.3558532
   221   6 C      224   7 N                                       1.3736500
   223   6 C      225   6 C                                       1.4282958
   224   7 N      225   6 C                                       1.3624092
   225   6 C      226   6 C                                       1.4017835
   226   6 C      227   6 C                                       1.4012080
   227   6 C      228   6 C                                       1.4287585
   228   6 C      229   6 C                                       1.3555464
   229   6 C      230   6 C                                       1.4320155
   227   6 C      231   7 N                                       1.3629068
   230   6 C      231   7 N                                       1.3729907
   230   6 C      232   6 C                                       1.3899944
   233   6 C      234   6 C                                       1.3953787
   234   6 C      235   6 C                                       1.3898733
   235   6 C      236   8 O                                       1.3533785
   235   6 C      237   6 C                                       1.3966368
   237   6 C      238   8 O                                       1.3863536
   237   6 C      239   6 C                                       1.3935765
   239   6 C      240   8 O                                       1.3643637
   233   6 C      241   6 C                                       1.3951433
   239   6 C      241   6 C                                       1.3903218
   232   6 C      242   6 C                                       1.3889923
   242   6 C      243   6 C                                       1.4322792
   243   6 C      244   6 C                                       1.3554426
   205   6 C      245   6 C                                       1.4017465
   244   6 C      245   6 C                                       1.4288321
   242   6 C      246   7 N                                       1.3741296
   245   6 C      246   7 N                                       1.3619420
   207   6 C      247   1 H                                       1.0780845
   208   6 C      248   1 H                                       1.0777765
   213   6 C      249   1 H                                       1.0841297
   215   8 O      250   1 H                                       0.9662408
   217   8 O      251   1 H                                       0.9709122
   219   8 O      252   1 H                                       0.9660238 (min)
   220   6 C      253   1 H                                       1.0835860
   222   6 C      254   1 H                                       1.0777293
   223   6 C      255   1 H                                       1.0780593
   228   6 C      256   1 H                                       1.0780456
   229   6 C      257   1 H                                       1.0777004
   234   6 C      258   1 H                                       1.0822654
   236   8 O      259   1 H                                       0.9719139
   238   8 O      260   1 H                                       0.9661727
   240   8 O      261   1 H                                       0.9674997
   241   6 C      262   1 H                                       1.0822395
   243   6 C      263   1 H                                       1.0777262
   244   6 C      264   1 H                                       1.0780621

 * 5 distinct bonds (by element types)

   Z      Z             #   av. dist./Å        max./Å        min./Å
   1 H    6 C          50     1.0798414     1.0842884     1.0776594
   6 C    6 C         137     1.3867999     1.4346917     1.2258453
   6 C    7 N          32     1.3686212     1.3755175     1.3618960
   1 H    8 O          24     0.9687552     0.9719568     0.9660238
   6 C    8 O          24     1.3650448     1.3867473     1.3533785


optimized geometry written to: xtbopt.xyz


           -------------------------------------------------
          | TOTAL ENERGY             -524.069797315102 Eh   |
          | GRADIENT NORM               0.000933993067 Eh/α |
          | HOMO-LUMO GAP               0.036236861023 eV   |
           -------------------------------------------------

------------------------------------------------------------------------
 * finished run on 2022/07/29 at 22:26:05.409     
------------------------------------------------------------------------
 total:
 * wall-time:     0 d,  0 h, 17 min, 32.581 sec
 *  cpu-time:     0 d,  0 h, 17 min, 26.465 sec
 * ratio c/w:     0.994 speedup
 SCF:
 * wall-time:     0 d,  0 h,  0 min, 41.201 sec
 *  cpu-time:     0 d,  0 h,  0 min, 40.963 sec
 * ratio c/w:     0.994 speedup
 ANC optimizer:
 * wall-time:     0 d,  0 h, 16 min, 51.027 sec
 *  cpu-time:     0 d,  0 h, 16 min, 45.185 sec
 * ratio c/w:     0.994 speedup

