      -----------------------------------------------------------      
     |                   =====================                   |     
     |                           x T B                           |     
     |                   =====================                   |     
     |                         S. Grimme                         |     
     |          Mulliken Center for Theoretical Chemistry        |     
     |                    University of Bonn                     |     
      -----------------------------------------------------------      

   * xtb version 6.5.1 (b24c23e) compiled by 'conda@728c89f4b128' on 2022-07-12

   xtb is free software: you can redistribute it and/or modify it under
   the terms of the GNU Lesser General Public License as published by
   the Free Software Foundation, either version 3 of the License, or
   (at your option) any later version.
   
   xtb is distributed in the hope that it will be useful,
   but WITHOUT ANY WARRANTY; without even the implied warranty of
   MERCHANTABILITY or FITNESS FOR A PARTICULAR PURPOSE.  See the
   GNU Lesser General Public License for more details.
   
   Cite this work as:
   * C. Bannwarth, E. Caldeweyher, S. Ehlert, A. Hansen, P. Pracht,
     J. Seibert, S. Spicher, S. Grimme, WIREs Comput. Mol. Sci., 2020, 11,
     e01493. DOI: 10.1002/wcms.1493
   
   for GFN2-xTB:
   * C. Bannwarth, S. Ehlert and S. Grimme., J. Chem. Theory Comput., 2019,
     15, 1652-1671. DOI: 10.1021/acs.jctc.8b01176
   for GFN1-xTB:
   * S. Grimme, C. Bannwarth, P. Shushkov, J. Chem. Theory Comput., 2017,
     13, 1989-2009. DOI: 10.1021/acs.jctc.7b00118
   for GFN0-xTB:
   * P. Pracht, E. Caldeweyher, S. Ehlert, S. Grimme, ChemRxiv, 2019, preprint.
     DOI: 10.26434/chemrxiv.8326202.v1
   for GFN-FF:
   * S. Spicher and S. Grimme, Angew. Chem. Int. Ed., 2020, 59, 15665-15673.
     DOI: 10.1002/anie.202004239
   
   for ALPB and GBSA implicit solvation:
   * S. Ehlert, M. Stahn, S. Spicher, S. Grimme, J. Chem. Theory Comput.,
     2021, 17, 4250-4261. DOI: 10.1021/acs.jctc.1c00471
   
   for DFT-D4:
   * E. Caldeweyher, C. Bannwarth and S. Grimme, J. Chem. Phys., 2017,
     147, 034112. DOI: 10.1063/1.4993215
   * E. Caldeweyher, S. Ehlert, A. Hansen, H. Neugebauer, S. Spicher,
     C. Bannwarth and S. Grimme, J. Chem. Phys., 2019, 150, 154122.
     DOI: 10.1063/1.5090222
   * E. Caldeweyher, J.-M. Mewes, S. Ehlert and S. Grimme, Phys. Chem. Chem. Phys.
     2020, 22, 8499-8512. DOI: 10.1039/D0CP00502A
   
   for sTDA-xTB:
   * S. Grimme and C. Bannwarth, J. Chem. Phys., 2016, 145, 054103.
     DOI: 10.1063/1.4959605
   
   in the mass-spec context:
   * V. Asgeirsson, C. Bauer and S. Grimme, Chem. Sci., 2017, 8, 4879.
     DOI: 10.1039/c7sc00601b
   * J. Koopman and S. Grimme, ACS Omega 2019, 4, 12, 15120-15133.
     DOI: 10.1021/acsomega.9b02011
   
   for metadynamics refer to:
   * S. Grimme, J. Chem. Theory Comput., 2019, 155, 2847-2862
     DOI: 10.1021/acs.jctc.9b00143
   
   for SPH calculations refer to:
   * S. Spicher and S. Grimme, J. Chem. Theory Comput., 2021, 17, 1701-1714
     DOI: 10.1021/acs.jctc.0c01306
   
   with help from (in alphabetical order)
   P. Atkinson, C. Bannwarth, F. Bohle, G. Brandenburg, E. Caldeweyher
   M. Checinski, S. Dohm, S. Ehlert, S. Ehrlich, I. Gerasimov, C. Hölzer
   A. Katbashev, J. Koopman, C. Lavigne, S. Lehtola, F. März, M. Müller,
   F. Musil, H. Neugebauer, J. Pisarek, C. Plett, P. Pracht, F. Pultar,
   J. Seibert, P. Shushkov, S. Spicher, M. Stahn, M. Steiner, T. Strunk,
   J. Stückrath, T. Rose, and J. Unsleber
   
 * started run on 2022/07/31 at 06:49:20.380     

           -------------------------------------------------
          |                Calculation Setup                |
           -------------------------------------------------

          program call               : xtb NMA_C6_9.xyz --gfn 1 --opt -T 48
          hostname                   : cx3-15-19.cx3.hpc.ic.ac.uk
          coordinate file            : NMA_C6_9.xyz
          omp threads                :                     1

   ID    Z sym.   atoms
    1    6 C      1-5, 7-11, 13-18, 20-25, 27-31, 33-39, 68-72, 74-78, 80-85,
                  87-92, 94-98, 100-106, 135-187, 189-193, 195-200, 202-207,
                  209-213, 215-221, 249-253, 255-259, 261-266, 268-273,
                  275-279, 281-287, 315-319, 321-325, 327-332, 334-339,
                  341-345, 347-353, 381-385, 387-391, 393-398, 400-405,
                  407-411, 413-419, 447-451, 453-457, 459-464, 466-471,
                  473-477, 479-485, 513-517, 519-523, 525-530, 532-537,
                  539-543, 545-551, 579-583, 585-589, 591-596, 598-603,
                  605-609, 611-617
    2    7 N      6, 12, 19, 26, 32, 40, 73, 79, 86, 93, 99, 107, 188, 194,
                  201, 208, 214, 222, 254, 260, 267, 274, 280, 288, 320, 326,
                  333, 340, 346, 354, 386, 392, 399, 406, 412, 420, 452, 458,
                  465, 472, 478, 486, 518, 524, 531, 538, 544, 552, 584, 590,
                  597, 604, 610, 618
    3    1 H      41-67, 108-134, 223-248, 289-314, 355-380, 421-446,
                  487-512, 553-578, 619-644

molecular fragmentation (1/2 indicates fragments):
111111111111111111111111111111111111111111111111111111111111111111122222
222222222222222222222222222222222222222222222222222222222222222222222222
222222222222222222222222222222222222222222222222222222222222222222222222
222222222222222222222222222222222222222222222222222222222222222222222222
222222222222222222222222222222222222222222222222222222222222222222222222
222222222222222222222222222222222222222222222222222222222222222222222222
222222222222222222222222222222222222222222222222222222222222222222222222
222222222222222222222222222222222222222222222222222222222222222222222222
22222222222222222222222222222222222222222222222222222222222222222222
# atoms in fragment 1/2:    67   577
 fragment masses (1/2) :      519.62     4726.42
CMA distance (Bohr)    : 134.839
constraining FC (au)   :  0.0500
########################################################################
[WARNING] Please study the warnings concerning your input carefully
-1- prog_main_parseArguments: Unknown option '-T' provided
########################################################################

           -------------------------------------------------
          |                 G F N 1 - x T B                 |
           -------------------------------------------------

        Reference                      10.1021/acs.jctc.7b00118
      * Hamiltonian:
        H0-scaling (s, p, d)           1.850000    2.250000    2.000000
        zeta-weighting                 0.000000
      * Dispersion:
        s8                             2.400000
        a1                             0.630000
        a2                             5.000000
        s9                             0.000000
      * Repulsion:
        kExp                           1.500000
        rExp                           1.000000
      * Coulomb:
        alpha                          2.000000
        third order                    atomic
        anisotropic                    false
      * Halogen bond correction:
        rad-scale                      1.300000
        damping                        0.440000


          ...................................................
          :                      SETUP                      :
          :.................................................:
          :  # basis functions                2104          :
          :  # atomic orbitals                2104          :
          :  # shells                         1288          :
          :  # electrons                      1922          :
          :  # halogen bonds                     0          :
          :  max. iterations                   250          :
          :  Hamiltonian                  GFN1-xTB          :
          :  restarted?                      false          :
          :  GBSA solvation                  false          :
          :  PC potential                    false          :
          :  electronic temp.          300.0000000     K    :
          :  accuracy                    1.0000000          :
          :  -> integral cutoff          0.2500000E+02      :
          :  -> integral neglect         0.1000000E-07      :
          :  -> SCF convergence          0.1000000E-05 Eh   :
          :  -> wf. convergence          0.2000000E-04 e    :
          :  Broyden damping             0.4000000          :
          ...................................................

 iter      E             dE          RMSdq      gap      omega  full diag
   1  -1062.1660488 -0.106217E+04  0.102E+01    0.01       0.0  T
   2  -1062.1447996  0.212492E-01  0.614E+00    0.08       1.0  T
   3   -767.0279351  0.295117E+03  0.544E+00    0.06       1.0  T
   4   -186.7935841  0.580234E+03  0.701E+00    0.01       1.0  T
   5      1.2267737  0.188020E+03  0.732E+00    0.01       1.0  T
   6   -957.2524089 -0.958479E+03  0.303E+00    0.02       1.0  T
   7   -907.3086939  0.499437E+02  0.337E+00    0.00       1.0  T
   8  -1057.2220298 -0.149913E+03  0.120E+00    0.03       1.0  T
   9  -1061.6892835 -0.446725E+01  0.719E-01    0.08       1.0  T
  10  -1062.2314915 -0.542208E+00  0.597E-01    0.19       1.0  T
  11  -1062.1933410  0.381505E-01  0.583E-01    0.03       1.0  T
  12  -1062.1073103  0.860308E-01  0.537E-01    0.07       1.0  T
  13  -1062.1915635 -0.842532E-01  0.490E-01    0.10       1.0  T
  14  -1062.8392611 -0.647698E+00  0.364E-01    0.04       1.0  T
  15  -1062.8414370 -0.217589E-02  0.292E-01    0.04       1.0  T
  16  -1062.9063789 -0.649419E-01  0.301E-01    0.14       1.0  T
  17  -1063.0506399 -0.144261E+00  0.235E-01    0.17       1.0  T
  18  -1063.2070055 -0.156366E+00  0.191E-01    0.04       1.0  T
  19  -1063.1938955  0.131100E-01  0.158E-01    0.07       1.0  T
  20  -1063.3011438 -0.107248E+00  0.125E-01    0.06       1.0  T
  21  -1063.2797462  0.213976E-01  0.120E-01    0.06       1.0  T
  22  -1063.3426997 -0.629535E-01  0.952E-02    0.04       1.0  T
  23  -1063.3649883 -0.222887E-01  0.842E-02    0.05       1.0  T
  24  -1063.3759081 -0.109198E-01  0.703E-02    0.03       1.0  T
  25  -1063.3846836 -0.877549E-02  0.713E-02    0.03       1.0  T
  26  -1063.3928923 -0.820867E-02  0.586E-02    0.02       1.0  T
  27  -1063.3949238 -0.203145E-02  0.522E-02    0.02       1.0  T
  28  -1063.4002265 -0.530277E-02  0.407E-02    0.01       1.0  T
  29  -1063.4020966 -0.187011E-02  0.372E-02    0.01       1.0  T
  30  -1063.4034877 -0.139108E-02  0.277E-02    0.01       1.0  T
  31  -1063.4051321 -0.164435E-02  0.127E-02    0.01       1.0  T
  32  -1063.4049672  0.164835E-03  0.175E-02    0.01       1.0  T
  33  -1063.4052449 -0.277678E-03  0.133E-02    0.01       1.0  T
  34  -1063.4056318 -0.386888E-03  0.488E-03    0.01       1.0  T
  35  -1063.4056408 -0.904170E-05  0.448E-03    0.01       1.0  T
  36  -1063.4056471 -0.628275E-05  0.433E-03    0.01       1.0  T
  37  -1063.4056693 -0.221945E-04  0.295E-03    0.01       1.3  T
  38  -1063.4056855 -0.162049E-04  0.201E-03    0.01       2.0  T
  39  -1063.4056933 -0.774918E-05  0.176E-03    0.01       2.2  T
  40  -1063.4056989 -0.564050E-05  0.154E-03    0.01       2.6  T
  41  -1063.4057035 -0.457394E-05  0.102E-03    0.01       3.9  T
  42  -1063.4057066 -0.314565E-05  0.723E-04    0.01       5.4  T
  43  -1063.4057076 -0.100374E-05  0.677E-04    0.01       5.8  T
  44  -1063.4057084 -0.731741E-06  0.427E-04    0.01       9.2  T
  45  -1063.4057088 -0.463610E-06  0.248E-04    0.01      15.9  T
  46  -1063.4057091 -0.263624E-06  0.194E-04    0.01      20.3  T
  47  -1063.4057093 -0.198051E-06  0.102E-04    0.01      38.7  T

   *** convergence criteria satisfied after 47 iterations ***

         #    Occupation            Energy/Eh            Energy/eV
      -------------------------------------------------------------
         1        2.0000           -0.7934648             -21.5913
       ...           ...                  ...                  ...
       955        2.0000           -0.3757786             -10.2255
       956        2.0000           -0.3723158             -10.1312
       957        2.0000           -0.3693499             -10.0505
       958        2.0000           -0.3688740             -10.0376
       959        2.0000           -0.3679792             -10.0132
       960        1.9994           -0.3647190              -9.9245
       961        1.0937           -0.3572217              -9.7205 (HOMO)
       962        0.9036           -0.3568594              -9.7106 (LUMO)
       963        0.0016           -0.3502776              -9.5315
       964        0.0011           -0.3499373              -9.5223
       965        0.0005           -0.3492231              -9.5028
       966        0.0000           -0.3461613              -9.4195
       ...           ...                  ...                  ...
      2104                          3.9053411             106.2697
      -------------------------------------------------------------
                  HL-Gap            0.0003624 Eh            0.0099 eV
             Fermi-level           -0.3570431 Eh           -9.7156 eV

 SCC (total)                   0 d,  0 h,  2 min, 41.997 sec
 SCC setup                      ...        0 min,  0.107 sec (  0.066%)
 Dispersion                     ...        0 min,  0.052 sec (  0.032%)
 classical contributions        ...        0 min,  0.010 sec (  0.006%)
 integral evaluation            ...        0 min,  1.219 sec (  0.752%)
 iterations                     ...        2 min, 37.962 sec ( 97.509%)
 molecular gradient             ...        0 min,  2.119 sec (  1.308%)
 printout                       ...        0 min,  0.528 sec (  0.326%)

         :::::::::::::::::::::::::::::::::::::::::::::::::::::
         ::                     SUMMARY                     ::
         :::::::::::::::::::::::::::::::::::::::::::::::::::::
         :: total energy           -1042.565290723746 Eh    ::
         :: gradient norm              4.833219162719 Eh/a0 ::
         :: HOMO-LUMO gap              0.009860233933 eV    ::
         ::.................................................::
         :: SCC energy             -1063.405709290824 Eh    ::
         :: -> electrostatic           0.782340360031 Eh    ::
         :: repulsion energy          21.357696168174 Eh    ::
         :: dispersion energy         -0.517277601096 Eh    ::
         :: halogen bond corr.         0.000000000000 Eh    ::
         :: add. restraining           0.000000000000 Eh    ::
         :: total charge              -0.000000000019 e     ::
         :::::::::::::::::::::::::::::::::::::::::::::::::::::

      ----------------------------------------------------------- 
     |                       L-ANC optimizer                     |
      ----------------------------------------------------------- 
          low memory version by Sebastian Ehlert

          ...................................................
          :                      SETUP                      :
          :.................................................:
          :   energy convergence        0.5000000E-05 Eh    :
          :   grad. convergence         0.1000000E-02 Eh/a0 :
          :   optimization log               true           :
          :   writing optlog all                1     steps :
          :   Hessian reset                    20     steps :
          :   maximium step len.        1.0000000     a0    :
          :   LBFGS images                     20           :
          ...................................................
 * calculating model hessian...
Using Lindh-Hessian (1995)
 Shifting diagonal of input Hessian by    1.0019147015336785E-002
 Lowest  eigenvalues of input Hessian
    0.010000    0.010010    0.010013    0.010014    0.010014    0.010015
    0.010016    0.010016    0.010017    0.010017    0.010018    0.010018
    0.010018    0.010019    0.010019    0.000000    0.000000    0.000000
 Highest eigenvalues
    4.053534    4.053537    4.053542    4.053543    4.053544    4.053545


........................................................................
.............................. CYCLE    1 ..............................
........................................................................
   1  -1063.5946260 -0.106359E+04  0.153E-01    0.10       0.0  T
   2  -1063.5355537  0.590723E-01  0.172E-01    0.17       1.0  T
   3  -1063.4953926  0.401612E-01  0.167E-01    0.14       1.0  T
   4  -1063.5925184 -0.971258E-01  0.699E-02    0.09       1.0  T
   5  -1063.6128046 -0.202862E-01  0.351E-02    0.09       1.0  T
   6  -1063.6159774 -0.317289E-02  0.235E-02    0.09       1.0  T
   7  -1063.6164916 -0.514199E-03  0.170E-02    0.09       1.0  T
   8  -1063.6159792  0.512458E-03  0.191E-02    0.08       1.0  T
   9  -1063.6168694 -0.890196E-03  0.943E-03    0.09       1.0  T
  10  -1063.6171483 -0.278953E-03  0.283E-03    0.09       1.4  T
  11  -1063.6171408  0.750995E-05  0.245E-03    0.09       1.6  T
  12  -1063.6171642 -0.233275E-04  0.845E-04    0.09       4.7  T
  13  -1063.6171650 -0.811562E-06  0.538E-04    0.09       7.3  T
  14  -1063.6171657 -0.780130E-06  0.297E-04    0.09      13.3  T
  15  -1063.6171660 -0.291250E-06  0.117E-04    0.09      33.7  T
  16  -1063.6171661 -0.272164E-07  0.879E-05    0.09      44.8  T
     SCC iter.                  ...        0 min, 55.828 sec
     gradient                   ...        0 min,  2.096 sec
 * total energy  : -1044.7505915 Eh     change       -0.2185301E+01 Eh
   gradient norm :     1.7444700 Eh/a0  converged?    E=F G=F D=F
   step length   :     0.7342494 a0

........................................................................
.............................. CYCLE    2 ..............................
........................................................................
   1  -1063.6840477 -0.106368E+04  0.404E-02    0.12       0.0  T
   2  -1063.6841377 -0.900017E-04  0.445E-02    0.11       1.0  T
   3  -1063.6847322 -0.594427E-03  0.301E-02    0.11       1.0  T
   4  -1063.6850327 -0.300521E-03  0.269E-02    0.11       1.0  T
   5  -1063.6844118  0.620869E-03  0.232E-02    0.11       1.0  T
   6  -1063.6854922 -0.108039E-02  0.138E-02    0.11       1.0  T
   7  -1063.6860912 -0.598985E-03  0.384E-03    0.11       1.0  T
   8  -1063.6861385 -0.472731E-04  0.195E-03    0.11       2.0  T
   9  -1063.6861541 -0.156402E-04  0.119E-03    0.11       3.3  T
  10  -1063.6861583 -0.420331E-05  0.499E-04    0.11       7.9  T
  11  -1063.6861589 -0.611973E-06  0.131E-04    0.11      30.0  T
  12  -1063.6861589 -0.245197E-07  0.837E-05    0.11      47.1  T
     SCC iter.                  ...        0 min, 40.897 sec
     gradient                   ...        0 min,  2.125 sec
 * total energy  : -1045.2348079 Eh     change       -0.4842164E+00 Eh
   gradient norm :     1.4443632 Eh/a0  converged?    E=F G=F D=F
   step length   :     3.7267787 a0

........................................................................
.............................. CYCLE    3 ..............................
........................................................................
   1  -1063.7613214 -0.106376E+04  0.331E-02    0.15       0.0  T
   2  -1063.7618085 -0.487063E-03  0.264E-02    0.14       1.0  T
   3  -1063.7617838  0.247106E-04  0.182E-02    0.14       1.0  T
   4  -1063.7615916  0.192150E-03  0.179E-02    0.14       1.0  T
   5  -1063.7622470 -0.655341E-03  0.836E-03    0.14       1.0  T
   6  -1063.7623120 -0.650818E-04  0.616E-03    0.14       1.0  T
   7  -1063.7624204 -0.108395E-03  0.183E-03    0.14       2.2  T
   8  -1063.7624273 -0.687275E-05  0.103E-03    0.14       3.8  T
   9  -1063.7624313 -0.394940E-05  0.270E-04    0.14      14.6  T
  10  -1063.7624314 -0.133496E-06  0.166E-04    0.14      23.7  T
  11  -1063.7624315 -0.613541E-07  0.996E-05    0.14      39.6  T
     SCC iter.                  ...        0 min, 37.727 sec
     gradient                   ...        0 min,  2.124 sec
 * total energy  : -1045.5081747 Eh     change       -0.2733668E+00 Eh
   gradient norm :     1.2623256 Eh/a0  converged?    E=F G=F D=F
   step length   :     9.0923842 a0

........................................................................
.............................. CYCLE    4 ..............................
........................................................................
   1  -1063.8442840 -0.106384E+04  0.284E-02    0.18       0.0  T
   2  -1063.8445652 -0.281147E-03  0.273E-02    0.17       1.0  T
   3  -1063.8449025 -0.337279E-03  0.140E-02    0.17       1.0  T
   4  -1063.8444517  0.450803E-03  0.209E-02    0.17       1.0  T
   5  -1063.8450707 -0.619035E-03  0.575E-03    0.17       1.0  T
   6  -1063.8450939 -0.232282E-04  0.306E-03    0.17       1.3  T
   7  -1063.8451129 -0.189704E-04  0.110E-03    0.17       3.6  T
   8  -1063.8451153 -0.239284E-05  0.369E-04    0.17      10.7  T
   9  -1063.8451155 -0.191453E-06  0.217E-04    0.17      18.1  T
  10  -1063.8451156 -0.135351E-06  0.930E-05    0.17      42.4  T
  11  -1063.8451156 -0.185939E-07  0.441E-05    0.17      89.3  T
     SCC iter.                  ...        0 min, 38.361 sec
     gradient                   ...        0 min,  2.134 sec
 * total energy  : -1045.7208293 Eh     change       -0.2126546E+00 Eh
   gradient norm :     1.1188013 Eh/a0  converged?    E=F G=F D=F
   step length   :    19.4317478 a0

........................................................................
.............................. CYCLE    5 ..............................
........................................................................
   1  -1063.9264102 -0.106393E+04  0.287E-02    0.21       0.0  T
   2  -1063.9267617 -0.351496E-03  0.254E-02    0.21       1.0  T
   3  -1063.9270448 -0.283164E-03  0.118E-02    0.21       1.0  T
   4  -1063.9265301  0.514714E-03  0.188E-02    0.21       1.0  T
   5  -1063.9270981 -0.568021E-03  0.455E-03    0.21       1.0  T
   6  -1063.9271150 -0.168294E-04  0.232E-03    0.21       1.7  T
   7  -1063.9271243 -0.929131E-05  0.758E-04    0.21       5.2  T
   8  -1063.9271254 -0.113690E-05  0.233E-04    0.21      16.9  T
   9  -1063.9271255 -0.677830E-07  0.127E-04    0.21      31.1  T
  10  -1063.9271255 -0.246907E-07  0.746E-05    0.21      52.8  T
     SCC iter.                  ...        0 min, 35.305 sec
     gradient                   ...        0 min,  2.200 sec
 * total energy  : -1045.8914769 Eh     change       -0.1706476E+00 Eh
   gradient norm :     0.9959131 Eh/a0  converged?    E=F G=F D=F
   step length   :    12.7034987 a0

........................................................................
.............................. CYCLE    6 ..............................
........................................................................
   1  -1063.9853009 -0.106399E+04  0.238E-02    0.25       0.0  T
   2  -1063.9855940 -0.293150E-03  0.195E-02    0.24       1.0  T
   3  -1063.9858137 -0.219681E-03  0.797E-03    0.24       1.0  T
   4  -1063.9856426  0.171062E-03  0.112E-02    0.24       1.0  T
   5  -1063.9858409 -0.198296E-03  0.324E-03    0.24       1.2  T
   6  -1063.9858485 -0.754234E-05  0.155E-03    0.24       2.5  T
   7  -1063.9858521 -0.366173E-05  0.536E-04    0.24       7.4  T
   8  -1063.9858527 -0.595855E-06  0.178E-04    0.24      22.1  T
   9  -1063.9858528 -0.427790E-07  0.848E-05    0.24      46.5  T
     SCC iter.                  ...        0 min, 31.266 sec
     gradient                   ...        0 min,  2.166 sec
 * total energy  : -1046.0220000 Eh     change       -0.1305231E+00 Eh
   gradient norm :     0.8820704 Eh/a0  converged?    E=F G=F D=F
   step length   :    12.2391807 a0

........................................................................
.............................. CYCLE    7 ..............................
........................................................................
   1  -1064.0470335 -0.106405E+04  0.223E-02    0.29       0.0  T
   2  -1064.0473052 -0.271712E-03  0.175E-02    0.28       1.0  T
   3  -1064.0475088 -0.203571E-03  0.715E-03    0.28       1.0  T
   4  -1064.0474056  0.103162E-03  0.919E-03    0.28       1.0  T
   5  -1064.0475359 -0.130292E-03  0.287E-03    0.28       1.4  T
   6  -1064.0475425 -0.657671E-05  0.127E-03    0.28       3.1  T
   7  -1064.0475451 -0.264094E-05  0.440E-04    0.28       9.0  T
   8  -1064.0475455 -0.427392E-06  0.131E-04    0.28      30.0  T
   9  -1064.0475456 -0.176638E-07  0.652E-05    0.28      60.4  T
     SCC iter.                  ...        0 min, 30.510 sec
     gradient                   ...        0 min,  2.069 sec
 * total energy  : -1046.1357677 Eh     change       -0.1137677E+00 Eh
   gradient norm :     0.7673591 Eh/a0  converged?    E=F G=F D=F
   step length   :    12.9442999 a0

........................................................................
.............................. CYCLE    8 ..............................
........................................................................
   1  -1064.1055461 -0.106411E+04  0.196E-02    0.33       0.0  T
   2  -1064.1057998 -0.253641E-03  0.147E-02    0.33       1.0  T
   3  -1064.1059584 -0.158623E-03  0.592E-03    0.33       1.0  T
   4  -1064.1059060  0.524099E-04  0.671E-03    0.33       1.0  T
   5  -1064.1059755 -0.695165E-04  0.232E-03    0.33       1.7  T
   6  -1064.1059808 -0.526723E-05  0.816E-04    0.33       4.8  T
   7  -1064.1059817 -0.910555E-06  0.393E-04    0.33      10.0  T
   8  -1064.1059820 -0.340491E-06  0.102E-04    0.33      38.5  T
   9  -1064.1059820 -0.908904E-08  0.464E-05    0.33      84.9  T
     SCC iter.                  ...        0 min, 28.910 sec
     gradient                   ...        0 min,  2.080 sec
 * total energy  : -1046.2325008 Eh     change       -0.9673312E-01 Eh
   gradient norm :     0.6540156 Eh/a0  converged?    E=F G=F D=F
   step length   :    11.9470592 a0

........................................................................
.............................. CYCLE    9 ..............................
........................................................................
   1  -1064.1517516 -0.106415E+04  0.188E-02    0.37       0.0  T
   2  -1064.1519808 -0.229269E-03  0.141E-02    0.37       1.0  T
   3  -1064.1521283 -0.147484E-03  0.541E-03    0.37       1.0  T
   4  -1064.1520898  0.385220E-04  0.577E-03    0.37       1.0  T
   5  -1064.1521388 -0.490514E-04  0.207E-03    0.37       1.9  T
   6  -1064.1521436 -0.480555E-05  0.551E-04    0.37       7.2  T
   7  -1064.1521440 -0.319844E-06  0.313E-04    0.37      12.6  T
   8  -1064.1521442 -0.213744E-06  0.927E-05    0.37      42.5  T
   9  -1064.1521442 -0.902401E-08  0.316E-05    0.37     124.8  T
     SCC iter.                  ...        0 min, 28.161 sec
     gradient                   ...        0 min,  2.167 sec
 * total energy  : -1046.3112392 Eh     change       -0.7873838E-01 Eh
   gradient norm :     0.5442410 Eh/a0  converged?    E=F G=F D=F
   step length   :     7.6419420 a0

........................................................................
.............................. CYCLE   10 ..............................
........................................................................
   1  -1064.1923412 -0.106419E+04  0.173E-02    0.42       0.0  T
   2  -1064.1925175 -0.176287E-03  0.137E-02    0.41       1.0  T
   3  -1064.1926603 -0.142795E-03  0.490E-03    0.42       1.0  T
   4  -1064.1926322  0.281520E-04  0.517E-03    0.42       1.0  T
   5  -1064.1926674 -0.352186E-04  0.183E-03    0.42       2.1  T
   6  -1064.1926706 -0.321366E-05  0.450E-04    0.41       8.8  T
   7  -1064.1926708 -0.251795E-06  0.199E-04    0.41      19.8  T
   8  -1064.1926709 -0.708342E-07  0.808E-05    0.41      48.8  T
     SCC iter.                  ...        0 min, 25.551 sec
     gradient                   ...        0 min,  2.106 sec
 * total energy  : -1046.3728400 Eh     change       -0.6160084E-01 Eh
   gradient norm :     0.4421143 Eh/a0  converged?    E=F G=F D=F
   step length   :     6.0670518 a0

........................................................................
.............................. CYCLE   11 ..............................
........................................................................
   1  -1064.2411909 -0.106424E+04  0.166E-02    0.46       0.0  T
   2  -1064.2413534 -0.162494E-03  0.131E-02    0.46       1.0  T
   3  -1064.2414797 -0.126321E-03  0.443E-03    0.46       1.0  T
   4  -1064.2414621  0.175939E-04  0.414E-03    0.46       1.0  T
   5  -1064.2414807 -0.185700E-04  0.172E-03    0.46       2.3  T
   6  -1064.2414846 -0.391016E-05  0.382E-04    0.46      10.3  T
   7  -1064.2414848 -0.211031E-06  0.145E-04    0.46      27.1  T
   8  -1064.2414848 -0.313175E-07  0.663E-05    0.46      59.4  T
     SCC iter.                  ...        0 min, 25.740 sec
     gradient                   ...        0 min,  2.082 sec
 * total energy  : -1046.4215126 Eh     change       -0.4867255E-01 Eh
   gradient norm :     0.3463221 Eh/a0  converged?    E=F G=F D=F
   step length   :     5.3060927 a0

........................................................................
.............................. CYCLE   12 ..............................
........................................................................
   1  -1064.2875675 -0.106429E+04  0.163E-02    0.51       0.0  T
   2  -1064.2876974 -0.129907E-03  0.135E-02    0.51       1.0  T
   3  -1064.2878348 -0.137417E-03  0.441E-03    0.51       1.0  T
   4  -1064.2878143  0.204292E-04  0.446E-03    0.51       1.0  T
   5  -1064.2878386 -0.242931E-04  0.159E-03    0.51       2.5  T
   6  -1064.2878410 -0.231270E-05  0.350E-04    0.51      11.3  T
   7  -1064.2878411 -0.168437E-06  0.140E-04    0.51      28.1  T
   8  -1064.2878412 -0.277637E-07  0.569E-05    0.51      69.3  T
     SCC iter.                  ...        0 min, 26.518 sec
     gradient                   ...        0 min,  2.123 sec
 * total energy  : -1046.4583797 Eh     change       -0.3686714E-01 Eh
   gradient norm :     0.2599621 Eh/a0  converged?    E=F G=F D=F
   step length   :     4.4131303 a0

........................................................................
.............................. CYCLE   13 ..............................
........................................................................
   1  -1064.3316502 -0.106433E+04  0.150E-02    0.55       0.0  T
   2  -1064.3317589 -0.108674E-03  0.123E-02    0.55       1.0  T
   3  -1064.3318682 -0.109260E-03  0.388E-03    0.55       1.0  T
   4  -1064.3318550  0.131599E-04  0.365E-03    0.55       1.1  T
   5  -1064.3318692 -0.141408E-04  0.142E-03    0.55       2.8  T
   6  -1064.3318713 -0.215986E-05  0.306E-04    0.55      12.9  T
   7  -1064.3318714 -0.133618E-06  0.118E-04    0.55      33.5  T
   8  -1064.3318715 -0.189330E-07  0.476E-05    0.55      82.7  T
     SCC iter.                  ...        0 min, 25.424 sec
     gradient                   ...        0 min,  2.090 sec
 * total energy  : -1046.4848107 Eh     change       -0.2643104E-01 Eh
   gradient norm :     0.1838198 Eh/a0  converged?    E=F G=F D=F
   step length   :     3.7287041 a0

........................................................................
.............................. CYCLE   14 ..............................
........................................................................
   1  -1064.3740761 -0.106437E+04  0.143E-02    0.60       0.0  T
   2  -1064.3741670 -0.909168E-04  0.117E-02    0.60       1.0  T
   3  -1064.3742669 -0.999066E-04  0.373E-03    0.59       1.1  T
   4  -1064.3742534  0.134991E-04  0.362E-03    0.60       1.1  T
   5  -1064.3742689 -0.154763E-04  0.141E-03    0.60       2.8  T
   6  -1064.3742706 -0.170760E-05  0.294E-04    0.60      13.4  T
   7  -1064.3742707 -0.120421E-06  0.124E-04    0.60      31.8  T
   8  -1064.3742707 -0.225925E-07  0.469E-05    0.60      84.1  T
     SCC iter.                  ...        0 min, 25.633 sec
     gradient                   ...        0 min,  2.101 sec
 * total energy  : -1046.5034265 Eh     change       -0.1861577E-01 Eh
   gradient norm :     0.1183718 Eh/a0  converged?    E=F G=F D=F
   step length   :     3.1595081 a0

........................................................................
.............................. CYCLE   15 ..............................
........................................................................
   1  -1064.4078976 -0.106441E+04  0.120E-02    0.63       0.0  T
   2  -1064.4079522 -0.545840E-04  0.965E-03    0.63       1.0  T
   3  -1064.4080219 -0.696684E-04  0.298E-03    0.63       1.3  T
   4  -1064.4080129  0.901924E-05  0.292E-03    0.63       1.3  T
   5  -1064.4080240 -0.110936E-04  0.117E-03    0.63       3.4  T
   6  -1064.4080249 -0.956038E-06  0.225E-04    0.63      17.5  T
   7  -1064.4080250 -0.624091E-07  0.979E-05    0.63      40.3  T
   8  -1064.4080250 -0.125046E-07  0.386E-05    0.63     102.2  T
     SCC iter.                  ...        0 min, 25.435 sec
     gradient                   ...        0 min,  2.201 sec
 * total energy  : -1046.5152649 Eh     change       -0.1183839E-01 Eh
   gradient norm :     0.0717264 Eh/a0  converged?    E=F G=F D=F
   step length   :     2.3227376 a0

........................................................................
.............................. CYCLE   16 ..............................
........................................................................
   1  -1064.4324974 -0.106443E+04  0.106E-02    0.66       0.0  T
   2  -1064.4325336 -0.362181E-04  0.870E-03    0.66       1.0  T
   3  -1064.4325882 -0.545914E-04  0.277E-03    0.66       1.4  T
   4  -1064.4325803  0.795320E-05  0.278E-03    0.66       1.4  T
   5  -1064.4325902 -0.995554E-05  0.103E-03    0.66       3.8  T
   6  -1064.4325909 -0.694014E-06  0.199E-04    0.66      19.8  T
   7  -1064.4325910 -0.452542E-07  0.909E-05    0.66      43.3  T
     SCC iter.                  ...        0 min, 21.738 sec
     gradient                   ...        0 min,  2.084 sec
 * total energy  : -1046.5226159 Eh     change       -0.7351038E-02 Eh
   gradient norm :     0.0519589 Eh/a0  converged?    E=F G=F D=F
   step length   :     1.8613943 a0

........................................................................
.............................. CYCLE   17 ..............................
........................................................................
   1  -1064.4474116 -0.106445E+04  0.989E-03    0.68       0.0  T
   2  -1064.4474337 -0.221109E-04  0.817E-03    0.68       1.0  T
   3  -1064.4474817 -0.479704E-04  0.262E-03    0.68       1.5  T
   4  -1064.4474741  0.763757E-05  0.284E-03    0.68       1.4  T
   5  -1064.4474848 -0.107027E-04  0.981E-04    0.68       4.0  T
   6  -1064.4474853 -0.526429E-06  0.196E-04    0.68      20.2  T
   7  -1064.4474853 -0.439227E-07  0.865E-05    0.68      45.6  T
     SCC iter.                  ...        0 min, 22.321 sec
     gradient                   ...        0 min,  2.103 sec
 * total energy  : -1046.5279153 Eh     change       -0.5299347E-02 Eh
   gradient norm :     0.0518901 Eh/a0  converged?    E=F G=F D=F
   step length   :     1.6538440 a0

........................................................................
.............................. CYCLE   18 ..............................
........................................................................
   1  -1064.4490266 -0.106445E+04  0.751E-03    0.68       0.0  T
   2  -1064.4490401 -0.134954E-04  0.603E-03    0.68       1.0  T
   3  -1064.4490660 -0.258746E-04  0.200E-03    0.68       2.0  T
   4  -1064.4490623  0.365090E-05  0.211E-03    0.68       1.9  T
   5  -1064.4490680 -0.564808E-05  0.683E-04    0.68       5.8  T
   6  -1064.4490683 -0.287878E-06  0.156E-04    0.68      25.2  T
   7  -1064.4490683 -0.310997E-07  0.659E-05    0.68      59.8  T
     SCC iter.                  ...        0 min, 22.071 sec
     gradient                   ...        0 min,  2.140 sec
 * total energy  : -1046.5323984 Eh     change       -0.4483109E-02 Eh
   gradient norm :     0.0525446 Eh/a0  converged?    E=F G=F D=F
   step length   :     1.7125218 a0

........................................................................
.............................. CYCLE   19 ..............................
........................................................................
   1  -1064.4428537 -0.106444E+04  0.517E-03    0.68       0.0  T
   2  -1064.4428603 -0.661034E-05  0.362E-03    0.68       1.1  T
   3  -1064.4428701 -0.979570E-05  0.144E-03    0.68       2.7  T
   4  -1064.4428701 -0.619427E-07  0.140E-03    0.68       2.8  T
   5  -1064.4428727 -0.253012E-05  0.386E-04    0.68      10.2  T
   6  -1064.4428728 -0.884297E-07  0.125E-04    0.68      31.4  T
   7  -1064.4428728 -0.235907E-07  0.438E-05    0.68      90.0  T
     SCC iter.                  ...        0 min, 21.733 sec
     gradient                   ...        0 min,  2.090 sec
 * total energy  : -1046.5368311 Eh     change       -0.4432723E-02 Eh
   gradient norm :     0.0499973 Eh/a0  converged?    E=F G=F D=F
   step length   :     1.9377805 a0

........................................................................
.............................. CYCLE   20 ..............................
........................................................................
   1  -1064.4324906 -0.106443E+04  0.475E-03    0.67       0.0  T
   2  -1064.4325010 -0.104451E-04  0.300E-03    0.67       1.3  T
   3  -1064.4325071 -0.602898E-05  0.120E-03    0.67       3.3  T
   4  -1064.4325068  0.301290E-06  0.114E-03    0.67       3.5  T
   5  -1064.4325083 -0.154006E-05  0.397E-04    0.67       9.9  T
   6  -1064.4325084 -0.147885E-06  0.101E-04    0.67      39.0  T
   7  -1064.4325085 -0.101049E-07  0.341E-05    0.67     115.6  T
     SCC iter.                  ...        0 min, 22.472 sec
     gradient                   ...        0 min,  2.088 sec
 * total energy  : -1046.5410212 Eh     change       -0.4190131E-02 Eh
   gradient norm :     0.0432480 Eh/a0  converged?    E=F G=F D=F
   step length   :     1.9763262 a0
 * RMSD in coord.:     0.5804932 a0     energy gain  -0.3975731E+01 Eh
 * calculating model hessian...
Using Lindh-Hessian (1995)
 Shifting diagonal of input Hessian by    1.0006131261216069E-002
 Lowest  eigenvalues of input Hessian
    0.010000    0.010002    0.010002    0.010003    0.010004    0.010005
    0.010005    0.010006    0.000000    0.000000    0.000000    0.000000
    0.000000    0.000000    0.010006    0.010007    0.010007    0.010008
 Highest eigenvalues
    2.988846    2.991913    3.003579    3.004477    3.009660    3.009809


........................................................................
.............................. CYCLE   21 ..............................
........................................................................
   1  -1064.4313076 -0.106443E+04  0.648E-03    0.66       0.0  T
   2  -1064.4313127 -0.500640E-05  0.644E-03    0.66       1.0  T
   3  -1064.4313392 -0.265541E-04  0.260E-03    0.66       1.5  T
   4  -1064.4313293  0.986023E-05  0.250E-03    0.66       1.6  T
   5  -1064.4313398 -0.104450E-04  0.539E-04    0.66       7.3  T
   6  -1064.4313400 -0.227903E-06  0.981E-05    0.66      40.2  T
   7  -1064.4313400 -0.959176E-08  0.393E-05    0.66     100.2  T
     SCC iter.                  ...        0 min, 24.816 sec
     gradient                   ...        0 min,  2.150 sec
 * total energy  : -1046.5428534 Eh     change       -0.1832199E-02 Eh
   gradient norm :     0.0251001 Eh/a0  converged?    E=F G=F D=F
   step length   :     0.3886748 a0

........................................................................
.............................. CYCLE   22 ..............................
........................................................................
   1  -1064.4542422 -0.106445E+04  0.127E-02    0.64       0.0  T
   2  -1064.4542561 -0.139216E-04  0.114E-02    0.64       1.0  T
   3  -1064.4543590 -0.102948E-03  0.411E-03    0.64       1.0  T
   4  -1064.4543390  0.200484E-04  0.432E-03    0.64       1.0  T
   5  -1064.4543642 -0.252463E-04  0.120E-03    0.64       3.3  T
   6  -1064.4543655 -0.126854E-05  0.232E-04    0.64      17.0  T
   7  -1064.4543656 -0.501796E-07  0.102E-04    0.64      38.5  T
   8  -1064.4543656 -0.205785E-07  0.332E-05    0.64     118.8  T
     SCC iter.                  ...        0 min, 26.893 sec
     gradient                   ...        0 min,  2.080 sec
 * total energy  : -1046.5454260 Eh     change       -0.2572543E-02 Eh
   gradient norm :     0.0552114 Eh/a0  converged?    E=F G=F D=F
   step length   :     0.9770332 a0

........................................................................
.............................. CYCLE   23 ..............................
........................................................................
   1  -1064.4521165 -0.106445E+04  0.502E-03    0.65       0.0  T
   2  -1064.4521187 -0.213436E-05  0.507E-03    0.65       1.0  T
   3  -1064.4521384 -0.197840E-04  0.188E-03    0.65       2.1  T
   4  -1064.4521334  0.502540E-05  0.198E-03    0.65       2.0  T
   5  -1064.4521389 -0.550702E-05  0.471E-04    0.65       8.4  T
   6  -1064.4521391 -0.181451E-06  0.733E-05    0.65      53.8  T
   7  -1064.4521391 -0.631530E-08  0.315E-05    0.65     125.0  T
     SCC iter.                  ...        0 min, 25.127 sec
     gradient                   ...        0 min,  2.098 sec
 * total energy  : -1046.5483207 Eh     change       -0.2894747E-02 Eh
   gradient norm :     0.0307099 Eh/a0  converged?    E=F G=F D=F
   step length   :     0.3885897 a0

........................................................................
.............................. CYCLE   24 ..............................
........................................................................
   1  -1064.4254050 -0.106443E+04  0.109E-02    0.66       0.0  T
   2  -1064.4254201 -0.151055E-04  0.987E-03    0.66       1.0  T
   3  -1064.4254825 -0.624000E-04  0.404E-03    0.66       1.0  T
   4  -1064.4254616  0.208894E-04  0.412E-03    0.66       1.0  T
   5  -1064.4254860 -0.244262E-04  0.931E-04    0.66       4.2  T
   6  -1064.4254869 -0.893555E-06  0.163E-04    0.66      24.2  T
   7  -1064.4254870 -0.296338E-07  0.725E-05    0.66      54.3  T
     SCC iter.                  ...        0 min, 23.920 sec
     gradient                   ...        0 min,  2.097 sec
 * total energy  : -1046.5489785 Eh     change       -0.6577364E-03 Eh
   gradient norm :     0.0415596 Eh/a0  converged?    E=F G=F D=F
   step length   :     1.1924882 a0

........................................................................
.............................. CYCLE   25 ..............................
........................................................................
   1  -1064.4275933 -0.106443E+04  0.569E-03    0.65       0.0  T
   2  -1064.4275990 -0.563373E-05  0.437E-03    0.65       1.0  T
   3  -1064.4276050 -0.604171E-05  0.223E-03    0.65       1.8  T
   4  -1064.4276006  0.444126E-05  0.168E-03    0.65       2.3  T
   5  -1064.4276060 -0.540386E-05  0.382E-04    0.65      10.3  T
   6  -1064.4276062 -0.209490E-06  0.845E-05    0.65      46.6  T
   7  -1064.4276062 -0.970454E-08  0.289E-05    0.65     136.2  T
     SCC iter.                  ...        0 min, 23.643 sec
     gradient                   ...        0 min,  2.107 sec
 * total energy  : -1046.5526426 Eh     change       -0.3664121E-02 Eh
   gradient norm :     0.0283025 Eh/a0  converged?    E=F G=F D=F
   step length   :     0.7793820 a0

........................................................................
.............................. CYCLE   26 ..............................
........................................................................
   1  -1064.4277511 -0.106443E+04  0.735E-03    0.65       0.0  T
   2  -1064.4277574 -0.633609E-05  0.702E-03    0.65       1.0  T
   3  -1064.4277864 -0.289993E-04  0.299E-03    0.65       1.3  T
   4  -1064.4277751  0.113079E-04  0.264E-03    0.65       1.5  T
   5  -1064.4277871 -0.119435E-04  0.576E-04    0.65       6.8  T
   6  -1064.4277875 -0.426151E-06  0.105E-04    0.65      37.6  T
   7  -1064.4277875 -0.123143E-07  0.396E-05    0.65      99.5  T
     SCC iter.                  ...        0 min, 23.590 sec
     gradient                   ...        0 min,  2.102 sec
 * total energy  : -1046.5534414 Eh     change       -0.7987803E-03 Eh
   gradient norm :     0.0270811 Eh/a0  converged?    E=F G=F D=F
   step length   :     0.8061556 a0

........................................................................
.............................. CYCLE   27 ..............................
........................................................................
   1  -1064.4294683 -0.106443E+04  0.459E-03    0.65       0.0  T
   2  -1064.4294715 -0.314666E-05  0.348E-03    0.65       1.1  T
   3  -1064.4294757 -0.421563E-05  0.185E-03    0.65       2.1  T
   4  -1064.4294736  0.207415E-05  0.134E-03    0.65       2.9  T
   5  -1064.4294769 -0.329531E-05  0.349E-04    0.65      11.3  T
   6  -1064.4294771 -0.225059E-06  0.101E-04    0.65      39.0  T
   7  -1064.4294772 -0.152340E-07  0.277E-05    0.65     142.5  T
     SCC iter.                  ...        0 min, 23.610 sec
     gradient                   ...        0 min,  2.086 sec
 * total energy  : -1046.5553759 Eh     change       -0.1934518E-02 Eh
   gradient norm :     0.0349907 Eh/a0  converged?    E=F G=F D=F
   step length   :     0.9965568 a0

........................................................................
.............................. CYCLE   28 ..............................
........................................................................
   1  -1064.4249729 -0.106442E+04  0.594E-03    0.66       0.0  T
   2  -1064.4249809 -0.797136E-05  0.481E-03    0.66       1.0  T
   3  -1064.4249908 -0.987762E-05  0.220E-03    0.66       1.8  T
   4  -1064.4249866  0.421931E-05  0.185E-03    0.66       2.1  T
   5  -1064.4249915 -0.489374E-05  0.537E-04    0.66       7.3  T
   6  -1064.4249919 -0.411371E-06  0.892E-05    0.66      44.2  T
   7  -1064.4249919 -0.951604E-08  0.404E-05    0.66      97.5  T
     SCC iter.                  ...        0 min, 23.242 sec
     gradient                   ...        0 min,  2.072 sec
 * total energy  : -1046.5580493 Eh     change       -0.2673393E-02 Eh
   gradient norm :     0.0226804 Eh/a0  converged?    E=F G=F D=F
   step length   :     1.2892344 a0

........................................................................
.............................. CYCLE   29 ..............................
........................................................................
   1  -1064.4209575 -0.106442E+04  0.366E-03    0.66       0.0  T
   2  -1064.4209583 -0.779052E-06  0.319E-03    0.66       1.2  T
   3  -1064.4209662 -0.791412E-05  0.129E-03    0.66       3.0  T
   4  -1064.4209648  0.141781E-05  0.119E-03    0.66       3.3  T
   5  -1064.4209669 -0.211552E-05  0.322E-04    0.66      12.2  T
   6  -1064.4209670 -0.876273E-07  0.819E-05    0.66      48.1  T
   7  -1064.4209670 -0.793170E-08  0.312E-05    0.66     126.1  T
     SCC iter.                  ...        0 min, 23.519 sec
     gradient                   ...        0 min,  2.075 sec
 * total energy  : -1046.5588826 Eh     change       -0.8333266E-03 Eh
   gradient norm :     0.0261103 Eh/a0  converged?    E=F G=F D=F
   step length   :     0.9894058 a0

........................................................................
.............................. CYCLE   30 ..............................
........................................................................
   1  -1064.4351437 -0.106444E+04  0.513E-03    0.66       0.0  T
   2  -1064.4351470 -0.328067E-05  0.320E-03    0.66       1.2  T
   3  -1064.4351485 -0.147758E-05  0.205E-03    0.66       1.9  T
   4  -1064.4351490 -0.551129E-06  0.121E-03    0.66       3.3  T
   5  -1064.4351517 -0.264495E-05  0.324E-04    0.66      12.1  T
   6  -1064.4351518 -0.161734E-06  0.944E-05    0.66      41.7  T
   7  -1064.4351518 -0.158452E-07  0.245E-05    0.66     160.7  T
     SCC iter.                  ...        0 min, 22.351 sec
     gradient                   ...        0 min,  2.154 sec
 * total energy  : -1046.5611800 Eh     change       -0.2297362E-02 Eh
   gradient norm :     0.0195859 Eh/a0  converged?    E=F G=F D=F
   step length   :     0.9083352 a0

........................................................................
.............................. CYCLE   31 ..............................
........................................................................
   1  -1064.4148295 -0.106441E+04  0.403E-03    0.66       0.0  T
   2  -1064.4148312 -0.169024E-05  0.256E-03    0.66       1.5  T
   3  -1064.4148319 -0.723486E-06  0.154E-03    0.66       2.6  T
   4  -1064.4148321 -0.166578E-06  0.920E-04    0.66       4.3  T
   5  -1064.4148335 -0.141924E-05  0.281E-04    0.66      14.0  T
   6  -1064.4148336 -0.113317E-06  0.522E-05    0.66      75.5  T
   7  -1064.4148336 -0.275281E-08  0.240E-05    0.66     164.4  T
     SCC iter.                  ...        0 min, 22.381 sec
     gradient                   ...        0 min,  2.153 sec
 * total energy  : -1046.5620730 Eh     change       -0.8929967E-03 Eh
   gradient norm :     0.0199635 Eh/a0  converged?    E=F G=F D=F
   step length   :     1.5867642 a0

........................................................................
.............................. CYCLE   32 ..............................
........................................................................
   1  -1064.4319967 -0.106443E+04  0.363E-03    0.66       0.0  T
   2  -1064.4319998 -0.312028E-05  0.227E-03    0.66       1.7  T
   3  -1064.4320010 -0.124631E-05  0.131E-03    0.66       3.0  T
   4  -1064.4320009  0.143247E-06  0.814E-04    0.66       4.8  T
   5  -1064.4320019 -0.985215E-06  0.293E-04    0.66      13.5  T
   6  -1064.4320020 -0.154153E-06  0.724E-05    0.66      54.4  T
   7  -1064.4320020 -0.894875E-08  0.253E-05    0.66     155.9  T
     SCC iter.                  ...        0 min, 23.624 sec
     gradient                   ...        0 min,  2.135 sec
 * total energy  : -1046.5633553 Eh     change       -0.1282321E-02 Eh
   gradient norm :     0.0165940 Eh/a0  converged?    E=F G=F D=F
   step length   :     1.4800244 a0

........................................................................
.............................. CYCLE   33 ..............................
........................................................................
   1  -1064.4460970 -0.106445E+04  0.251E-03    0.66       0.0  T
   2  -1064.4460984 -0.138317E-05  0.148E-03    0.66       2.7  T
   3  -1064.4460989 -0.526660E-06  0.938E-04    0.66       4.2  T
   4  -1064.4460990 -0.120479E-06  0.566E-04    0.66       7.0  T
   5  -1064.4460996 -0.519567E-06  0.172E-04    0.66      22.9  T
   6  -1064.4460996 -0.457728E-07  0.603E-05    0.66      65.3  T
     SCC iter.                  ...        0 min, 20.533 sec
     gradient                   ...        0 min,  2.073 sec
 * total energy  : -1046.5641300 Eh     change       -0.7746795E-03 Eh
   gradient norm :     0.0186899 Eh/a0  converged?    E=F G=F D=F
   step length   :     1.5844395 a0

........................................................................
.............................. CYCLE   34 ..............................
........................................................................
   1  -1064.4474864 -0.106445E+04  0.190E-03    0.66       0.0  T
   2  -1064.4474873 -0.915979E-06  0.152E-03    0.66       2.6  T
   3  -1064.4474883 -0.986330E-06  0.748E-04    0.66       5.3  T
   4  -1064.4474879  0.417539E-06  0.632E-04    0.66       6.2  T
   5  -1064.4474885 -0.611171E-06  0.158E-04    0.66      25.0  T
   6  -1064.4474885 -0.332404E-07  0.440E-05    0.66      89.6  T
     SCC iter.                  ...        0 min, 19.288 sec
     gradient                   ...        0 min,  2.200 sec
 * total energy  : -1046.5649551 Eh     change       -0.8251132E-03 Eh
   gradient norm :     0.0147751 Eh/a0  converged?    E=F G=F D=F
   step length   :     2.5897233 a0

........................................................................
.............................. CYCLE   35 ..............................
........................................................................
   1  -1064.4856147 -0.106449E+04  0.455E-03    0.66       0.0  T
   2  -1064.4856201 -0.544347E-05  0.257E-03    0.66       1.5  T
   3  -1064.4856210 -0.872092E-06  0.158E-03    0.66       2.5  T
   4  -1064.4856207  0.232208E-06  0.999E-04    0.66       3.9  T
   5  -1064.4856220 -0.120569E-05  0.345E-04    0.66      11.4  T
   6  -1064.4856222 -0.222018E-06  0.937E-05    0.66      42.0  T
   7  -1064.4856222 -0.120679E-07  0.371E-05    0.66     106.3  T
     SCC iter.                  ...        0 min, 22.005 sec
     gradient                   ...        0 min,  2.081 sec
 * total energy  : -1046.5655591 Eh     change       -0.6040395E-03 Eh
   gradient norm :     0.0200298 Eh/a0  converged?    E=F G=F D=F
   step length   :     1.2145928 a0

........................................................................
.............................. CYCLE   36 ..............................
........................................................................
   1  -1064.4849395 -0.106448E+04  0.366E-03    0.66       0.0  T
   2  -1064.4849418 -0.232536E-05  0.206E-03    0.66       1.9  T
   3  -1064.4849423 -0.494805E-06  0.135E-03    0.66       2.9  T
   4  -1064.4849438 -0.149580E-05  0.843E-04    0.66       4.7  T
   5  -1064.4849448 -0.979934E-06  0.230E-04    0.66      17.2  T
   6  -1064.4849448 -0.462851E-07  0.487E-05    0.66      80.9  T
   7  -1064.4849448 -0.232808E-08  0.189E-05    0.66     209.0  T
     SCC iter.                  ...        0 min, 22.371 sec
     gradient                   ...        0 min,  2.120 sec
 * total energy  : -1046.5664510 Eh     change       -0.8918649E-03 Eh
   gradient norm :     0.0151562 Eh/a0  converged?    E=F G=F D=F
   step length   :     0.9961235 a0

........................................................................
.............................. CYCLE   37 ..............................
........................................................................
   1  -1064.4750509 -0.106448E+04  0.403E-03    0.65       0.0  T
   2  -1064.4750542 -0.330963E-05  0.295E-03    0.65       1.3  T
   3  -1064.4750569 -0.267410E-05  0.157E-03    0.65       2.5  T
   4  -1064.4750557  0.119989E-05  0.130E-03    0.65       3.0  T
   5  -1064.4750586 -0.284387E-05  0.317E-04    0.65      12.4  T
   6  -1064.4750586 -0.760533E-07  0.865E-05    0.65      45.6  T
   7  -1064.4750587 -0.644741E-08  0.478E-05    0.65      82.5  T
     SCC iter.                  ...        0 min, 23.334 sec
     gradient                   ...        0 min,  2.078 sec
 * total energy  : -1046.5667782 Eh     change       -0.3271670E-03 Eh
   gradient norm :     0.0234558 Eh/a0  converged?    E=F G=F D=F
   step length   :     0.9973656 a0

........................................................................
.............................. CYCLE   38 ..............................
........................................................................
   1  -1064.4833663 -0.106448E+04  0.283E-03    0.65       0.0  T
   2  -1064.4833682 -0.192225E-05  0.178E-03    0.65       2.2  T
   3  -1064.4833686 -0.349221E-06  0.101E-03    0.65       3.9  T
   4  -1064.4833682  0.364887E-06  0.694E-04    0.65       5.7  T
   5  -1064.4833690 -0.816858E-06  0.204E-04    0.65      19.3  T
   6  -1064.4833691 -0.690097E-07  0.633E-05    0.65      62.2  T
   7  -1064.4833691 -0.557407E-08  0.275E-05    0.65     143.1  T
     SCC iter.                  ...        0 min, 22.064 sec
     gradient                   ...        0 min,  2.131 sec
 * total energy  : -1046.5677650 Eh     change       -0.9868102E-03 Eh
   gradient norm :     0.0154582 Eh/a0  converged?    E=F G=F D=F
   step length   :     0.4832099 a0

........................................................................
.............................. CYCLE   39 ..............................
........................................................................
   1  -1064.4796591 -0.106448E+04  0.534E-03    0.66       0.0  T
   2  -1064.4796647 -0.560298E-05  0.390E-03    0.66       1.0  T
   3  -1064.4796683 -0.355826E-05  0.212E-03    0.66       1.9  T
   4  -1064.4796655  0.278693E-05  0.155E-03    0.66       2.5  T
   5  -1064.4796699 -0.444384E-05  0.367E-04    0.66      10.7  T
   6  -1064.4796701 -0.155642E-06  0.129E-04    0.66      30.5  T
   7  -1064.4796701 -0.191760E-07  0.645E-05    0.66      61.1  T
     SCC iter.                  ...        0 min, 23.306 sec
     gradient                   ...        0 min,  2.142 sec
 * total energy  : -1046.5671208 Eh     change        0.6441671E-03 Eh
   gradient norm :     0.0318601 Eh/a0  converged?    E=F G=F D=F
   step length   :     0.7835329 a0

........................................................................
.............................. CYCLE   40 ..............................
........................................................................
   1  -1064.4786737 -0.106448E+04  0.349E-03    0.66       0.0  T
   2  -1064.4786759 -0.224501E-05  0.266E-03    0.66       1.5  T
   3  -1064.4786785 -0.261144E-05  0.132E-03    0.66       3.0  T
   4  -1064.4786768  0.168365E-05  0.106E-03    0.66       3.7  T
   5  -1064.4786789 -0.207175E-05  0.260E-04    0.66      15.1  T
   6  -1064.4786790 -0.687528E-07  0.848E-05    0.66      46.5  T
   7  -1064.4786790 -0.109223E-07  0.223E-05    0.66     176.8  T
     SCC iter.                  ...        0 min, 23.923 sec
     gradient                   ...        0 min,  2.140 sec
 * total energy  : -1046.5688232 Eh     change       -0.1702364E-02 Eh
   gradient norm :     0.0139444 Eh/a0  converged?    E=F G=F D=F
   step length   :     0.3942079 a0

........................................................................
.............................. CYCLE   41 ..............................
........................................................................
   1  -1064.4678258 -0.106447E+04  0.325E-03    0.66       0.0  T
   2  -1064.4678281 -0.226427E-05  0.229E-03    0.66       1.7  T
   3  -1064.4678280  0.108603E-06  0.124E-03    0.66       3.2  T
   4  -1064.4678270  0.980128E-06  0.898E-04    0.66       4.4  T
   5  -1064.4678287 -0.173147E-05  0.205E-04    0.66      19.2  T
   6  -1064.4678288 -0.514924E-07  0.681E-05    0.66      57.9  T
   7  -1064.4678288 -0.324872E-08  0.328E-05    0.66     120.0  T
     SCC iter.                  ...        0 min, 22.430 sec
     gradient                   ...        0 min,  2.167 sec
 * total energy  : -1046.5689287 Eh     change       -0.1055701E-03 Eh
   gradient norm :     0.0163488 Eh/a0  converged?    E=F G=F D=F
   step length   :     0.4989697 a0

........................................................................
.............................. CYCLE   42 ..............................
........................................................................
   1  -1064.4613794 -0.106446E+04  0.183E-03    0.66       0.0  T
   2  -1064.4613803 -0.898591E-06  0.132E-03    0.66       3.0  T
   3  -1064.4613813 -0.998132E-06  0.685E-04    0.66       5.8  T
   4  -1064.4613813  0.324744E-07  0.539E-04    0.66       7.3  T
   5  -1064.4613816 -0.377485E-06  0.162E-04    0.66      24.3  T
   6  -1064.4613817 -0.373075E-07  0.399E-05    0.66      98.7  T
     SCC iter.                  ...        0 min, 19.103 sec
     gradient                   ...        0 min,  2.192 sec
 * total energy  : -1046.5695588 Eh     change       -0.6301150E-03 Eh
   gradient norm :     0.0169843 Eh/a0  converged?    E=F G=F D=F
   step length   :     0.7799018 a0
 * RMSD in coord.:     0.5731282 a0     energy gain  -0.2853760E-01 Eh
 * calculating model hessian...
Using Lindh-Hessian (1995)
 Shifting diagonal of input Hessian by    1.0003963214112446E-002
 Lowest  eigenvalues of input Hessian
    0.010000    0.010000    0.010002    0.010002    0.010003    0.010003
    0.010004    0.010004    0.000000    0.000000    0.000000    0.000000
    0.000000    0.000000    0.010004    0.010005    0.010005    0.010006
 Highest eigenvalues
    2.995378    2.997595    3.004482    3.004679    3.008474    3.008633


........................................................................
.............................. CYCLE   43 ..............................
........................................................................
   1  -1064.4624769 -0.106446E+04  0.193E-03    0.66       0.0  T
   2  -1064.4624777 -0.835310E-06  0.118E-03    0.66       3.4  T
   3  -1064.4624777  0.266482E-08  0.704E-04    0.66       5.6  T
   4  -1064.4624776  0.104814E-06  0.449E-04    0.66       8.8  T
   5  -1064.4624780 -0.347615E-06  0.154E-04    0.66      25.6  T
   6  -1064.4624780 -0.479338E-07  0.390E-05    0.66     101.1  T
     SCC iter.                  ...        0 min, 20.532 sec
     gradient                   ...        0 min,  2.112 sec
 * total energy  : -1046.5697941 Eh     change       -0.2352434E-03 Eh
   gradient norm :     0.0091221 Eh/a0  converged?    E=F G=F D=F
   step length   :     0.1882605 a0

........................................................................
.............................. CYCLE   44 ..............................
........................................................................
   1  -1064.4665325 -0.106447E+04  0.250E-03    0.66       0.0  T
   2  -1064.4665341 -0.163941E-05  0.165E-03    0.66       2.4  T
   3  -1064.4665344 -0.272031E-06  0.950E-04    0.66       4.1  T
   4  -1064.4665342  0.215516E-06  0.565E-04    0.66       7.0  T
   5  -1064.4665346 -0.453564E-06  0.211E-04    0.66      18.6  T
   6  -1064.4665347 -0.973307E-07  0.542E-05    0.66      72.6  T
   7  -1064.4665347 -0.361297E-08  0.238E-05    0.66     165.8  T
     SCC iter.                  ...        0 min, 22.543 sec
     gradient                   ...        0 min,  2.158 sec
 * total energy  : -1046.5701318 Eh     change       -0.3376809E-03 Eh
   gradient norm :     0.0139835 Eh/a0  converged?    E=F G=F D=F
   step length   :     0.2508226 a0

........................................................................
.............................. CYCLE   45 ..............................
........................................................................
   1  -1064.4660229 -0.106447E+04  0.808E-04    0.66       0.0  T
   2  -1064.4660232 -0.264685E-06  0.486E-04    0.66       8.1  T
   3  -1064.4660233 -0.705554E-07  0.271E-04    0.66      14.6  T
   4  -1064.4660233  0.780801E-08  0.205E-04    0.66      19.2  T
   5  -1064.4660233 -0.496784E-07  0.841E-05    0.66      46.9  T
   6  -1064.4660233 -0.117896E-07  0.196E-05    0.66     201.3  T
     SCC iter.                  ...        0 min, 19.657 sec
     gradient                   ...        0 min,  2.131 sec
 * total energy  : -1046.5702692 Eh     change       -0.1374029E-03 Eh
   gradient norm :     0.0117979 Eh/a0  converged?    E=F G=F D=F
   step length   :     0.2252971 a0

........................................................................
.............................. CYCLE   46 ..............................
........................................................................
   1  -1064.4647382 -0.106446E+04  0.137E-03    0.66       0.0  T
   2  -1064.4647385 -0.324032E-06  0.845E-04    0.66       4.7  T
   3  -1064.4647385  0.520845E-08  0.528E-04    0.66       7.5  T
   4  -1064.4647386 -0.616863E-07  0.257E-04    0.66      15.3  T
   5  -1064.4647387 -0.825546E-07  0.107E-04    0.66      36.9  T
   6  -1064.4647387 -0.206132E-07  0.321E-05    0.66     122.8  T
     SCC iter.                  ...        0 min, 19.637 sec
     gradient                   ...        0 min,  2.112 sec
 * total energy  : -1046.5707435 Eh     change       -0.4743164E-03 Eh
   gradient norm :     0.0053269 Eh/a0  converged?    E=F G=F D=F
   step length   :     0.1648944 a0

........................................................................
.............................. CYCLE   47 ..............................
........................................................................
   1  -1064.4616496 -0.106446E+04  0.908E-04    0.66       0.0  T
   2  -1064.4616500 -0.384210E-06  0.558E-04    0.66       7.1  T
   3  -1064.4616501 -0.107111E-06  0.317E-04    0.66      12.4  T
   4  -1064.4616501  0.102618E-07  0.240E-04    0.66      16.4  T
   5  -1064.4616502 -0.620812E-07  0.832E-05    0.66      47.4  T
   6  -1064.4616502 -0.100399E-07  0.250E-05    0.66     157.3  T
     SCC iter.                  ...        0 min, 19.611 sec
     gradient                   ...        0 min,  2.163 sec
 * total energy  : -1046.5709590 Eh     change       -0.2155504E-03 Eh
   gradient norm :     0.0064182 Eh/a0  converged?    E=F G=F D=F
   step length   :     0.3074189 a0

........................................................................
.............................. CYCLE   48 ..............................
........................................................................
   1  -1064.4554438 -0.106446E+04  0.169E-03    0.66       0.0  T
   2  -1064.4554457 -0.184169E-05  0.961E-04    0.66       4.1  T
   3  -1064.4554461 -0.370115E-06  0.548E-04    0.66       7.2  T
   4  -1064.4554460  0.186935E-07  0.426E-04    0.66       9.3  T
   5  -1064.4554462 -0.189166E-06  0.143E-04    0.66      27.6  T
   6  -1064.4554463 -0.262837E-07  0.494E-05    0.66      79.7  T
     SCC iter.                  ...        0 min, 19.121 sec
     gradient                   ...        0 min,  2.094 sec
 * total energy  : -1046.5713800 Eh     change       -0.4209372E-03 Eh
   gradient norm :     0.0077633 Eh/a0  converged?    E=F G=F D=F
   step length   :     0.6504659 a0

........................................................................
.............................. CYCLE   49 ..............................
........................................................................
   1  -1064.4459738 -0.106445E+04  0.184E-03    0.66       0.0  T
   2  -1064.4459758 -0.206984E-05  0.106E-03    0.66       3.7  T
   3  -1064.4459764 -0.521067E-06  0.587E-04    0.66       6.7  T
   4  -1064.4459764 -0.749242E-08  0.450E-04    0.66       8.8  T
   5  -1064.4459766 -0.217873E-06  0.155E-04    0.66      25.4  T
   6  -1064.4459766 -0.276980E-07  0.515E-05    0.66      76.5  T
     SCC iter.                  ...        0 min, 19.056 sec
     gradient                   ...        0 min,  2.101 sec
 * total energy  : -1046.5716692 Eh     change       -0.2891980E-03 Eh
   gradient norm :     0.0111077 Eh/a0  converged?    E=F G=F D=F
   step length   :     0.8228584 a0

........................................................................
.............................. CYCLE   50 ..............................
........................................................................
   1  -1064.4408686 -0.106444E+04  0.133E-03    0.66       0.0  T
   2  -1064.4408695 -0.914746E-06  0.907E-04    0.66       4.3  T
   3  -1064.4408701 -0.545688E-06  0.422E-04    0.66       9.3  T
   4  -1064.4408701  0.353336E-07  0.344E-04    0.66      11.4  T
   5  -1064.4408702 -0.136015E-06  0.133E-04    0.66      29.7  T
   6  -1064.4408702 -0.216032E-07  0.346E-05    0.66     113.8  T
     SCC iter.                  ...        0 min, 19.402 sec
     gradient                   ...        0 min,  2.146 sec
 * total energy  : -1046.5720169 Eh     change       -0.3477214E-03 Eh
   gradient norm :     0.0114845 Eh/a0  converged?    E=F G=F D=F
   step length   :     0.7745395 a0

........................................................................
.............................. CYCLE   51 ..............................
........................................................................
   1  -1064.4520429 -0.106445E+04  0.138E-03    0.66       0.0  T
   2  -1064.4520436 -0.690736E-06  0.753E-04    0.66       5.2  T
   3  -1064.4520437 -0.115060E-06  0.437E-04    0.66       9.0  T
   4  -1064.4520437  0.279106E-07  0.309E-04    0.66      12.8  T
   5  -1064.4520438 -0.129335E-06  0.106E-04    0.66      37.3  T
   6  -1064.4520438 -0.207554E-07  0.290E-05    0.66     136.0  T
     SCC iter.                  ...        0 min, 19.408 sec
     gradient                   ...        0 min,  2.083 sec
 * total energy  : -1046.5726008 Eh     change       -0.5839302E-03 Eh
   gradient norm :     0.0075771 Eh/a0  converged?    E=F G=F D=F
   step length   :     0.2011538 a0

........................................................................
.............................. CYCLE   52 ..............................
........................................................................
   1  -1064.4578249 -0.106446E+04  0.141E-03    0.66       0.0  T
   2  -1064.4578257 -0.748449E-06  0.798E-04    0.66       4.9  T
   3  -1064.4578259 -0.245769E-06  0.471E-04    0.66       8.4  T
   4  -1064.4578260 -0.722994E-07  0.321E-04    0.66      12.3  T
   5  -1064.4578261 -0.128099E-06  0.115E-04    0.66      34.4  T
   6  -1064.4578261 -0.178659E-07  0.329E-05    0.66     119.7  T
     SCC iter.                  ...        0 min, 18.914 sec
     gradient                   ...        0 min,  2.103 sec
 * total energy  : -1046.5729802 Eh     change       -0.3793379E-03 Eh
   gradient norm :     0.0108981 Eh/a0  converged?    E=F G=F D=F
   step length   :     0.5801769 a0

........................................................................
.............................. CYCLE   53 ..............................
........................................................................
   1  -1064.4451478 -0.106445E+04  0.168E-03    0.66       0.0  T
   2  -1064.4451491 -0.122584E-05  0.985E-04    0.66       4.0  T
   3  -1064.4451493 -0.271624E-06  0.594E-04    0.66       6.6  T
   4  -1064.4451494 -0.504556E-07  0.424E-04    0.66       9.3  T
   5  -1064.4451496 -0.258021E-06  0.134E-04    0.66      29.5  T
   6  -1064.4451497 -0.219654E-07  0.424E-05    0.66      92.9  T
     SCC iter.                  ...        0 min, 19.506 sec
     gradient                   ...        0 min,  2.137 sec
 * total energy  : -1046.5739091 Eh     change       -0.9289129E-03 Eh
   gradient norm :     0.0099567 Eh/a0  converged?    E=F G=F D=F
   step length   :     1.1697401 a0

........................................................................
.............................. CYCLE   54 ..............................
........................................................................
   1  -1064.4322476 -0.106443E+04  0.163E-03    0.66       0.0  T
   2  -1064.4322487 -0.111700E-05  0.947E-04    0.66       4.2  T
   3  -1064.4322489 -0.198214E-06  0.593E-04    0.66       6.6  T
   4  -1064.4322490 -0.104462E-06  0.408E-04    0.66       9.7  T
   5  -1064.4322493 -0.237947E-06  0.128E-04    0.66      30.7  T
   6  -1064.4322493 -0.203315E-07  0.448E-05    0.66      87.9  T
     SCC iter.                  ...        0 min, 20.673 sec
     gradient                   ...        0 min,  2.094 sec
 * total energy  : -1046.5746920 Eh     change       -0.7829621E-03 Eh
   gradient norm :     0.0107756 Eh/a0  converged?    E=F G=F D=F
   step length   :     4.1542669 a0

........................................................................
.............................. CYCLE   55 ..............................
........................................................................
   1  -1064.4215971 -0.106442E+04  0.153E-03    0.66       0.0  T
   2  -1064.4215982 -0.110435E-05  0.890E-04    0.66       4.4  T
   3  -1064.4215984 -0.227237E-06  0.538E-04    0.66       7.3  T
   4  -1064.4215985 -0.648986E-07  0.375E-04    0.66      10.5  T
   5  -1064.4215987 -0.190654E-06  0.134E-04    0.66      29.3  T
   6  -1064.4215987 -0.243879E-07  0.449E-05    0.66      87.7  T
     SCC iter.                  ...        0 min, 19.992 sec
     gradient                   ...        0 min,  2.213 sec
 * total energy  : -1046.5754554 Eh     change       -0.7633245E-03 Eh
   gradient norm :     0.0129626 Eh/a0  converged?    E=F G=F D=F
   step length   :     5.1941071 a0

........................................................................
.............................. CYCLE   56 ..............................
........................................................................
   1  -1064.4125980 -0.106441E+04  0.144E-03    0.66       0.0  T
   2  -1064.4125992 -0.113282E-05  0.824E-04    0.66       4.8  T
   3  -1064.4125994 -0.227108E-06  0.481E-04    0.66       8.2  T
   4  -1064.4125994 -0.274495E-07  0.340E-04    0.66      11.6  T
   5  -1064.4125996 -0.146492E-06  0.132E-04    0.66      29.8  T
   6  -1064.4125996 -0.256246E-07  0.459E-05    0.66      85.9  T
     SCC iter.                  ...        0 min, 20.434 sec
     gradient                   ...        0 min,  2.087 sec
 * total energy  : -1046.5762342 Eh     change       -0.7788074E-03 Eh
   gradient norm :     0.0144273 Eh/a0  converged?    E=F G=F D=F
   step length   :     4.6513628 a0

........................................................................
.............................. CYCLE   57 ..............................
........................................................................
   1  -1064.4045490 -0.106440E+04  0.137E-03    0.65       0.0  T
   2  -1064.4045502 -0.116037E-05  0.782E-04    0.65       5.0  T
   3  -1064.4045504 -0.238889E-06  0.438E-04    0.65       9.0  T
   4  -1064.4045504 -0.834802E-08  0.304E-04    0.65      13.0  T
   5  -1064.4045505 -0.100173E-06  0.136E-04    0.65      28.9  T
   6  -1064.4045506 -0.299078E-07  0.464E-05    0.65      84.9  T
     SCC iter.                  ...        0 min, 19.884 sec
     gradient                   ...        0 min,  2.112 sec
 * total energy  : -1046.5770239 Eh     change       -0.7897698E-03 Eh
   gradient norm :     0.0160004 Eh/a0  converged?    E=F G=F D=F
   step length   :     4.2941987 a0

........................................................................
.............................. CYCLE   58 ..............................
........................................................................
   1  -1064.4011088 -0.106440E+04  0.124E-03    0.65       0.0  T
   2  -1064.4011099 -0.113316E-05  0.708E-04    0.65       5.6  T
   3  -1064.4011102 -0.242602E-06  0.371E-04    0.65      10.6  T
   4  -1064.4011102 -0.560817E-08  0.252E-04    0.65      15.7  T
   5  -1064.4011102 -0.455379E-07  0.128E-04    0.65      30.7  T
   6  -1064.4011103 -0.284790E-07  0.479E-05    0.65      82.3  T
     SCC iter.                  ...        0 min, 20.485 sec
     gradient                   ...        0 min,  2.078 sec
 * total energy  : -1046.5778971 Eh     change       -0.8731280E-03 Eh
   gradient norm :     0.0166763 Eh/a0  converged?    E=F G=F D=F
   step length   :     4.2843968 a0

........................................................................
.............................. CYCLE   59 ..............................
........................................................................
   1  -1064.3928902 -0.106439E+04  0.140E-03    0.65       0.0  T
   2  -1064.3928916 -0.136462E-05  0.794E-04    0.65       5.0  T
   3  -1064.3928918 -0.266495E-06  0.422E-04    0.65       9.3  T
   4  -1064.3928918  0.159389E-08  0.278E-04    0.65      14.2  T
   5  -1064.3928919 -0.512991E-07  0.149E-04    0.65      26.4  T
   6  -1064.3928919 -0.382774E-07  0.502E-05    0.65      78.6  T
     SCC iter.                  ...        0 min, 19.133 sec
     gradient                   ...        0 min,  2.133 sec
 * total energy  : -1046.5787229 Eh     change       -0.8258456E-03 Eh
   gradient norm :     0.0181982 Eh/a0  converged?    E=F G=F D=F
   step length   :     5.0939913 a0

........................................................................
.............................. CYCLE   60 ..............................
........................................................................
   1  -1064.3950935 -0.106440E+04  0.131E-03    0.65       0.0  T
   2  -1064.3950947 -0.120383E-05  0.796E-04    0.65       5.0  T
   3  -1064.3950950 -0.289059E-06  0.423E-04    0.65       9.3  T
   4  -1064.3950950 -0.250452E-08  0.262E-04    0.65      15.0  T
   5  -1064.3950951 -0.262189E-07  0.142E-04    0.65      27.7  T
   6  -1064.3950951 -0.394800E-07  0.532E-05    0.65      74.1  T
     SCC iter.                  ...        0 min, 19.417 sec
     gradient                   ...        0 min,  2.065 sec
 * total energy  : -1046.5797102 Eh     change       -0.9873256E-03 Eh
   gradient norm :     0.0177648 Eh/a0  converged?    E=F G=F D=F
   step length   :     5.5774017 a0

........................................................................
.............................. CYCLE   61 ..............................
........................................................................
   1  -1064.3894301 -0.106439E+04  0.138E-03    0.65       0.0  T
   2  -1064.3894316 -0.150902E-05  0.786E-04    0.65       5.0  T
   3  -1064.3894319 -0.303289E-06  0.396E-04    0.65       9.9  T
   4  -1064.3894319 -0.345631E-08  0.262E-04    0.65      15.1  T
   5  -1064.3894319 -0.316829E-07  0.145E-04    0.65      27.1  T
   6  -1064.3894319 -0.355874E-07  0.534E-05    0.65      73.7  T
     SCC iter.                  ...        0 min, 18.898 sec
     gradient                   ...        0 min,  2.146 sec
 * total energy  : -1046.5806142 Eh     change       -0.9039189E-03 Eh
   gradient norm :     0.0185704 Eh/a0  converged?    E=F G=F D=F
   step length   :     5.1177556 a0

........................................................................
.............................. CYCLE   62 ..............................
........................................................................
   1  -1064.3969328 -0.106440E+04  0.148E-03    0.65       0.0  T
   2  -1064.3969341 -0.133142E-05  0.942E-04    0.65       4.2  T
   3  -1064.3969345 -0.362104E-06  0.530E-04    0.65       7.4  T
   4  -1064.3969344  0.111772E-07  0.327E-04    0.65      12.0  T
   5  -1064.3969345 -0.681257E-07  0.161E-04    0.65      24.5  T
   6  -1064.3969346 -0.522791E-07  0.537E-05    0.65      73.4  T
     SCC iter.                  ...        0 min, 18.093 sec
     gradient                   ...        0 min,  2.138 sec
 * total energy  : -1046.5817026 Eh     change       -0.1088395E-02 Eh
   gradient norm :     0.0170754 Eh/a0  converged?    E=F G=F D=F
   step length   :     4.4076393 a0

........................................................................
.............................. CYCLE   63 ..............................
........................................................................
   1  -1064.3812105 -0.106438E+04  0.206E-03    0.65       0.0  T
   2  -1064.3812127 -0.224177E-05  0.111E-03    0.65       3.6  T
   3  -1064.3812130 -0.326910E-06  0.628E-04    0.65       6.3  T
   4  -1064.3812131 -0.121636E-07  0.382E-04    0.65      10.3  T
   5  -1064.3812131 -0.841649E-07  0.188E-04    0.65      21.0  T
   6  -1064.3812132 -0.643904E-07  0.639E-05    0.65      61.7  T
     SCC iter.                  ...        0 min, 19.634 sec
     gradient                   ...        0 min,  2.062 sec
 * total energy  : -1046.5824788 Eh     change       -0.7762230E-03 Eh
   gradient norm :     0.0191145 Eh/a0  converged?    E=F G=F D=F
   step length   :     6.4749947 a0

[...]
   408   6 C      415   6 C                                       1.3977705
   414   6 C      415   6 C                                       1.3820035
   407   6 C      416   6 C                                       1.3966103
   416   6 C      417   6 C                                       1.4515814
   417   6 C      418   6 C                                       1.3494926
   381   6 C      419   6 C                                       1.4100512
   418   6 C      419   6 C                                       1.4488775
   416   6 C      420   7 N                                       1.3620632
   419   6 C      420   7 N                                       1.3482653
   383   6 C      421   1 H                                       1.0780453
   384   6 C      422   1 H                                       1.0777422
   386   7 N      423   1 H                                       1.0145590
   389   6 C      424   1 H                                       1.0844689
   390   6 C      425   1 H                                       1.0849361
   392   7 N      426   1 H                                       1.0129242
   393   6 C      427   1 H                                       1.0960345
   393   6 C      428   1 H                                       1.0899810
   393   6 C      429   1 H                                       1.0907584
   394   6 C      430   1 H                                       1.0830885
   395   6 C      431   1 H                                       1.0847269
   397   6 C      432   1 H                                       1.0779201
   398   6 C      433   1 H                                       1.0783223
   403   6 C      434   1 H                                       1.0780501
   404   6 C      435   1 H                                       1.0777034
   406   7 N      436   1 H                                       1.0145584
   409   6 C      437   1 H                                       1.0845788
   410   6 C      438   1 H                                       1.0830685
   412   7 N      439   1 H                                       1.0129491
   413   6 C      440   1 H                                       1.0907668
   413   6 C      441   1 H                                       1.0899993
   413   6 C      442   1 H                                       1.0960106
   414   6 C      443   1 H                                       1.0849513
   415   6 C      444   1 H                                       1.0846104
   417   6 C      445   1 H                                       1.0779647
   418   6 C      446   1 H                                       1.0783201
   447   6 C      448   6 C                                       1.4092211
   448   6 C      449   6 C                                       1.4180765
   449   6 C      450   6 C                                       1.3686991
   450   6 C      451   6 C                                       1.4208420
   448   6 C      452   7 N                                       1.3627541
   451   6 C      452   7 N                                       1.3698223
   451   6 C      453   6 C                                       1.4015555
   454   6 C      455   6 C                                       1.3979011
   455   6 C      456   6 C                                       1.3818058
   456   6 C      457   6 C                                       1.4004605
   457   6 C      458   7 N                                       1.3866487
   458   7 N      459   6 C                                       1.4569270
   457   6 C      460   6 C                                       1.3979393
   454   6 C      461   6 C                                       1.3962416
   460   6 C      461   6 C                                       1.3843744
   453   6 C      462   6 C                                       1.3965494
   462   6 C      463   6 C                                       1.4515663
   463   6 C      464   6 C                                       1.3494835
   462   6 C      465   7 N                                       1.3621932
   464   6 C      466   6 C                                       1.4489262
   465   7 N      466   6 C                                       1.3482681
   466   6 C      467   6 C                                       1.4101312
   467   6 C      468   6 C                                       1.4092627
   468   6 C      469   6 C                                       1.4182098
   469   6 C      470   6 C                                       1.3686505
   470   6 C      471   6 C                                       1.4208384
   468   6 C      472   7 N                                       1.3627607
   471   6 C      472   7 N                                       1.3698901
   471   6 C      473   6 C                                       1.4013202
   474   6 C      475   6 C                                       1.3962319
   475   6 C      476   6 C                                       1.3842042
   476   6 C      477   6 C                                       1.3979901
   477   6 C      478   7 N                                       1.3867223
   478   7 N      479   6 C                                       1.4569731
   477   6 C      480   6 C                                       1.4003864
   474   6 C      481   6 C                                       1.3977619
   480   6 C      481   6 C                                       1.3820179
   473   6 C      482   6 C                                       1.3966156
   482   6 C      483   6 C                                       1.4516142
   483   6 C      484   6 C                                       1.3494848
   447   6 C      485   6 C                                       1.4100015
   484   6 C      485   6 C                                       1.4488500
   482   6 C      486   7 N                                       1.3620726
   485   6 C      486   7 N                                       1.3482555
   449   6 C      487   1 H                                       1.0780395
   450   6 C      488   1 H                                       1.0777367
   452   7 N      489   1 H                                       1.0145589
   455   6 C      490   1 H                                       1.0844675
   456   6 C      491   1 H                                       1.0849399
   458   7 N      492   1 H                                       1.0129362
   459   6 C      493   1 H                                       1.0960385
   459   6 C      494   1 H                                       1.0899831
   459   6 C      495   1 H                                       1.0907594
   460   6 C      496   1 H                                       1.0830951
   461   6 C      497   1 H                                       1.0847261
   463   6 C      498   1 H                                       1.0779225
   464   6 C      499   1 H                                       1.0783233
   469   6 C      500   1 H                                       1.0780463
   470   6 C      501   1 H                                       1.0776986
   472   7 N      502   1 H                                       1.0145551
   475   6 C      503   1 H                                       1.0845821
   476   6 C      504   1 H                                       1.0830714
   478   7 N      505   1 H                                       1.0129630
   479   6 C      506   1 H                                       1.0907685
   479   6 C      507   1 H                                       1.0900062
   479   6 C      508   1 H                                       1.0960183
   480   6 C      509   1 H                                       1.0849550
   481   6 C      510   1 H                                       1.0846104
   483   6 C      511   1 H                                       1.0779602
   484   6 C      512   1 H                                       1.0783218
   513   6 C      514   6 C                                       1.4092340
   514   6 C      515   6 C                                       1.4180820
   515   6 C      516   6 C                                       1.3686837
   516   6 C      517   6 C                                       1.4208668
   514   6 C      518   7 N                                       1.3627738
   517   6 C      518   7 N                                       1.3698490
   517   6 C      519   6 C                                       1.4015339
   520   6 C      521   6 C                                       1.3978873
   521   6 C      522   6 C                                       1.3818107
   522   6 C      523   6 C                                       1.4004347
   523   6 C      524   7 N                                       1.3867059
   524   7 N      525   6 C                                       1.4569606
   523   6 C      526   6 C                                       1.3979284
   520   6 C      527   6 C                                       1.3962250
   526   6 C      527   6 C                                       1.3843763
   519   6 C      528   6 C                                       1.3965700
   528   6 C      529   6 C                                       1.4515690
   529   6 C      530   6 C                                       1.3495039
   528   6 C      531   7 N                                       1.3621320
   530   6 C      532   6 C                                       1.4489095
   531   7 N      532   6 C                                       1.3483265
   532   6 C      533   6 C                                       1.4100850
   533   6 C      534   6 C                                       1.4093068
   534   6 C      535   6 C                                       1.4181879
   535   6 C      536   6 C                                       1.3686814
   536   6 C      537   6 C                                       1.4208270
   534   6 C      538   7 N                                       1.3627712
   537   6 C      538   7 N                                       1.3698565
   537   6 C      539   6 C                                       1.4013466
   540   6 C      541   6 C                                       1.3962355
   541   6 C      542   6 C                                       1.3842078
   542   6 C      543   6 C                                       1.3979766
   543   6 C      544   7 N                                       1.3867684
   544   7 N      545   6 C                                       1.4569911
   543   6 C      546   6 C                                       1.4003640
   540   6 C      547   6 C                                       1.3977564
   546   6 C      547   6 C                                       1.3820252
   539   6 C      548   6 C                                       1.3965938
   548   6 C      549   6 C                                       1.4516320
   549   6 C      550   6 C                                       1.3494807
   513   6 C      551   6 C                                       1.4100258
   550   6 C      551   6 C                                       1.4488382
   548   6 C      552   7 N                                       1.3621044
   551   6 C      552   7 N                                       1.3482391
   515   6 C      553   1 H                                       1.0780382
   516   6 C      554   1 H                                       1.0777350
   518   7 N      555   1 H                                       1.0145593
   521   6 C      556   1 H                                       1.0844692
   522   6 C      557   1 H                                       1.0849386
   524   7 N      558   1 H                                       1.0129465
   525   6 C      559   1 H                                       1.0960415
   525   6 C      560   1 H                                       1.0899786
   525   6 C      561   1 H                                       1.0907580
   526   6 C      562   1 H                                       1.0830920
   527   6 C      563   1 H                                       1.0847252
   529   6 C      564   1 H                                       1.0779286
   530   6 C      565   1 H                                       1.0783309
   535   6 C      566   1 H                                       1.0780520
   536   6 C      567   1 H                                       1.0777061
   538   7 N      568   1 H                                       1.0145505
   541   6 C      569   1 H                                       1.0845807
   542   6 C      570   1 H                                       1.0830697
   544   7 N      571   1 H                                       1.0129645
   545   6 C      572   1 H                                       1.0907622
   545   6 C      573   1 H                                       1.0900010
   545   6 C      574   1 H                                       1.0960195
   546   6 C      575   1 H                                       1.0849538
   547   6 C      576   1 H                                       1.0846112
   549   6 C      577   1 H                                       1.0779595
   550   6 C      578   1 H                                       1.0783227
   579   6 C      580   6 C                                       1.4091779
   580   6 C      581   6 C                                       1.4181427
   581   6 C      582   6 C                                       1.3686746
   582   6 C      583   6 C                                       1.4208818
   580   6 C      584   7 N                                       1.3627287
   583   6 C      584   7 N                                       1.3698313
   583   6 C      585   6 C                                       1.4013666
   586   6 C      587   6 C                                       1.3978510
   587   6 C      588   6 C                                       1.3817966
   588   6 C      589   6 C                                       1.4004641
   589   6 C      590   7 N                                       1.3865627
   590   7 N      591   6 C                                       1.4568498
   589   6 C      592   6 C                                       1.3979180
   586   6 C      593   6 C                                       1.3961797
   592   6 C      593   6 C                                       1.3843637
   585   6 C      594   6 C                                       1.3965858
   594   6 C      595   6 C                                       1.4515915
   595   6 C      596   6 C                                       1.3494042
   594   6 C      597   7 N                                       1.3620349
   596   6 C      598   6 C                                       1.4489794
   597   7 N      598   6 C                                       1.3484232
   598   6 C      599   6 C                                       1.4099100
   599   6 C      600   6 C                                       1.4090320
   600   6 C      601   6 C                                       1.4182075
   601   6 C      602   6 C                                       1.3686727
   602   6 C      603   6 C                                       1.4208670
   600   6 C      604   7 N                                       1.3628581
   603   6 C      604   7 N                                       1.3698003
   603   6 C      605   6 C                                       1.4013587
   606   6 C      607   6 C                                       1.3962267
   607   6 C      608   6 C                                       1.3841994
   608   6 C      609   6 C                                       1.3979245
   609   6 C      610   7 N                                       1.3868504
   610   7 N      611   6 C                                       1.4569913 (max)
   609   6 C      612   6 C                                       1.4003431
   606   6 C      613   6 C                                       1.3976824
   612   6 C      613   6 C                                       1.3820793
   605   6 C      614   6 C                                       1.3965776
   614   6 C      615   6 C                                       1.4516451
   615   6 C      616   6 C                                       1.3495214
   579   6 C      617   6 C                                       1.4100566
   616   6 C      617   6 C                                       1.4488744
   614   6 C      618   7 N                                       1.3620914
   617   6 C      618   7 N                                       1.3482463
   581   6 C      619   1 H                                       1.0780559
   582   6 C      620   1 H                                       1.0777464
   584   7 N      621   1 H                                       1.0145650
   587   6 C      622   1 H                                       1.0844558
   588   6 C      623   1 H                                       1.0849137
   590   7 N      624   1 H                                       1.0129028 (min)
   591   6 C      625   1 H                                       1.0960559
   591   6 C      626   1 H                                       1.0899886
   591   6 C      627   1 H                                       1.0907759
   592   6 C      628   1 H                                       1.0830745
   593   6 C      629   1 H                                       1.0847196
   595   6 C      630   1 H                                       1.0779138
   596   6 C      631   1 H                                       1.0783025
   601   6 C      632   1 H                                       1.0780763
   602   6 C      633   1 H                                       1.0777148
   604   7 N      634   1 H                                       1.0145601
   607   6 C      635   1 H                                       1.0845748
   608   6 C      636   1 H                                       1.0830602
   610   7 N      637   1 H                                       1.0129706
   611   6 C      638   1 H                                       1.0907532
   611   6 C      639   1 H                                       1.0899885
   611   6 C      640   1 H                                       1.0960075
   612   6 C      641   1 H                                       1.0849449
   613   6 C      642   1 H                                       1.0846013
   615   6 C      643   1 H                                       1.0779796
   616   6 C      644   1 H                                       1.0783272

 * 4 distinct bonds (by element types)

   Z      Z             #   av. dist./Å        max./Å        min./Å
   1 H    6 C         200     1.0842182     1.0961167     1.0776986
   6 C    6 C         310     1.3879703     1.4518611     1.2244406
   1 H    7 N          36     1.0137609     1.0147596     1.0129028
   6 C    7 N         108     1.3811004     1.4569913     1.3480461


optimized geometry written to: xtbopt.xyz


           -------------------------------------------------
          | TOTAL ENERGY            -1046.595203905807 Eh   |
          | GRADIENT NORM               0.000891271050 Eh/α |
          | HOMO-LUMO GAP               0.640507596153 eV   |
           -------------------------------------------------

------------------------------------------------------------------------
 * finished run on 2022/07/31 at 07:51:01.647     
------------------------------------------------------------------------
 total:
 * wall-time:     0 d,  1 h,  1 min, 41.266 sec
 *  cpu-time:     0 d,  1 h,  1 min, 21.987 sec
 * ratio c/w:     0.995 speedup
 SCF:
 * wall-time:     0 d,  0 h,  2 min, 42.001 sec
 *  cpu-time:     0 d,  0 h,  2 min, 41.166 sec
 * ratio c/w:     0.995 speedup
 ANC optimizer:
 * wall-time:     0 d,  0 h, 58 min, 58.427 sec
 *  cpu-time:     0 d,  0 h, 58 min, 39.999 sec
 * ratio c/w:     0.995 speedup

