644
 energy: -1046.595203905807 gnorm: 0.000891271050 xtb: 6.5.1 (b24c23e)
C          133.96996348101024        0.54154846311821        0.02367928445778
C          134.57669800798371        0.61980541436421       -1.22366941766722
C          133.92022106823680        0.75116531254015       -2.47902779887070
C          134.87523780847226        0.74108478224924       -3.45712389813520
C          136.14710057429238        0.61742652631948       -2.82981386195467
N          135.91588330223411        0.54609351005208       -1.48494151398276
C          137.40358923670132        0.54663032379696       -3.44459853742899
C          137.43451472504793        0.65258859903223       -4.92178286070873
C          137.97154588905934       -0.37733555087374       -5.69675102654115
C          138.00031109541175       -0.29448144211839       -7.07822406306156
C          137.48944777774994        0.83497980333338       -7.72444974999596
N          137.54437632734854        0.99604974069115       -9.10083972277402
C          137.61547030458547       -0.17663847730863       -9.96220020338549
C          136.96193922238015        1.87655119512520       -6.95123944306609
C          136.92984883814083        1.78178612182907       -5.57269524216797
C          138.61401916328523        0.38640981185313       -2.76474481186702
C          139.91375012421662        0.41366684863090       -3.41044072603337
C          140.83080862829945        0.26492244286198       -2.43187288102446
N          138.76457585238018        0.23060959488750       -1.41999304399890
C          140.09055695148820        0.14982685443428       -1.19078068178843
C          140.72499089713608       -0.00651851234641        0.05902622155798
C          140.08942396921205       -0.11069712708380        1.31156520774748
C          140.73604233262566       -0.25140255640999        2.56734303152658
C          139.77096612319318       -0.30237068580111        3.53534850290402
C          138.50389950303898       -0.19938214273722        2.89833382612783
N          138.74901699103114       -0.08283289155861        1.55501404081190
C          137.24556866702844       -0.17256113582907        3.51124912386806
C          137.21481212961706       -0.35828219811741        4.97971869692616
C          136.66458314182157        0.61580005446884        5.81514314859958
C          136.64189554970227        0.45114311581696        7.18955827309331
C          137.17252830448172       -0.70605139949870        7.76726357728343
N          137.12674369787953       -0.94847137214624        9.13192701383284
C          137.04177201015446        0.16998122966776       10.06141675184263
C          137.71334593448276       -1.69226782228850        6.93291542690683
C          137.73944331196984       -1.51578304726762        5.56268733096885
C          136.03583243460466        0.01928138777968        2.83339167317304
C          134.72791929259725       -0.00620768744405        3.46871201132851
C          133.82338092577911        0.20706027473770        2.49143649142695
C          134.57611651354441        0.34647584730460        1.25780252293211
N          135.90443293945251        0.22547079605554        1.50144139986635
H          132.88713368065629        0.61823331968097        0.02087835962277
H          132.85203974468311        0.82997638629882       -2.60520294313512
H          134.71589340241994        0.80055812191238       -4.52161695346694
H          136.64267502858041        0.43367914057155       -0.78600707915296
H          138.35472673056179       -1.26662214216611       -5.20814386413934
H          138.42269610145115       -1.11282218394399       -7.64832122870920
H          136.88474150511476        1.68530112251706       -9.44112254860324
H          136.82010048271545       -0.89479530709786       -9.73184840539928
H          137.51158423521116        0.15718399889427      -10.99461957380654
H          138.58403138465002       -0.66542573771690       -9.84948656851349
H          136.57846819249028        2.76439041467774       -7.44301748972164
H          136.53001115652657        2.60288995415906       -4.98755460063626
H          140.08227745449199        0.55283836981708       -4.46594934173831
H          141.90557898888511        0.23941909439963       -2.51543747260781
H          141.80439757619041       -0.29958197006375        2.70401268858014
H          139.92233541536280       -0.38633773749029        4.59910972735592
H          138.02652567788562        0.02586630747553        0.85079276829578
H          136.26875321496084        1.52778741139416        5.38157508586355
H          136.21014061721743        1.22850325258940        7.80800712933261
H          137.79892144761081       -1.64586738907410        9.42826463379859
H          136.06560869547627        0.64982148381784        9.98100867534301
H          137.82542726945351        0.91236487238901        9.87145457292642
H          137.15496899819345       -0.22283720416266       11.07188860913235
H          138.11303050751502       -2.60099420884933        7.37072570078179
H          138.15163415861832       -2.29364623506146        4.92906587025658
H          134.54823542318829       -0.18301118673684        4.51698565668741
H          132.74814086545749        0.25605811180507        2.56530999014607
C          268.81454127244308        0.57655887581065       -0.05594851127683
C          268.20630818692661        0.70634025234471        1.18635984368879
C          268.85989344148356        0.91287609744034        2.43302830895089
C          267.90482152168585        0.93505905397631        3.41088935470326
C          266.63556491220248        0.75698205584617        2.79134894833160
N          266.86854724225549        0.62161828732032        1.45174414851733
C          265.38035427149930        0.69569558444832        3.40982720045297
C          265.34849142681435        0.87681687768083        4.87967628198493
C          264.83094691647347       -0.12142537333177        5.70750337272315
C          264.80410777975709        0.03084313747732        7.08307212317993
C          265.29727199730542        1.20003940076181        7.66963320084887
N          265.24404189473250        1.42924036140789        9.03639747111236
C          265.19632903185988        0.30020280803261        9.95578853766105
C          265.80435949527089        2.21019879121942        6.84294638075827
C          265.83471952758077        2.04623722146023        5.47090438485555
C          264.17282477720994        0.47957394396646        2.74038519701443
C          262.87301949905532        0.51805797922467        3.38541684129757
C          261.95831587429205        0.30328754882113        2.41696007182154
N          264.02455892792301        0.25159304945687        1.40566429391927
C          262.70000128700644        0.13640319462732        1.18261395640533
C          262.06804352814493       -0.09656116035987       -0.05653663997787
C          262.70608692386969       -0.25688725361021       -1.30197996348979
C          262.06312871491832       -0.47700622397577       -2.54818967372140
C          263.02954596480623       -0.56092486111480       -3.51255270769666
C          264.29403997105965       -0.39922033410501       -2.88263123640295
N          264.04593918751175       -0.21669534384585       -1.54718277073135
C          265.55163189213727       -0.37874815876560       -3.49732080526315
C          265.58670984769594       -0.63878875753905       -4.95445647263236
C          266.11578703585621        0.30325490007427       -5.83884543326404
C          266.14390934907902        0.06871994317211       -7.20296426371411
C          265.64043842760503       -1.12844719885831       -7.72036252929805
N          265.69393916987372       -1.43980193755984       -9.07069737435564
C          265.75501097783200       -0.36900420129008      -10.05650223294040
C          265.12074729446346       -2.08228599231019       -6.83644267087261
C          265.08884944004922       -1.83615271394925       -5.47708802608456
C          266.75758647042932       -0.12790744825471       -2.83206563188976
C          268.06534625452758       -0.15966536139265       -3.46753100754047
C          268.96619784333086        0.12081556697025       -2.50392810921939
C          268.21167419549005        0.30777625036726       -1.27773475119227
N          266.88579498163278        0.14850674018164       -1.51261844262896
H          269.89576134834232        0.67366605631894       -0.05821383494275
H          269.92643383078627        1.01726694378011        2.55447030264253
H          268.06279273449860        1.05114029267522        4.47090499868560
H          266.14432112685807        0.46095971696746        0.75959484559639
H          264.46200555646146       -1.04074890112015        5.26578299725340
H          264.39741482690101       -0.76467676840972        7.69525988193274
H          265.89284467354651        2.14589238800482        9.33882245851243
H          266.00295301422591       -0.41512241312971        9.75795206121492
H          265.29854137856518        0.68711805850530       10.96967479193411
H          264.23582963506493       -0.20989169259849        9.87232060501483
H          266.17363078896540        3.12827036502555        7.28788147449933
H          266.21881584475483        2.84338155909462        4.84363175922754
H          262.70258884612849        0.70875536468140        4.43257871705648
H          260.88415150012094        0.26373499122674        2.50306234278610
H          260.99602174216244       -0.55319894700793       -2.68156056988292
H          262.88052878176029       -0.70461265186957       -4.57026339505247
H          264.76565301912075       -0.05639112208179       -0.85002046206471
H          266.49060248041678        1.24492941681437       -5.45267507632612
H          266.55887704686728        0.82277141294657       -7.86054755739246
H          265.03804030635297       -2.16649246372894       -9.33099202951554
H          266.72017688794506        0.13602631745338      -10.00085966484224
H          264.95477119698199        0.36450677753760       -9.90499998319677
H          265.65178846222705       -0.81570218711003      -11.04544395052906
H          264.74225052278979       -3.02114789692327       -7.22693750454941
H          264.69340908185268       -2.58941885057121       -4.80431615940645
H          268.24784170718306       -0.38577180167127       -4.50579996487428
H          270.04020983006200        0.18734377171472       -2.58204449417144
C          145.92556629760134       -0.08972669562194        0.09415709549115
C          144.69672150102011       -0.08762320156958        0.09081594517096
C          143.35333724744126       -0.07241250348851        0.08443693741210
C          142.12917238772718       -0.04963509312056        0.07194398190536
C          147.26890327455840       -0.08372677069035        0.09367719351910
C          148.49347249407521       -0.07072226891455        0.08863216125212
C          161.94488262346368        0.01210774187099        0.01144472594994
C          160.71579736990526        0.00135203967081        0.02252508662231
C          159.37286423618002       -0.00754131452595        0.03404070462089
C          158.14810960969265       -0.01356458048856        0.04351427643922
C          163.28784202244719        0.02253349575226        0.00533372552190
C          164.51260426375316        0.02891616928248       -0.00192060053710
C          177.96591531182159        0.02208449192667       -0.00203795212376
C          176.73672323752396        0.01389307081909        0.00116648661118
C          175.39369284468449        0.00946776546447        0.00668677420334
C          174.16883542352988        0.00718759101090        0.01005940102741
C          179.30893438872721        0.03051507529124       -0.00360886824438
C          180.53372221634950        0.03646519116406       -0.00979746203060
C          193.99002901655240        0.02559450557725       -0.00077736169028
C          192.76081410085345        0.02043334650164        0.00469139601986
C          191.41773473526695        0.01169305738216        0.00800230539873
C          190.19290477186181        0.00550713005548        0.01385859337266
C          195.33311970313306        0.03304144391775       -0.00334720262080
C          196.55794844643887        0.03871012853324       -0.00792903952531
C          210.01660639775503        0.02711835865005       -0.00174380146576
C          208.78738697396355        0.02067590049290        0.00341754222088
C          207.44424474647971        0.01280061991271        0.00675972055741
C          206.21935906376444        0.00912934306572        0.01154975818906
C          211.35973988252337        0.03449912450263       -0.00438487591276
C          212.58460163629988        0.04182720627887       -0.00995983609523
C          226.04426284755078        0.03522760015640       -0.00025147563814
C          224.81506401554486        0.02584547018204        0.00507976210763
C          223.47190114217710        0.01668138842181        0.00812946073211
C          222.24705526703403        0.00992993694601        0.01253571916863
C          227.38739981414025        0.04523373964431       -0.00337397097116
C          228.61220480765186        0.05580697116994       -0.00874033447750
C          242.07286037341143        0.01542641478531       -0.02048055094498
C          240.84357548617351        0.01819801539978       -0.01134049998665
C          239.50033955863901        0.01926513089069       -0.00391276167741
C          238.27552219263413        0.01963726822838        0.00451835685278
C          243.41607317057591        0.01019190328102       -0.03058940691992
C          244.64089926391318        0.00427036168905       -0.04233423254395
C          258.09744338686471       -0.23279817919482       -0.08239417337736
C          256.86856239123711       -0.24707960842956       -0.08510327048984
C          255.52503502233577       -0.25012537439023       -0.08149836462949
C          254.30038656121769       -0.23967302141733       -0.07593059654014
C          259.44076354464488       -0.20305967656444       -0.07599613986458
C          260.66453579926110       -0.16184544485778       -0.06590440905063
C          149.89718329957950       -0.04475079500435        0.08226756806282
C          150.52668546737644        0.01146546304229        1.34159898055635
C          149.87837695870283        0.00590527859914        2.60283406004329
C          150.84371386092965        0.05104985161535        3.57219676435097
C          152.10969870266047        0.09550824388753        2.92888753164643
N          151.86721140719939        0.06342874839861        1.58120157737590
C          153.37034490446422        0.13174781505136        3.54045075683619
C          153.38477452835852        0.20054350725179        5.02028015379605
C          154.01424229895133       -0.79285366084457        5.77605003203864
C          154.01694593917759       -0.73567510456596        7.15666136823691
C          153.39364961915979        0.32453802297318        7.82654140869800
N          153.46958592774112        0.36846227000326        9.21052137139763
C          152.47017095229208        1.11451895950482        9.96352883225815
C          152.77750011836483        1.32961480623771        7.07532545506039
C          152.76889595064023        1.25787426858743        5.69279559370380
C          154.59287027941417        0.10658214705236        2.86607034445001
C          155.88203234254860        0.21605254372569        3.52413182239314
C          156.81495990266956        0.16183724954784        2.55060243361644
N          154.76390853406596        0.00715778940298        1.51821779995227
C          156.09400465062794        0.03196996845845        1.30037216093442
C          156.74460146797591       -0.03219918776967        0.05091861312445
C          156.11525778480163       -0.09333098273947       -1.20833845001196
C          156.76441172467599       -0.09653600838112       -2.46939105486366
C          155.79928761287982       -0.12584474446738       -3.43927832246342
C          154.53228179503756       -0.15318189875623       -2.79678305838528
N          154.77446802319523       -0.12843085048609       -1.44863317140747
C          153.27181604730421       -0.16667147724675       -3.40843982777260
C          153.25361877323834       -0.21429504716816       -4.88918509524910
C          152.64239351645847        0.80139206606946       -5.62692940358109
C          152.62223629302946        0.76867219523040       -7.01060420527865
C          153.20394457609805       -0.30182936163020       -7.69616416768298
N          153.25031468898806       -0.36382040545502       -9.08070524883846
C          152.24962942423016        0.34529455106474       -9.86716050571516
C          153.82310919259018       -1.32028644725855       -6.96099935178362
C          153.84985425273484       -1.27304347728563       -5.58007238142942
C          152.04911034233524       -0.13862999384027       -2.73386183416416
C          150.75986142707023       -0.23027347720967       -3.39442156207632
C          149.82668193019762       -0.19241505419989       -2.42038701654012
C          150.54744702797609       -0.08722974823771       -1.16787635285090
N          151.87801347692769       -0.06146504985903       -1.38496193801662
H          148.81030176481073       -0.03673638088181        2.74277976593578
H          150.69239371405578        0.03923806700369        4.63925849676183
H          152.58871639894761        0.06661546128856        0.86790958573943
H          154.48415370669937       -1.63014517712717        5.27183413509580
H          154.50204201600076       -1.51784514873846        7.73110121760764
H          153.66422323444149       -0.53713967155500        9.62045848298294
H          151.45215567709045        0.82304201474919        9.68062986901299
H          152.62309220067272        0.90784765006970       11.02275554927084
H          152.59681555288938        2.18470855275200        9.79509950808385
H          152.30599856451971        2.17339217365649        7.56406050394817
H          152.29681582140307        2.05017390493179        5.12175493079899
H          156.03237057910655        0.33799710441284        4.58452826629437
H          157.88803788288385        0.21487438432273        2.64270646284121
H          157.83305579021905       -0.06859937794249       -2.60874193216176
H          155.95133526116007       -0.11423054247893       -4.50613476075235
H          154.05249598843906       -0.12159862205245       -0.73584895856395
H          152.19549517815020        1.64178904516839       -5.10699070050255
H          152.15462718287191        1.58181040156504       -7.55208434414715
H          153.41665824232143       -1.30192792734108       -9.42473339813207
H          152.40211353530370        1.42205603760822       -9.78312877102887
H          152.37445828202289        0.05595450078617      -10.91060947510723
H          151.23255643147030        0.09862295474531       -9.54169118453632
H          154.28123154132621       -2.15300793186088       -7.48426763800736
H          154.31526487689368       -2.07978236382277       -5.02424503618647
H          150.60958419992184       -0.33040927044947       -4.45712988177276
H          148.75351868874111       -0.24008044856951       -2.51404300279044
C          165.91613626268762        0.04380331547916       -0.00186824159975
C          166.53872017100093        0.10061380763579        1.26106501091824
C          165.88269559458232        0.10556870229009        2.51828994943762
C          166.84258405679486        0.13986048264492        3.49338293973981
C          168.11296629826896        0.16765241492752        2.85781963946783
N          167.87823033475033        0.13714991564532        1.50863082448844
C          169.37010558934463        0.18823054490816        3.47715810101751
C          169.37560126959261        0.25352166568583        4.95716129777746
C          169.98768099898052       -0.74965998009323        5.71427444773473
C          169.97920045604738       -0.69788936201836        7.09506070889491
C          169.36193827944001        0.36656437914329        7.76383159685576
N          169.42513430543804        0.40364423316364        9.14852983693931
C          168.42732910017654        1.15824482386022        9.89521377500132
C          168.76443874644144        1.38195995190541        7.01135352210141
C          168.76675882201033        1.31563990053711        5.62857024747589
C          170.59665524223362        0.15038937848650        2.81056843190132
C          171.88236528835802        0.24793933936185        3.47712295751467
C          172.82112444922868        0.18765043586021        2.50956385133455
N          170.77559211928445        0.05033002556283        1.46383621077519
C          172.10732453614807        0.06454659724259        1.25460649104777
C          172.76520966586111       -0.00499500571722        0.00929510732885
C          172.14281999408124       -0.06722399271466       -1.25346076010649
C          172.79910596882451       -0.08097474321372       -2.51066522649719
C          171.83934754071760       -0.11061311355605       -3.48593835452720
C          170.56858899041671       -0.12693164150118       -2.85061895982561
N          170.80319527232319       -0.09597733596701       -1.50129379626008
C          169.31161753780731       -0.13580880393756       -3.46987350562336
C          169.30249275758570       -0.19362986854387       -4.95036875585186
C          168.70403822359981        0.82170010182859       -5.69900575472732
C          168.69282799646567        0.77975442008854       -7.08253101184645
C          169.27074759729021       -0.29983703607000       -7.75697497747717
N          169.32600463216778       -0.37146308713709       -9.14068071835778
C          168.33757486787610        0.34161769742739       -9.93891362401886
C          169.87697134622621       -1.31812146221679       -7.01082643504263
C          169.89503194644686       -1.26164217159878       -5.63010602270174
C          168.08499820714715       -0.09306013482093       -2.80342688719032
C          166.79914559587237       -0.17863239529352       -3.47142457680295
C          165.86015637564654       -0.12397088729570       -2.50371226024465
C          166.57394540278082       -0.01510577688812       -1.24754998652229
N          167.90587022447534       -0.00344088052179       -1.45618158414638
H          164.81338362067885        0.07619193808035        2.65200949909762
H          166.68441656282849        0.13115128940548        4.55941416657626
H          168.60398910653353        0.12951919133387        0.79971060143841
H          170.45222839046173       -1.59033315882151        5.21074816793604
H          170.45020910810945       -1.48791765973486        7.67048411580780
H          169.60537882994072       -0.50584859840959        9.55643575278745
H          167.40878958414822        0.88034393428101        9.60087595088147
H          168.56723018144154        0.94482218622657       10.95489445214783
H          168.56848876662943        2.22760963361956        9.73313112734090
H          168.29862819377470        2.22928446093042        7.49939890508281
H          168.30889508164569        2.11558000021179        5.05664726521867
H          172.02664203842539        0.36725852500385        4.53865248795052
H          173.89396792928261        0.23177133438044        2.60863815254755
H          173.86865889153918       -0.05991061234199       -2.64406385309145
H          171.99757183924589       -0.10611633643197       -4.55195857740403
H          170.07732853474323       -0.08089338195707       -0.79261187157734
H          168.26031288250226        1.66906274894039       -5.18772621471916
H          168.23517239764325        1.59282910204969       -7.63254242370037
H          169.48670458691592       -1.31312226904272       -9.47757294656609
H          168.49923010615512        1.41748522428542       -9.86055184293866
H          168.46738747446122        0.04452331224772      -10.97957589029386
H          167.31593299708362        0.10623641437040       -9.61941641974889
H          170.33201334528434       -2.15792180282616       -7.52540402512679
H          170.35064098044558       -2.06807516158777       -5.06577979018653
H          166.65474288739190       -0.28641743579653       -4.53421750671426
H          164.78716244356150       -0.16260830818325       -2.60359493854474
C          181.93729636548849        0.04924906883512       -0.00742012916546
C          182.55883117968676        0.10662382616219        1.25600039509857
C          181.90207145040844        0.11367523849459        2.51282560051487
C          182.86146608163446        0.14696319206308        3.48843609174156
C          184.13230597341717        0.17210632747132        2.85362336598210
N          183.89827781698355        0.14125914061222        1.50431181918119
C          185.38893242736000        0.19020845562979        3.47402101841966
C          185.39299962770042        0.25505453047419        4.95414272134129
C          186.00010124085352       -0.75087616380941        5.71158230264245
C          185.99060200330132       -0.69930666758427        7.09235940675465
C          185.37753535965868        0.36781055691399        7.76075903219783
N          185.44013777959483        0.40451395050031        9.14543577179752
C          184.44729728423337        1.16588173549307        9.89180806619274
C          184.78491254292527        1.38578670169313        7.00792104286248
C          184.78800069228643        1.31957722804568        5.62512713775173
C          186.61636959960791        0.15036986522642        2.80916096316367
C          187.90117709721537        0.24484381791374        3.47799454704621
C          188.84145702490954        0.18436344975232        2.51192203824568
N          186.79737732815343        0.05172372063039        1.46263708930065
C          188.12953772474100        0.06423877844472        1.25565364728064
C          188.78920251371048       -0.00396976347152        0.01121605198732
C          188.16779111139905       -0.06441257870025       -1.25216716588456
C          188.82474273279439       -0.07703872330478       -2.50901039718945
C          187.86547752488372       -0.10578044370746       -3.48481601540683
C          186.59436079446843       -0.12278007147096       -2.85022951252877
N          186.82824916795536       -0.09288906711560       -1.50077319834179
C          185.33784920652514       -0.13187130143954       -3.47050183331785
C          185.33025548105687       -0.18948824775332       -4.95106052120660
C          184.73286711961435        0.82603070069805       -5.70026305609222
C          184.72316674104488        0.78418786444476       -7.08381126191455
C          185.30148580608721       -0.29554113074941       -7.75769343592890
N          185.35830580961411       -0.36711143254381       -9.14131164746800
C          184.37159455828422        0.34691895437344       -9.94079225004638
C          185.90653108283172       -1.31408967889161       -7.01094558428314
C          185.92317545888596       -1.25766433033822       -5.63020792582002
C          184.11038003350413       -0.08961836510901       -2.80562729823996
C          182.82551869306317       -0.17570525888394       -3.47552976481491
C          181.88505769461912       -0.12059218178306       -2.50930027395893
C          182.59692426315567       -0.01105474731059       -1.25212120213415
N          183.92918156604574        0.00045546466598       -1.45868140152712
H          180.83263370707735        0.08623127306827        2.64591207316535
H          182.70271680807636        0.13935224926175        4.55439103236739
H          184.62422164975388        0.13204804815527        0.79561336827676
H          186.46163763437960       -1.59332472562312        5.20826503979466
H          186.45769937654711       -1.49142810740047        7.66807850538699
H          185.61485043205658       -0.50587595210593        9.55366837850769
H          183.42693010799616        0.89455923620821        9.59764717269526
H          184.58583469448044        0.95199209679632       10.95158113627046
H          184.59549415683409        2.23424583845004        9.72928240826838
H          184.32231121690921        2.23502720020137        7.49564694967219
H          184.33384143796485        2.12139398219122        5.05288159705875
H          188.04386635382713        0.36229242939411        4.53995048882293
H          189.91422364685508        0.22660963587375        2.61277939716092
H          189.89436799160381       -0.05576766547223       -2.64182115660924
H          188.02425086667134       -0.10026694074745       -4.55074475805277
H          186.10217350332320       -0.07838243516513       -0.79229656852914
H          184.28875760924831        1.67345024405646       -5.18941100344043
H          184.26636587622116        1.59741738731687       -7.63429094678456
H          185.51889259770135       -1.30879669771636       -9.47817264111088
H          184.53428384772258        1.42262691093872       -9.86234996676196
H          184.50236858303242        0.04956936792117      -10.98125911829132
H          183.34931170840545        0.11264943138202       -9.62252781104302
H          186.36181629053027       -2.15402661506738       -7.52507955350515
H          186.37797231472857       -2.06421808638036       -5.06539822758118
H          182.68274923799635       -0.28402994933260       -4.53849593246768
H          180.81221492879021       -0.15939601748296       -2.61079251310305
C          197.96156456044616        0.05314789921726       -0.00677082626273
C          198.58391977657351        0.10999394901492        1.25625329683586
C          197.92802014445238        0.11663682696809        2.51350587249110