      -----------------------------------------------------------      
     |                   =====================                   |     
     |                           x T B                           |     
     |                   =====================                   |     
     |                         S. Grimme                         |     
     |          Mulliken Center for Theoretical Chemistry        |     
     |                    University of Bonn                     |     
      -----------------------------------------------------------      

   * xtb version 6.5.1 (b24c23e) compiled by 'conda@728c89f4b128' on 2022-07-12

   xtb is free software: you can redistribute it and/or modify it under
   the terms of the GNU Lesser General Public License as published by
   the Free Software Foundation, either version 3 of the License, or
   (at your option) any later version.
   
   xtb is distributed in the hope that it will be useful,
   but WITHOUT ANY WARRANTY; without even the implied warranty of
   MERCHANTABILITY or FITNESS FOR A PARTICULAR PURPOSE.  See the
   GNU Lesser General Public License for more details.
   
   Cite this work as:
   * C. Bannwarth, E. Caldeweyher, S. Ehlert, A. Hansen, P. Pracht,
     J. Seibert, S. Spicher, S. Grimme, WIREs Comput. Mol. Sci., 2020, 11,
     e01493. DOI: 10.1002/wcms.1493
   
   for GFN2-xTB:
   * C. Bannwarth, S. Ehlert and S. Grimme., J. Chem. Theory Comput., 2019,
     15, 1652-1671. DOI: 10.1021/acs.jctc.8b01176
   for GFN1-xTB:
   * S. Grimme, C. Bannwarth, P. Shushkov, J. Chem. Theory Comput., 2017,
     13, 1989-2009. DOI: 10.1021/acs.jctc.7b00118
   for GFN0-xTB:
   * P. Pracht, E. Caldeweyher, S. Ehlert, S. Grimme, ChemRxiv, 2019, preprint.
     DOI: 10.26434/chemrxiv.8326202.v1
   for GFN-FF:
   * S. Spicher and S. Grimme, Angew. Chem. Int. Ed., 2020, 59, 15665-15673.
     DOI: 10.1002/anie.202004239
   
   for ALPB and GBSA implicit solvation:
   * S. Ehlert, M. Stahn, S. Spicher, S. Grimme, J. Chem. Theory Comput.,
     2021, 17, 4250-4261. DOI: 10.1021/acs.jctc.1c00471
   
   for DFT-D4:
   * E. Caldeweyher, C. Bannwarth and S. Grimme, J. Chem. Phys., 2017,
     147, 034112. DOI: 10.1063/1.4993215
   * E. Caldeweyher, S. Ehlert, A. Hansen, H. Neugebauer, S. Spicher,
     C. Bannwarth and S. Grimme, J. Chem. Phys., 2019, 150, 154122.
     DOI: 10.1063/1.5090222
   * E. Caldeweyher, J.-M. Mewes, S. Ehlert and S. Grimme, Phys. Chem. Chem. Phys.
     2020, 22, 8499-8512. DOI: 10.1039/D0CP00502A
   
   for sTDA-xTB:
   * S. Grimme and C. Bannwarth, J. Chem. Phys., 2016, 145, 054103.
     DOI: 10.1063/1.4959605
   
   in the mass-spec context:
   * V. Asgeirsson, C. Bauer and S. Grimme, Chem. Sci., 2017, 8, 4879.
     DOI: 10.1039/c7sc00601b
   * J. Koopman and S. Grimme, ACS Omega 2019, 4, 12, 15120-15133.
     DOI: 10.1021/acsomega.9b02011
   
   for metadynamics refer to:
   * S. Grimme, J. Chem. Theory Comput., 2019, 155, 2847-2862
     DOI: 10.1021/acs.jctc.9b00143
   
   for SPH calculations refer to:
   * S. Spicher and S. Grimme, J. Chem. Theory Comput., 2021, 17, 1701-1714
     DOI: 10.1021/acs.jctc.0c01306
   
   with help from (in alphabetical order)
   P. Atkinson, C. Bannwarth, F. Bohle, G. Brandenburg, E. Caldeweyher
   M. Checinski, S. Dohm, S. Ehlert, S. Ehrlich, I. Gerasimov, C. Hölzer
   A. Katbashev, J. Koopman, C. Lavigne, S. Lehtola, F. März, M. Müller,
   F. Musil, H. Neugebauer, J. Pisarek, C. Plett, P. Pracht, F. Pultar,
   J. Seibert, P. Shushkov, S. Spicher, M. Stahn, M. Steiner, T. Strunk,
   J. Stückrath, T. Rose, and J. Unsleber
   
 * started run on 2022/07/30 at 05:59:51.956     

           -------------------------------------------------
          |                Calculation Setup                |
           -------------------------------------------------

          program call               : xtb xtbopt.xyz --gfn 1 --vipea
          hostname                   : cx3-15-15.cx3.hpc.ic.ac.uk
          coordinate file            : xtbopt.xyz
          omp threads                :                     1

   ID    Z sym.   atoms
    1   28 Ni     1, 75, 165
    2    6 C      2-6, 8-20, 22-27, 29-42, 76-80, 82-94, 96-101, 103-116,
                  149-164, 166-170, 172-184, 186-191, 193-206
    3    7 N      7, 21, 28, 43, 81, 95, 102, 117, 171, 185, 192, 207
    4    1 H      44-74, 118-148, 208-237

           -------------------------------------------------
          |                 I P E A - x T B                 |
           -------------------------------------------------

        Reference                      10.1039/c7sc00601b
      * Hamiltonian:
        H0-scaling (s, p, d)           2.150000    2.300000    2.000000
        zeta-weighting                 0.000000
      * Dispersion:
        s8                             2.400000
        a1                             0.630000
        a2                             5.000000
        s9                             0.000000
      * Repulsion:
        kExp                           1.500000
        rExp                           1.000000
      * Coulomb:
        alpha                          1.000000
        third order                    atomic
        anisotropic                    false
      * Halogen bond correction:
        rad-scale                      1.300000
        damping                        0.440000


          ...................................................
          :                      SETUP                      :
          :.................................................:
          :  # basis functions                 924          :
          :  # atomic orbitals                 921          :
          :  # shells                          619          :
          :  # electrons                       702          :
          :  # halogen bonds                     0          :
          :  max. iterations                   250          :
          :  Hamiltonian                  GFN1-xTB          :
          :  restarted?                      false          :
          :  GBSA solvation                  false          :
          :  PC potential                    false          :
          :  electronic temp.          300.0000000     K    :
          :  accuracy                    1.0000000          :
          :  -> integral cutoff          0.2500000E+02      :
          :  -> integral neglect         0.1000000E-07      :
          :  -> SCF convergence          0.1000000E-05 Eh   :
          :  -> wf. convergence          0.2000000E-04 e    :
          :  Broyden damping             0.4000000          :
          ...................................................

 iter      E             dE          RMSdq      gap      omega  full diag
   1   -429.1297830 -0.429130E+03  0.991E+00    1.36       0.0  T
   2   -429.9797646 -0.849982E+00  0.623E+00    1.12       1.0  T
   3   -423.6346637  0.634510E+01  0.427E+00    0.92       1.0  T
   4   -430.4533521 -0.681869E+01  0.109E+00    1.71       1.0  T
   5   -431.0932461 -0.639894E+00  0.291E-01    1.49       1.0  T
   6   -431.1309406 -0.376945E-01  0.109E-01    1.51       1.0  T
   7   -431.1357501 -0.480950E-02  0.485E-02    1.51       1.0  T
   8   -431.1367782 -0.102808E-02  0.240E-02    1.50       1.0  T
   9   -431.1368970 -0.118835E-03  0.152E-02    1.51       1.0  T
  10   -431.1369669 -0.698547E-04  0.627E-03    1.50       1.0  T
  11   -431.1369718 -0.487428E-05  0.417E-03    1.50       1.6  T
  12   -431.1369803 -0.852139E-05  0.877E-04    1.51       7.4  T
  13   -431.1369806 -0.304294E-06  0.352E-04    1.51      18.4  T
  14   -431.1369806 -0.431141E-07  0.110E-04    1.51      58.9  T
  15   -431.1369806 -0.343186E-08  0.614E-05    1.51     105.7  T

   *** convergence criteria satisfied after 15 iterations ***

         #    Occupation            Energy/Eh            Energy/eV
      -------------------------------------------------------------
         1        2.0000           -1.0465341             -28.4776
       ...           ...                  ...                  ...
       345        2.0000           -0.3804326             -10.3521
       346        2.0000           -0.3801314             -10.3439
       347        2.0000           -0.3800503             -10.3417
       348        2.0000           -0.3800461             -10.3416
       349        2.0000           -0.3800279             -10.3411
       350        2.0000           -0.3795748             -10.3288
       351        2.0000           -0.3743373             -10.1862 (HOMO)
       352                         -0.3190213              -8.6810 (LUMO)
       353                         -0.3109070              -8.4602
       354                         -0.3088853              -8.4052
       355                         -0.3038331              -8.2677
       356                         -0.3022302              -8.2241
       ...                                ...                  ...
       921                        563.3537872           15329.6368
      -------------------------------------------------------------
                  HL-Gap            0.0553160 Eh            1.5052 eV
             Fermi-level           -0.3466793 Eh           -9.4336 eV

 SCC (total)                   0 d,  0 h,  0 min,  6.533 sec
 SCC setup                      ...        0 min,  0.007 sec (  0.110%)
 Dispersion                     ...        0 min,  0.010 sec (  0.155%)
 classical contributions        ...        0 min,  0.003 sec (  0.050%)
 integral evaluation            ...        0 min,  0.671 sec ( 10.264%)
 iterations                     ...        0 min,  4.405 sec ( 67.432%)
 molecular gradient             ...        0 min,  1.375 sec ( 21.050%)
 printout                       ...        0 min,  0.061 sec (  0.938%)

         :::::::::::::::::::::::::::::::::::::::::::::::::::::
         ::                     SUMMARY                     ::
         :::::::::::::::::::::::::::::::::::::::::::::::::::::
         :: total energy            -422.331473331902 Eh    ::
         :: gradient norm              0.065341370453 Eh/a0 ::
         :: HOMO-LUMO gap              1.505225302371 eV    ::
         ::.................................................::
         :: SCC energy              -431.136980639216 Eh    ::
         :: -> electrostatic           0.170467080099 Eh    ::
         :: repulsion energy           9.018527950724 Eh    ::
         :: dispersion energy         -0.213020643410 Eh    ::
         :: halogen bond corr.         0.000000000000 Eh    ::
         :: add. restraining           0.000000000000 Eh    ::
         :: total charge               0.000000000000 e     ::
         :::::::::::::::::::::::::::::::::::::::::::::::::::::

           ------------------------------------------------- 
          |        vertical delta SCC IP calculation        |
           ------------------------------------------------- 
   1   -430.7277912 -0.430728E+03  0.101E-01    1.51       0.0  T
   2   -430.6922665  0.355247E-01  0.273E-01    1.35       1.0  T
   3   -430.7154229 -0.231564E-01  0.171E-01    1.40       1.0  T
   4   -430.7121955  0.322739E-02  0.164E-01    1.44       1.0  T
   5   -430.7287444 -0.165489E-01  0.820E-02    1.49       1.0  T
   6   -430.7335373 -0.479287E-02  0.583E-02    1.50       1.0  T
   7   -430.7364496 -0.291236E-02  0.357E-02    1.47       1.0  T
   8   -430.7365035 -0.538941E-04  0.193E-02    1.48       1.0  T
   9   -430.7350581  0.144544E-02  0.495E-02    1.49       1.0  T
  10   -430.7367065 -0.164838E-02  0.214E-02    1.49       1.0  T
  11   -430.7369815 -0.275067E-03  0.989E-03    1.49       1.0  T
  12   -430.7369990 -0.174725E-04  0.698E-03    1.49       1.0  T
  13   -430.7370212 -0.221476E-04  0.354E-03    1.49       1.8  T
  14   -430.7370207  0.406451E-06  0.291E-03    1.49       2.2  T
  15   -430.7370240 -0.326048E-05  0.160E-03    1.49       4.1  T
  16   -430.7370248 -0.838566E-06  0.877E-04    1.49       7.4  T
  17   -430.7370251 -0.265365E-06  0.418E-04    1.49      15.5  T
  18   -430.7370252 -0.823819E-07  0.132E-04    1.49      49.4  T
  19   -430.7370252 -0.843227E-08  0.574E-05    1.49     113.3  T
     SCC iter.                  ...        0 min,  5.579 sec
     gradient                   ...        0 min,  1.369 sec
------------------------------------------------------------------------
empirical IP shift (eV):    4.8455
delta SCC IP (eV):    6.0378
------------------------------------------------------------------------
           ------------------------------------------------- 
          |        vertical delta SCC EA calculation        |
           ------------------------------------------------- 
   1   -431.3928981 -0.431393E+03  0.187E-01    0.31       0.0  T
   2   -431.3903984  0.249968E-02  0.204E-01    0.03       1.0  T
   3   -431.4227471 -0.323487E-01  0.978E-02    0.11       1.0  T
   4   -431.4085215  0.142255E-01  0.124E-01    0.14       1.0  T
   5   -431.4234354 -0.149138E-01  0.727E-02    0.14       1.0  T
   6   -431.4285391 -0.510378E-02  0.333E-02    0.09       1.0  T
   7   -431.4275572  0.981912E-03  0.301E-02    0.08       1.0  T
   8   -431.4282796 -0.722331E-03  0.175E-02    0.10       1.0  T
   9   -431.4287211 -0.441508E-03  0.736E-03    0.09       1.0  T
  10   -431.4287792 -0.581464E-04  0.400E-03    0.09       1.6  T
  11   -431.4287930 -0.137823E-04  0.118E-03    0.09       5.5  T
  12   -431.4287935 -0.486314E-06  0.593E-04    0.09      10.9  T
  13   -431.4287936 -0.126890E-06  0.297E-04    0.09      21.9  T
  14   -431.4287936 -0.347397E-07  0.148E-04    0.09      43.9  T
  15   -431.4287937 -0.307356E-07  0.528E-05    0.09     123.0  T
     SCC iter.                  ...        0 min,  4.413 sec
     gradient                   ...        0 min,  1.369 sec
------------------------------------------------------------------------
empirical EA shift (eV):    4.8455
delta SCC EA (eV):    3.0951
------------------------------------------------------------------------
           -------------------------------------------------
          |                Property Printout                |
           -------------------------------------------------

    * Orbital Energies and Occupations

         #    Occupation            Energy/Eh            Energy/eV
      -------------------------------------------------------------
         1        2.0000           -0.9987533             -27.1775
       ...           ...                  ...                  ...
       340        2.0000           -0.3339824              -9.0881
       341        2.0000           -0.3339290              -9.0867
       342        2.0000           -0.3338923              -9.0857
       343        2.0000           -0.3336818              -9.0799
       344        2.0000           -0.3336411              -9.0788
       345        2.0000           -0.3320155              -9.0346
       346        2.0000           -0.3305570              -8.9949
       347        2.0000           -0.3300182              -8.9803
       348        2.0000           -0.3279869              -8.9250
       349        2.0000           -0.3275523              -8.9132
       350        2.0000           -0.3272969              -8.9062
       351        2.0000           -0.3207464              -8.7280
       352        0.8579           -0.2658736              -7.2348 (HOMO)
       353        0.1389           -0.2624319              -7.1411 (LUMO)
       354        0.0022           -0.2583646              -7.0305
       355        0.0005           -0.2570151              -6.9937
       356        0.0004           -0.2567667              -6.9870
       357        0.0000           -0.2505047              -6.8166
       358                         -0.2263252              -6.1586
       359                         -0.2188829              -5.9561
       360                         -0.2183448              -5.9415
       361                         -0.2170713              -5.9068
       362                         -0.2169653              -5.9039
       363                         -0.2111485              -5.7456
       ...                                ...                  ...
       921                        563.3963657           15330.7954
      -------------------------------------------------------------
                  HL-Gap            0.0034417 Eh            0.0937 eV
             Fermi-level           -0.2787376 Eh           -7.5848 eV

  Mulliken/CM5 charges         n(s)   n(p)   n(d)
     1Ni    0.26832  0.63527   0.577  0.786  8.369
     2C    -0.02678 -0.06813   1.080  2.946  0.000
     3C     0.05836  0.11898   1.113  2.829  0.000
     4C    -0.03951 -0.08606   1.087  2.952  0.000
     5C    -0.03466 -0.08094   1.079  2.956  0.000
     6C     0.06049  0.12389   1.097  2.843  0.000
     7N    -0.20890 -0.45998   1.307  3.902  0.000
     8C     0.01682  0.02119   1.069  2.914  0.000
     9C     0.00319 -0.00190   1.056  2.941  0.000
    10C     0.00202 -0.01285   1.088  2.910  0.000
    11C    -0.05657 -0.20057   1.066  2.991  0.000
    12C    -0.03227 -0.08405   1.062  2.970  0.000
    13C    -0.00439 -0.02208   1.098  2.906  0.000
    14C    -0.06231 -0.20701   1.076  2.987  0.000
    15C    -0.03219 -0.08397   1.062  2.970  0.000
    16C     0.00208 -0.01277   1.088  2.910  0.000
    17C    -0.05654 -0.20053   1.066  2.991  0.000
    18C     0.05992  0.12257   1.095  2.845  0.000
    19C    -0.03452 -0.08080   1.077  2.958  0.000
    20C    -0.03686 -0.08248   1.086  2.951  0.000
    21N    -0.20554 -0.45627   1.309  3.897  0.000
    22C     0.06329  0.12851   1.117  2.819  0.000
    23C     0.01364  0.02053   1.077  2.909  0.000
    24C     0.06324  0.12846   1.117  2.819  0.000
    25C    -0.03689 -0.08251   1.086  2.951  0.000
    26C    -0.03453 -0.08082   1.077  2.958  0.000
    27C     0.05990  0.12254   1.095  2.845  0.000
    28N    -0.20556 -0.45629   1.309  3.897  0.000
    29C     0.01677  0.02114   1.069  2.914  0.000
    30C     0.00320 -0.00188   1.056  2.941  0.000
    31C     0.00218 -0.01269   1.088  2.910  0.000
    32C    -0.05649 -0.20049   1.066  2.991  0.000
    33C    -0.03221 -0.08397   1.062  2.970  0.000
    34C    -0.00441 -0.02209   1.098  2.906  0.000
    35C    -0.06232 -0.20703   1.076  2.987  0.000
    36C    -0.03224 -0.08405   1.063  2.970  0.000
    37C     0.00193 -0.01293   1.088  2.910  0.000
    38C    -0.05663 -0.20062   1.066  2.990  0.000
    39C     0.06049  0.12389   1.097  2.843  0.000
    40C    -0.03469 -0.08097   1.079  2.956  0.000
    41C    -0.03952 -0.08607   1.087  2.952  0.000
    42C     0.05834  0.11896   1.113  2.829  0.000
    43N    -0.20892 -0.45998   1.307  3.902  0.000
    44H     0.02123  0.08023   0.979  0.000  0.000
    45H     0.02613  0.08275   0.974  0.000  0.000
    46H     0.01800  0.07669   0.982  0.000  0.000
    47H     0.01203  0.06583   0.988  0.000  0.000
    48H     0.01265  0.06645   0.987  0.000  0.000
    49H     0.01465  0.06734   0.985  0.000  0.000
    50H     0.02994  0.08745   0.970  0.000  0.000
    51H     0.01937  0.07177   0.981  0.000  0.000
    52H     0.02465  0.07654   0.975  0.000  0.000
    53H     0.01931  0.07171   0.981  0.000  0.000
    54H     0.03011  0.08761   0.970  0.000  0.000
    55H     0.01396  0.06775   0.986  0.000  0.000
    56H     0.01471  0.06740   0.985  0.000  0.000
    57H     0.01084  0.06465   0.989  0.000  0.000
    58H     0.01934  0.07811   0.981  0.000  0.000
    59H     0.02361  0.08184   0.976  0.000  0.000
    60H     0.02349  0.08168   0.977  0.000  0.000
    61H     0.01917  0.07795   0.981  0.000  0.000
    62H     0.01087  0.06467   0.989  0.000  0.000
    63H     0.01471  0.06740   0.985  0.000  0.000
    64H     0.01393  0.06779   0.986  0.000  0.000
    65H     0.03031  0.08783   0.970  0.000  0.000
    66H     0.02213  0.07432   0.978  0.000  0.000
    67H     0.01870  0.07123   0.981  0.000  0.000
    68H     0.02234  0.07431   0.978  0.000  0.000
    69H     0.02971  0.08721   0.970  0.000  0.000
    70H     0.01205  0.06586   0.988  0.000  0.000
    71H     0.01266  0.06641   0.987  0.000  0.000
    72H     0.01463  0.06731   0.985  0.000  0.000
    73H     0.01809  0.07678   0.982  0.000  0.000
    74H     0.02614  0.08276   0.974  0.000  0.000
    75Ni    0.26854  0.63601   0.577  0.786  8.369
    76C    -0.02671 -0.06806   1.080  2.946  0.000
    77C     0.05838  0.11900   1.113  2.829  0.000
    78C    -0.03948 -0.08602   1.087  2.952  0.000
    79C    -0.03463 -0.08091   1.079  2.955  0.000
    80C     0.06051  0.12390   1.097  2.842  0.000
    81N    -0.20882 -0.46006   1.307  3.902  0.000
    82C     0.01686  0.02123   1.069  2.914  0.000
    83C     0.00317 -0.00191   1.056  2.941  0.000
    84C     0.00203 -0.01284   1.088  2.910  0.000
    85C    -0.05656 -0.20056   1.066  2.991  0.000
    86C    -0.03226 -0.08405   1.062  2.970  0.000
    87C    -0.00438 -0.02206   1.098  2.906  0.000
    88C    -0.06231 -0.20701   1.076  2.987  0.000
    89C    -0.03218 -0.08396   1.062  2.970  0.000
    90C     0.00207 -0.01277   1.088  2.909  0.000
    91C    -0.05657 -0.20055   1.066  2.990  0.000
    92C     0.05994  0.12259   1.095  2.845  0.000
    93C    -0.03445 -0.08072   1.077  2.957  0.000
    94C    -0.03681 -0.08243   1.086  2.951  0.000
    95N    -0.20554 -0.45638   1.309  3.897  0.000
    96C     0.06335  0.12856   1.117  2.819  0.000
    97C     0.01369  0.02058   1.077  2.909  0.000
    98C     0.06329  0.12850   1.117  2.819  0.000
    99C    -0.03685 -0.08246   1.086  2.951  0.000
   100C    -0.03446 -0.08074   1.077  2.957  0.000
   101C     0.05992  0.12257   1.095  2.845  0.000
   102N    -0.20554 -0.45641   1.309  3.897  0.000
   103C     0.01679  0.02117   1.069  2.914  0.000
   104C     0.00318 -0.00190   1.056  2.941  0.000
   105C     0.00219 -0.01268   1.088  2.910  0.000
   106C    -0.05648 -0.20048   1.066  2.991  0.000
   107C    -0.03220 -0.08396   1.062  2.970  0.000
   108C    -0.00439 -0.02207   1.098  2.906  0.000
   109C    -0.06233 -0.20703   1.076  2.987  0.000
   110C    -0.03224 -0.08405   1.063  2.970  0.000
   111C     0.00191 -0.01294   1.088  2.910  0.000
   112C    -0.05665 -0.20064   1.066  2.990  0.000
   113C     0.06051  0.12392   1.097  2.842  0.000
   114C    -0.03467 -0.08095   1.079  2.956  0.000
   115C    -0.03949 -0.08603   1.087  2.952  0.000
   116C     0.05835  0.11896   1.113  2.829  0.000
   117N    -0.20885 -0.46004   1.307  3.902  0.000
   118H     0.02132  0.08032   0.979  0.000  0.000
   119H     0.02619  0.08281   0.974  0.000  0.000
   120H     0.01805  0.07674   0.982  0.000  0.000
   121H     0.01204  0.06585   0.988  0.000  0.000
   122H     0.01266  0.06646   0.987  0.000  0.000
   123H     0.01467  0.06736   0.985  0.000  0.000
   124H     0.02996  0.08746   0.970  0.000  0.000
   125H     0.01943  0.07183   0.981  0.000  0.000
   126H     0.02467  0.07656   0.975  0.000  0.000
   127H     0.01930  0.07171   0.981  0.000  0.000
   128H     0.03017  0.08767   0.970  0.000  0.000
   129H     0.01396  0.06774   0.986  0.000  0.000
   130H     0.01476  0.06745   0.985  0.000  0.000
   131H     0.01088  0.06469   0.989  0.000  0.000
   132H     0.01941  0.07817   0.981  0.000  0.000
   133H     0.02369  0.08191   0.976  0.000  0.000
   134H     0.02355  0.08174   0.976  0.000  0.000
   135H     0.01923  0.07800   0.981  0.000  0.000
   136H     0.01087  0.06467   0.989  0.000  0.000
   137H     0.01472  0.06741   0.985  0.000  0.000
   138H     0.01394  0.06781   0.986  0.000  0.000
   139H     0.03034  0.08787   0.970  0.000  0.000
   140H     0.02213  0.07432   0.978  0.000  0.000
   141H     0.01874  0.07127   0.981  0.000  0.000
   142H     0.02238  0.07435   0.978  0.000  0.000
   143H     0.02975  0.08724   0.970  0.000  0.000
   144H     0.01208  0.06590   0.988  0.000  0.000
   145H     0.01269  0.06641   0.987  0.000  0.000
   146H     0.01467  0.06736   0.985  0.000  0.000
   147H     0.01814  0.07683   0.982  0.000  0.000
   148H     0.02620  0.08282   0.974  0.000  0.000
   149C    -0.02202 -0.02379   1.092  2.930  0.000
   150C    -0.02406 -0.02482   1.063  2.961  0.000
   151C    -0.02063 -0.02073   1.076  2.945  0.000
   152C    -0.01991 -0.01992   1.077  2.943  0.000
   153C    -0.02203 -0.02203   1.075  2.947  0.000
   154C    -0.01813 -0.01822   1.078  2.940  0.000
   155C    -0.02590 -0.02665   1.062  2.964  0.000
   156C    -0.01921 -0.02095   1.095  2.924  0.000
   157C    -0.01900 -0.02074   1.095  2.924  0.000
   158C    -0.02594 -0.02669   1.062  2.964  0.000
   159C    -0.01790 -0.01799   1.078  2.940  0.000
   160C    -0.02197 -0.02198   1.075  2.947  0.000
   161C    -0.01971 -0.01972   1.077  2.943  0.000
   162C    -0.02053 -0.02062   1.076  2.945  0.000
   163C    -0.02392 -0.02468   1.063  2.961  0.000
   164C    -0.02192 -0.02367   1.092  2.930  0.000
   165Ni    0.26800  0.63494   0.576  0.784  8.372
   166C     0.01123  0.01815   1.075  2.914  0.000
   167C     0.06302  0.12827   1.117  2.820  0.000
   168C    -0.03827 -0.08388   1.085  2.953  0.000
   169C    -0.03470 -0.08098   1.078  2.957  0.000
   170C     0.05881  0.12147   1.093  2.848  0.000
   171N    -0.20608 -0.45695   1.307  3.899  0.000
   172C     0.01880  0.02313   1.070  2.911  0.000
   173C     0.00375 -0.00134   1.056  2.940  0.000
   174C     0.00239 -0.01248   1.088  2.909  0.000
   175C    -0.05622 -0.20022   1.066  2.991  0.000
   176C    -0.03216 -0.08395   1.062  2.970  0.000
   177C    -0.00445 -0.02214   1.098  2.907  0.000
   178C    -0.06221 -0.20691   1.076  2.987  0.000
   179C    -0.03219 -0.08398   1.062  2.970  0.000
   180C     0.00236 -0.01250   1.088  2.909  0.000
   181C    -0.05628 -0.20028   1.066  2.990  0.000
   182C     0.05878  0.12142   1.093  2.848  0.000
   183C    -0.03469 -0.08096   1.078  2.957  0.000
   184C    -0.03828 -0.08389   1.085  2.953  0.000
   185N    -0.20621 -0.45697   1.307  3.899  0.000
   186C     0.06305  0.12832   1.117  2.820  0.000
   187C     0.01102  0.01793   1.075  2.914  0.000
   188C     0.06304  0.12829   1.117  2.820  0.000
   189C    -0.03828 -0.08389   1.085  2.953  0.000
   190C    -0.03469 -0.08096   1.078  2.957  0.000
   191C     0.05879  0.12144   1.093  2.848  0.000
   192N    -0.20618 -0.45701   1.307  3.899  0.000
   193C     0.01880  0.02313   1.070  2.911  0.000
   194C     0.00374 -0.00134   1.056  2.940  0.000
   195C     0.00240 -0.01247   1.088  2.909  0.000
   196C    -0.05623 -0.20024   1.066  2.991  0.000
   197C    -0.03217 -0.08396   1.062  2.970  0.000
   198C    -0.00445 -0.02213   1.098  2.907  0.000
   199C    -0.06221 -0.20691   1.076  2.987  0.000
   200C    -0.03218 -0.08397   1.062  2.970  0.000
   201C     0.00236 -0.01250   1.088  2.909  0.000
   202C    -0.05627 -0.20028   1.066  2.991  0.000
   203C     0.05879  0.12144   1.093  2.848  0.000
   204C    -0.03468 -0.08096   1.078  2.957  0.000
   205C    -0.03826 -0.08387   1.085  2.953  0.000
   206C     0.06305  0.12832   1.117  2.820  0.000
   207N    -0.20610 -0.45688   1.307  3.899  0.000
   208H     0.02147  0.07967   0.979  0.000  0.000
   209H     0.01770  0.07647   0.982  0.000  0.000
   210H     0.01295  0.06683   0.987  0.000  0.000
   211H     0.01428  0.06698   0.986  0.000  0.000
   212H     0.01180  0.06557   0.988  0.000  0.000
   213H     0.02953  0.08704   0.970  0.000  0.000
   214H     0.02331  0.07520   0.977  0.000  0.000
   215H     0.01957  0.07194   0.980  0.000  0.000
   216H     0.01910  0.07153   0.981  0.000  0.000
   217H     0.02961  0.08712   0.970  0.000  0.000
   218H     0.01298  0.06685   0.987  0.000  0.000
   219H     0.01179  0.06552   0.988  0.000  0.000
   220H     0.01431  0.06700   0.986  0.000  0.000
   221H     0.01781  0.07655   0.982  0.000  0.000
   222H     0.02149  0.07968   0.979  0.000  0.000
   223H     0.02147  0.07966   0.979  0.000  0.000
   224H     0.01781  0.07657   0.982  0.000  0.000
   225H     0.01299  0.06690   0.987  0.000  0.000
   226H     0.01430  0.06699   0.986  0.000  0.000
   227H     0.01178  0.06551   0.988  0.000  0.000
   228H     0.02958  0.08709   0.970  0.000  0.000
   229H     0.01924  0.07165   0.981  0.000  0.000
   230H     0.02334  0.07523   0.977  0.000  0.000
   231H     0.01941  0.07180   0.981  0.000  0.000
   232H     0.02956  0.08707   0.970  0.000  0.000
   233H     0.01431  0.06700   0.986  0.000  0.000
   234H     0.01182  0.06553   0.988  0.000  0.000
   235H     0.01296  0.06687   0.987  0.000  0.000
   236H     0.01767  0.07643   0.982  0.000  0.000
   237H     0.02148  0.07966   0.979  0.000  0.000

Wiberg/Mayer (AO) data.
largest (>0.10) Wiberg bond orders for each atom

 ---------------------------------------------------------------------------
     #   Z sym  total        # sym  WBO       # sym  WBO       # sym  WBO
 ---------------------------------------------------------------------------
     1  28 Ni   3.334 --     7 N    0.713    43 N    0.713    28 N    0.712
                            21 N    0.712
     2   6 C    3.791 --    42 C    1.390     3 C    1.389    44 H    0.997
     3   6 C    3.944 --     2 C    1.389     7 N    1.256     4 C    1.202
     4   6 C    3.843 --     5 C    1.638     3 C    1.202    45 H    0.994
     5   6 C    3.826 --     4 C    1.638     6 C    1.212    46 H    1.001
     6   6 C    3.897 --     8 C    1.380     7 N    1.244     5 C    1.212
     7   7 N    2.978 --     3 C    1.256     6 C    1.244     1 Ni   0.713
     8   6 C    3.786 --     6 C    1.380    18 C    1.377     9 C    1.029
     9   6 C    3.815 --    10 C    1.421    16 C    1.420     8 C    1.029
    10   6 C    3.893 --    12 C    1.436     9 C    1.421    11 C    1.019
    11   6 C    3.894 --    10 C    1.019    49 H    0.997    48 H    0.994
                            47 H    0.993
    12   6 C    3.835 --    10 C    1.436    13 C    1.432    50 H    0.994
    13   6 C    3.928 --    15 C    1.432    12 C    1.432    14 C    1.009
    14   6 C    3.920 --    13 C    1.009    51 H    0.999    53 H    0.998
                            52 H    0.988
    15   6 C    3.835 --    16 C    1.436    13 C    1.432    54 H    0.994
    16   6 C    3.893 --    15 C    1.436     9 C    1.420    17 C    1.019
    17   6 C    3.894 --    16 C    1.019    56 H    0.997    57 H    0.994
                            55 H    0.993
    18   6 C    3.885 --     8 C    1.377    21 N    1.235    19 C    1.221
    19   6 C    3.817 --    20 C    1.620    18 C    1.221    58 H    1.000
    20   6 C    3.833 --    19 C    1.620    22 C    1.228    59 H    0.999
    21   7 N    2.994 --    22 C    1.279    18 C    1.235     1 Ni   0.712
    22   6 C    3.917 --    23 C    1.295    21 N    1.279    20 C    1.228
    23   6 C    3.814 --    24 C    1.295    22 C    1.295   149 C    1.221
    24   6 C    3.917 --    23 C    1.295    28 N    1.279    25 C    1.228
    25   6 C    3.834 --    26 C    1.620    24 C    1.228    60 H    0.999
    26   6 C    3.815 --    25 C    1.620    27 C    1.221    61 H    1.000
    27   6 C    3.885 --    29 C    1.378    28 N    1.235    26 C    1.221
    28   7 N    2.994 --    24 C    1.279    27 C    1.235     1 Ni   0.712
    29   6 C    3.786 --    39 C    1.380    27 C    1.378    30 C    1.029
    30   6 C    3.815 --    37 C    1.424    31 C    1.417    29 C    1.029
    31   6 C    3.893 --    33 C    1.440    30 C    1.417    32 C    1.019
    32   6 C    3.894 --    31 C    1.019    63 H    0.997    62 H    0.994
                            64 H    0.993
    33   6 C    3.835 --    31 C    1.440    34 C    1.428    65 H    0.995
    34   6 C    3.928 --    36 C    1.437    33 C    1.428    35 C    1.009
    35   6 C    3.920 --    34 C    1.009    67 H    1.001    66 H    0.994
                            68 H    0.990
    36   6 C    3.835 --    34 C    1.437    37 C    1.431    69 H    0.994
    37   6 C    3.893 --    36 C    1.431    30 C    1.424    38 C    1.019
    38   6 C    3.894 --    37 C    1.019    72 H    0.997    71 H    0.994
                            70 H    0.993
    39   6 C    3.897 --    29 C    1.380    43 N    1.244    40 C    1.212
    40   6 C    3.825 --    41 C    1.638    39 C    1.212    73 H    1.001
    41   6 C    3.843 --    40 C    1.638    42 C    1.202    74 H    0.994
    42   6 C    3.944 --     2 C    1.390    43 N    1.255    41 C    1.202
    43   7 N    2.978 --    42 C    1.255    39 C    1.244     1 Ni   0.713
    44   1 H    1.038 --     2 C    0.997
    45   1 H    1.026 --     4 C    0.994
    46   1 H    1.048 --     5 C    1.001
    47   1 H    1.058 --    11 C    0.993
    48   1 H    1.060 --    11 C    0.994
    49   1 H    1.044 --    11 C    0.997
    50   1 H    1.017 --    12 C    0.994
    51   1 H    1.035 --    14 C    0.999
    52   1 H    1.033 --    14 C    0.988
    53   1 H    1.035 --    14 C    0.998
    54   1 H    1.016 --    15 C    0.994
    55   1 H    1.057 --    17 C    0.993
    56   1 H    1.044 --    17 C    0.997
    57   1 H    1.061 --    17 C    0.994
    58   1 H    1.048 --    19 C    1.000
    59   1 H    1.037 --    20 C    0.999
    60   1 H    1.038 --    25 C    0.999
    61   1 H    1.047 --    26 C    1.000
    62   1 H    1.061 --    32 C    0.994
    63   1 H    1.045 --    32 C    0.997
    64   1 H    1.057 --    32 C    0.993
    65   1 H    1.015 --    33 C    0.995
    66   1 H    1.034 --    35 C    0.994
    67   1 H    1.034 --    35 C    1.001
    68   1 H    1.035 --    35 C    0.990
    69   1 H    1.016 --    36 C    0.994
    70   1 H    1.058 --    38 C    0.993
    71   1 H    1.061 --    38 C    0.994
    72   1 H    1.044 --    38 C    0.997
    73   1 H    1.047 --    40 C    1.001
    74   1 H    1.026 --    41 C    0.994
    75  28 Ni   3.336 --    81 N    0.713   117 N    0.713   102 N    0.712
                            95 N    0.712
    76   6 C    3.790 --   116 C    1.390    77 C    1.389   118 H    0.997
    77   6 C    3.944 --    76 C    1.389    81 N    1.256    78 C    1.202
    78   6 C    3.843 --    79 C    1.638    77 C    1.202   119 H    0.994
    79   6 C    3.825 --    78 C    1.638    80 C    1.212   120 H    1.001
    80   6 C    3.897 --    82 C    1.380    81 N    1.244    79 C    1.212
    81   7 N    2.978 --    77 C    1.256    80 C    1.244    75 Ni   0.713
    82   6 C    3.786 --    80 C    1.380    92 C    1.378    83 C    1.029
    83   6 C    3.815 --    84 C    1.421    90 C    1.420    82 C    1.029
    84   6 C    3.893 --    86 C    1.436    83 C    1.421    85 C    1.019
    85   6 C    3.894 --    84 C    1.019   123 H    0.997   122 H    0.994
                           121 H    0.993
    86   6 C    3.835 --    84 C    1.436    87 C    1.432   124 H    0.994
    87   6 C    3.928 --    86 C    1.432    89 C    1.432    88 C    1.009
    88   6 C    3.920 --    87 C    1.009   127 H    0.999   125 H    0.998
                           126 H    0.988
    89   6 C    3.835 --    90 C    1.436    87 C    1.432   128 H    0.994
    90   6 C    3.893 --    89 C    1.436    83 C    1.420    91 C    1.019
    91   6 C    3.894 --    90 C    1.019   130 H    0.997   131 H    0.994
                           129 H    0.993
    92   6 C    3.885 --    82 C    1.378    95 N    1.235    93 C    1.221
    93   6 C    3.817 --    94 C    1.620    92 C    1.221   132 H    1.000
    94   6 C    3.833 --    93 C    1.620    96 C    1.228   133 H    0.999
    95   7 N    2.994 --    96 C    1.279    92 C    1.235    75 Ni   0.712
    96   6 C    3.917 --    97 C    1.296    95 N    1.279    94 C    1.228
    97   6 C    3.814 --    98 C    1.296    96 C    1.296   164 C    1.219
    98   6 C    3.918 --    97 C    1.296   102 N    1.279    99 C    1.228
    99   6 C    3.834 --   100 C    1.620    98 C    1.228   134 H    0.999
   100   6 C    3.815 --    99 C    1.620   101 C    1.221   135 H    1.000
   101   6 C    3.885 --   103 C    1.378   102 N    1.235   100 C    1.221
   102   7 N    2.994 --    98 C    1.279   101 C    1.235    75 Ni   0.712
   103   6 C    3.786 --   113 C    1.379   101 C    1.378   104 C    1.029
   104   6 C    3.815 --   111 C    1.424   105 C    1.417   103 C    1.029
   105   6 C    3.893 --   107 C    1.440   104 C    1.417   106 C    1.019
   106   6 C    3.894 --   105 C    1.019   137 H    0.997   136 H    0.994
                           138 H    0.993
   107   6 C    3.834 --   105 C    1.440   108 C    1.428   139 H    0.995
   108   6 C    3.928 --   110 C    1.437   107 C    1.428   109 C    1.009
   109   6 C    3.920 --   108 C    1.009   141 H    1.001   140 H    0.994
                           142 H    0.990
   110   6 C    3.835 --   108 C    1.437   111 C    1.431   143 H    0.994
   111   6 C    3.893 --   110 C    1.431   104 C    1.424   112 C    1.019
   112   6 C    3.894 --   111 C    1.019   146 H    0.997   144 H    0.994
                           145 H    0.993
   113   6 C    3.897 --   103 C    1.379   117 N    1.244   114 C    1.212
   114   6 C    3.825 --   115 C    1.638   113 C    1.212   147 H    1.001
   115   6 C    3.843 --   114 C    1.638   116 C    1.202   148 H    0.994
   116   6 C    3.944 --    76 C    1.390   117 N    1.255   115 C    1.202
   117   7 N    2.978 --   116 C    1.255   113 C    1.244    75 Ni   0.713
   118   1 H    1.038 --    76 C    0.997
   119   1 H    1.026 --    78 C    0.994
   120   1 H    1.048 --    79 C    1.001
   121   1 H    1.058 --    85 C    0.993
   122   1 H    1.060 --    85 C    0.994
   123   1 H    1.044 --    85 C    0.997
   124   1 H    1.017 --    86 C    0.994
   125   1 H    1.035 --    88 C    0.998
   126   1 H    1.032 --    88 C    0.988
   127   1 H    1.035 --    88 C    0.999
   128   1 H    1.016 --    89 C    0.994
   129   1 H    1.057 --    91 C    0.993
   130   1 H    1.044 --    91 C    0.997
   131   1 H    1.061 --    91 C    0.994
   132   1 H    1.046 --    93 C    1.000
   133   1 H    1.037 --    94 C    0.999
   134   1 H    1.038 --    99 C    0.999
   135   1 H    1.047 --   100 C    1.000
   136   1 H    1.061 --   106 C    0.994
   137   1 H    1.045 --   106 C    0.997
   138   1 H    1.057 --   106 C    0.993
   139   1 H    1.015 --   107 C    0.995
   140   1 H    1.034 --   109 C    0.994
   141   1 H    1.034 --   109 C    1.001
   142   1 H    1.035 --   109 C    0.990
   143   1 H    1.016 --   110 C    0.994
   144   1 H    1.057 --   112 C    0.994
   145   1 H    1.061 --   112 C    0.993
   146   1 H    1.044 --   112 C    0.997
   147   1 H    1.047 --   114 C    1.001
   148   1 H    1.026 --   115 C    0.994
   149   6 C    3.751 --   150 C    2.463    23 C    1.221   152 C    0.165
   150   6 C    3.813 --   149 C    2.463   151 C    1.363
   151   6 C    3.800 --   152 C    2.342   150 C    1.363   154 C    0.159
   152   6 C    3.835 --   151 C    2.342   153 C    1.392   149 C    0.165
   153   6 C    3.834 --   154 C    2.341   152 C    1.392   156 C    0.165
   154   6 C    3.801 --   153 C    2.341   155 C    1.365   151 C    0.159
   155   6 C    3.812 --   156 C    2.460   154 C    1.365
   156   6 C    3.752 --   155 C    2.460   166 C    1.223   153 C    0.165
   157   6 C    3.753 --   158 C    2.462   187 C    1.222   160 C    0.165
   158   6 C    3.813 --   157 C    2.462   159 C    1.364
   159   6 C    3.801 --   160 C    2.343   158 C    1.364   162 C    0.159
   160   6 C    3.834 --   159 C    2.343   161 C    1.391   157 C    0.165
   161   6 C    3.835 --   162 C    2.344   160 C    1.391   164 C    0.165
   162   6 C    3.800 --   161 C    2.344   163 C    1.362   159 C    0.159
   163   6 C    3.814 --   164 C    2.465   162 C    1.362
   164   6 C    3.751 --   163 C    2.465    97 C    1.219   161 C    0.165
   165  28 Ni   3.319 --   192 N    0.710   171 N    0.710   185 N    0.710
                           207 N    0.710
   166   6 C    3.806 --   167 C    1.292   206 C    1.292   156 C    1.223
   167   6 C    3.918 --   166 C    1.292   171 N    1.281   168 C    1.229
   168   6 C    3.832 --   169 C    1.619   167 C    1.229   208 H    0.999
   169   6 C    3.819 --   168 C    1.619   170 C    1.223   209 H    1.001
   170   6 C    3.883 --   172 C    1.379   171 N    1.232   169 C    1.223
   171   7 N    2.983 --   167 C    1.281   170 C    1.232   165 Ni   0.710
   172   6 C    3.782 --   182 C    1.380   170 C    1.379   173 C    1.029
   173   6 C    3.814 --   174 C    1.421   180 C    1.420   172 C    1.029
   174   6 C    3.892 --   176 C    1.435   173 C    1.421   175 C    1.019
   175   6 C    3.893 --   174 C    1.019   211 H    0.997   212 H    0.994
                           210 H    0.993
   176   6 C    3.835 --   174 C    1.435   177 C    1.433   213 H    0.994
   177   6 C    3.928 --   176 C    1.433   179 C    1.432   178 C    1.009
   178   6 C    3.920 --   177 C    1.009   216 H    0.999   215 H    0.998
                           214 H    0.988
   179   6 C    3.835 --   180 C    1.436   177 C    1.432   217 H    0.994
   180   6 C    3.893 --   179 C    1.436   173 C    1.420   181 C    1.019
   181   6 C    3.893 --   180 C    1.019   220 H    0.997   219 H    0.994
                           218 H    0.993
   182   6 C    3.883 --   172 C    1.380   185 N    1.232   183 C    1.222
   183   6 C    3.818 --   184 C    1.619   182 C    1.222   221 H    1.001
   184   6 C    3.832 --   183 C    1.619   186 C    1.229   222 H    0.999
   185   7 N    2.982 --   186 C    1.281   182 C    1.232   165 Ni   0.710
   186   6 C    3.919 --   187 C    1.293   185 N    1.281   184 C    1.229
   187   6 C    3.806 --   188 C    1.293   186 C    1.293   157 C    1.222
   188   6 C    3.919 --   187 C    1.293   192 N    1.281   189 C    1.229
   189   6 C    3.832 --   190 C    1.619   188 C    1.229   223 H    0.999
   190   6 C    3.818 --   189 C    1.619   191 C    1.222   224 H    1.001
   191   6 C    3.883 --   193 C    1.379   192 N    1.232   190 C    1.222
   192   7 N    2.982 --   188 C    1.281   191 C    1.232   165 Ni   0.710
   193   6 C    3.782 --   191 C    1.379   203 C    1.379   194 C    1.029
   194   6 C    3.814 --   201 C    1.421   195 C    1.420   193 C    1.029
   195   6 C    3.892 --   197 C    1.436   194 C    1.420   196 C    1.019
   196   6 C    3.893 --   195 C    1.019   226 H    0.997   227 H    0.994
                           225 H    0.993
   197   6 C    3.835 --   195 C    1.436   198 C    1.432   228 H    0.994
   198   6 C    3.928 --   200 C    1.433   197 C    1.432   199 C    1.009
   199   6 C    3.920 --   198 C    1.009   229 H    0.999   231 H    0.998
                           230 H    0.988
   200   6 C    3.835 --   201 C    1.436   198 C    1.433   232 H    0.994
   201   6 C    3.893 --   200 C    1.436   194 C    1.421   202 C    1.019
   202   6 C    3.893 --   201 C    1.019   233 H    0.997   234 H    0.994
                           235 H    0.993
   203   6 C    3.883 --   193 C    1.379   207 N    1.232   204 C    1.223
   204   6 C    3.818 --   205 C    1.619   203 C    1.223   236 H    1.001
   205   6 C    3.832 --   204 C    1.619   206 C    1.229   237 H    0.999
   206   6 C    3.918 --   166 C    1.292   207 N    1.281   205 C    1.229
   207   7 N    2.982 --   206 C    1.281   203 C    1.232   165 Ni   0.710
   208   1 H    1.038 --   168 C    0.999
   209   1 H    1.048 --   169 C    1.001
   210   1 H    1.057 --   175 C    0.993
   211   1 H    1.044 --   175 C    0.997
   212   1 H    1.061 --   175 C    0.994
   213   1 H    1.018 --   176 C    0.994
   214   1 H    1.033 --   178 C    0.988
   215   1 H    1.035 --   178 C    0.998
   216   1 H    1.035 --   178 C    0.999
   217   1 H    1.016 --   179 C    0.994
   218   1 H    1.057 --   181 C    0.993
   219   1 H    1.061 --   181 C    0.994
   220   1 H    1.044 --   181 C    0.997
   221   1 H    1.047 --   183 C    1.001
   222   1 H    1.038 --   184 C    0.999
   223   1 H    1.038 --   189 C    0.999
   224   1 H    1.047 --   190 C    1.001
   225   1 H    1.057 --   196 C    0.993
   226   1 H    1.044 --   196 C    0.997
   227   1 H    1.061 --   196 C    0.994
   228   1 H    1.016 --   197 C    0.994
   229   1 H    1.035 --   199 C    0.999
   230   1 H    1.033 --   199 C    0.988
   231   1 H    1.035 --   199 C    0.998
   232   1 H    1.016 --   200 C    0.994
   233   1 H    1.044 --   202 C    0.997
   234   1 H    1.061 --   202 C    0.994
   235   1 H    1.057 --   202 C    0.993
   236   1 H    1.048 --   204 C    1.001
   237   1 H    1.038 --   205 C    0.999
 ---------------------------------------------------------------------------

Topologies differ in total number of bonds
Writing topology from bond orders to xtbtopo.mol

 dipole moment from electron density (au)
     X       Y       Z   
 -87.6467   0.0286   0.0155  total (Debye):  222.776


           -------------------------------------------------
          | TOTAL ENERGY             -422.623286368130 Eh   |
          | GRADIENT NORM               0.079884640048 Eh/α |
          | HOMO-LUMO GAP               0.093652492839 eV   |
           -------------------------------------------------
########################################################################
[WARNING] Runtime exception occurred
-1- restart_readRestart: Dimension missmatch in restart file.
########################################################################

------------------------------------------------------------------------
 * finished run on 2022/07/30 at 06:00:13.363     
------------------------------------------------------------------------
 total:
 * wall-time:     0 d,  0 h,  0 min, 21.407 sec
 *  cpu-time:     0 d,  0 h,  0 min, 21.304 sec
 * ratio c/w:     0.995 speedup
 SCF:
 * wall-time:     0 d,  0 h,  0 min, 20.765 sec
 *  cpu-time:     0 d,  0 h,  0 min, 20.669 sec
 * ratio c/w:     0.995 speedup

