237
 energy: -373.799850105509 gnorm: 1.872667346724 xtb: 6.5.1 (b24c23e)
Ni          27.12367900000000       -0.01839600000000       -0.01572600000000
C           23.74981100000000        0.11412200000000        0.02355700000000
C           24.41852700000000        1.16676200000000        0.50216900000000
C           23.77521000000000        2.34829100000000        1.06495400000000
C           24.72222400000000        3.20075400000000        1.41007800000000
C           26.02266800000000        2.60345900000000        1.07969300000000
N           25.83810100000000        1.30926600000000        0.50726700000000
C           27.21642700000000        3.20099200000000        1.26201000000000
C           27.26198200000000        4.56888600000000        1.84157000000000
C           27.17824800000000        5.70212400000000        0.99837100000000
C           27.04045300000000        5.55167400000000       -0.49466200000000
C           27.22118900000000        6.98740000000000        1.55991000000000
C           27.34078600000000        7.16005900000000        2.94377800000000
C           27.42668400000000        8.54000000000000        3.52725100000000
C           27.44954000000000        6.03844900000000        3.77392300000000
C           27.40273100000000        4.74234500000000        3.23842100000000
C           27.51409500000000        3.55612800000000        4.16091800000000
C           28.50951000000000        2.56154400000000        0.90868100000000
C           29.80164700000000        3.25224300000000        0.98087200000000
C           30.73684500000000        2.39325700000000        0.63284800000000
N           28.64690100000000        1.32624900000000        0.53327900000000
C           30.04909700000000        1.14148500000000        0.33697700000000
C           30.64409600000000       -0.01224600000000       -0.01153900000000
C           29.88684900000000       -1.25420800000000       -0.29917100000000
C           30.44313600000000       -2.45307200000000       -0.42204600000000
C           29.39415400000000       -3.38213800000000       -0.78865600000000
C           28.26277300000000       -2.69178800000000       -0.86513800000000
N           28.48307500000000       -1.31336800000000       -0.55902900000000
C           26.96108900000000       -3.27141000000000       -1.28519700000000
C           26.95061100000000       -4.63351500000000       -1.88351500000000
C           27.18928000000000       -4.80120900000000       -3.26770200000000
C           27.45700800000000       -3.61614200000000       -4.15915300000000
C           27.18598500000000       -6.09113200000000       -3.81976700000000
C           26.94723500000000       -7.21223300000000       -3.01759100000000
C           26.92166100000000       -8.57825600000000       -3.63840200000000
C           26.69811400000000       -7.04462800000000       -1.64993400000000
C           26.70881300000000       -5.76657900000000       -1.07062900000000
C           26.44773500000000       -5.62290200000000        0.40672500000000
C           25.79941500000000       -2.60867000000000       -1.14169800000000
C           24.47941600000000       -3.10424600000000       -1.52450000000000
C           23.61827700000000       -2.17713100000000       -1.15339100000000
C           24.38043600000000       -1.08864300000000       -0.54289500000000
N           25.65371400000000       -1.32967400000000       -0.52982600000000
H           22.66663600000000        0.13947900000000        0.04588500000000
H           22.71212300000000        2.51427200000000        1.18286600000000
H           24.54438100000000        4.17206500000000        1.85335400000000
H           26.08883100000000        5.03228200000000       -0.73281800000000
H           27.89048400000000        4.95971500000000       -0.89422100000000
H           27.03592600000000        6.53600600000000       -1.00908500000000
H           27.16197700000000        7.85938400000000        0.91904500000000
H           27.00282400000000        8.55870600000000        4.55401100000000
H           28.48950500000000        8.85792100000000        3.56794400000000
H           26.85478200000000        9.26457400000000        2.90910000000000
H           27.56890200000000        6.17797300000000        4.84203400000000
H           28.42909000000000        2.97675600000000        3.91672200000000
H           27.57295400000000        3.86647100000000        5.22548400000000
H           26.62479900000000        2.90201500000000        4.04297000000000
H           29.97729800000000        4.28085400000000        1.26739100000000
H           31.79702600000000        2.60502700000000        0.59021200000000
H           31.48874500000000       -2.70022700000000       -0.29822000000000
H           29.52149600000000       -4.43829300000000       -0.98788800000000
H           26.62190800000000       -2.88819500000000       -4.08128400000000
H           27.55283200000000       -3.91561400000000       -5.22431300000000
H           28.40257000000000       -3.12281800000000       -3.85095500000000
H           27.36774400000000       -6.22757600000000       -4.87966700000000
H           27.82261000000000       -8.72229400000000       -4.27279400000000
H           26.91254100000000       -9.37641800000000       -2.86506000000000
H           26.01306500000000       -8.68119800000000       -4.26906400000000
H           26.49925600000000       -7.91350600000000       -1.03368700000000
H           25.49323300000000       -5.07992000000000        0.56716600000000
H           27.27530000000000       -5.05728700000000        0.88394000000000
H           26.37499000000000       -6.61027000000000        0.91017500000000
H           24.23157600000000       -4.04203600000000       -2.00465000000000
H           22.54505500000000       -2.22795400000000       -1.28159600000000
Ni          65.78651499999999       -0.00491000000000       -0.01030200000000
C           69.16038300000000       -0.12773000000000       -0.07370200000000
C           68.49166700000001       -1.21865300000000       -0.45711500000000
C           69.13498400000000       -2.46085600000000       -0.86902500000000
C           68.18797000000001       -3.31491900000000       -1.21017200000000
C           66.88752599999999       -2.65518500000000       -1.03504800000000
N           67.07209300000000       -1.32501100000000       -0.55209700000000
C           65.69376699999999       -3.21257800000000       -1.31718000000000
C           65.64821200000000       -4.60087400000000       -1.84601000000000
C           65.73194599999999       -4.83482900000000       -3.23902000000000
C           65.86974100000000       -3.69259900000000       -4.21220700000000
C           65.68900499999999       -6.15103200000000       -3.72365500000000
C           65.56940800000000       -7.23371000000000       -2.84461500000000
C           65.48351000000000       -8.63340700000000       -3.37896100000000
C           65.46065500000000       -6.99910700000000       -1.46907400000000
C           65.50746300000000       -5.69311800000000       -0.95815500000000
C           65.39609900000001       -5.47583200000000        0.52875400000000
C           64.40068400000000       -2.50654400000000       -1.12942900000000
C           63.10854700000000       -3.05492100000000       -1.55552700000000
C           62.17334900000000       -2.19414500000000       -1.21195600000000
N           64.26329300000000       -1.35527500000000       -0.54508400000000
C           62.86109799999999       -1.08604700000000       -0.55881600000000
C           62.26609799999999       -0.01224600000000       -0.01153900000000
C           63.02334500000000        1.08306800000000        0.64075400000000
C           62.46705800000000        2.03321800000000        1.38209700000000
C           63.51604000000000        2.95743200000000        1.76077500000000
C           64.64742099999999        2.51223700000000        1.22763800000000
N           64.42711900000000        1.30566400000000        0.49420300000000
C           65.94910500000000        3.22130100000000        1.32581900000000
C           65.95958299999999        4.61840600000000        1.83710500000000
C           65.72091399999999        5.69772100000000        0.95439800000000
C           65.45318700000000        5.45977200000000       -0.50931200000000
C           65.72420900000000        7.01071800000000        1.44908700000000
C           65.96295900000000        7.26431800000000        2.80409200000000
C           65.98853300000000        8.67982200000000        3.30186000000000
C           66.21208000000000        6.19651000000000        3.67493300000000
C           66.20138100000000        4.87322300000000        3.20812200000000
C           66.46245900000000        3.74673500000000        4.17468400000000
C           67.11077899999999        2.64373000000000        0.97053200000000
C           68.43077800000000        3.26635400000000        1.03741000000000
C           69.29191800000000        2.34043400000000        0.66332900000000
C           68.52975900000000        1.13233600000000        0.35026200000000
N           67.25648000000000        1.29721200000000        0.52656500000000
H           70.24355799999999       -0.16148500000000       -0.07514600000000
H           70.19807100000000       -2.66225900000000       -0.89885400000000
H           68.36581300000000       -4.32269200000000       -1.56277600000000
H           66.82136300000001       -3.15293300000000       -4.02446800000000
H           65.01971000000000       -2.98882600000000       -4.09069300000000
H           65.87426800000000       -4.04672900000000       -5.26488600000000
H           65.74821700000000       -6.33655300000000       -4.78979100000000
H           65.90737000000000       -9.35775900000000       -2.65101900000000
H           64.42068900000000       -8.89098700000000       -3.56970300000000
H           66.05541200000000       -8.72828500000000       -4.32665200000000
H           65.34129200000000       -7.83926800000000       -0.79493900000000
H           64.48110400000000       -4.88870300000000        0.75366100000000
H           65.33723999999999       -6.43679900000000        1.08206800000000
H           66.28539499999999       -4.92217600000000        0.89650500000000
H           62.93289599999999       -3.99551500000000       -2.06091500000000
H           61.11316800000000       -2.31743600000000       -1.38933500000000
H           61.42144900000000        2.12583400000000        1.64255900000000
H           63.38869800000000        3.85746900000000        2.34821800000000
H           66.28828600000000        4.88058700000000       -0.95710100000000
H           65.35736199999999        6.41330600000000       -1.07058200000000
H           64.50762400000001        4.89042500000000       -0.62846400000000
H           65.54245000000000        7.84297200000000        0.77874300000000
H           65.08758400000001        9.22296400000000        2.94381500000000
H           65.99765300000000        8.72035600000000        4.41248100000000
H           66.89712900000001        9.19072700000000        2.91805500000000
H           66.41093800000000        6.39683300000000        4.72115500000000
H           67.41696100000000        3.24385000000000        3.91453500000000
H           65.63489400000000        3.00820700000000        4.12744400000000
H           66.53520399999999        4.11065100000000        5.22154700000000
H           68.67861800000000        4.27546900000000        1.34019900000000
H           70.36513900000000        2.46586700000000        0.60600400000000
C           32.95977000000000        0.00244400000000       -0.00126400000000
C           34.41799600000000       -0.01939200000000       -0.01913700000000
C           35.55192399999999       -0.04014600000000       -0.02062800000000
C           36.91330599999999       -0.05273600000000       -0.02281900000000
C           38.18752499999999       -0.04242900000000       -0.02758400000000
C           39.37598699999999       -0.02363100000000       -0.03374000000000
C           40.72834800000000        0.00115300000000       -0.01787200000000
C           41.82861500000000        0.00244400000000       -0.00126400000000
C           50.95754199999999        0.00244400000000       -0.00126400000000
C           52.41576900000000       -0.01939200000000       -0.01913700000000
C           53.54969699999999       -0.04014600000000       -0.02062800000000
C           54.91107800000000       -0.05273600000000       -0.02281900000000
C           56.18529699999999       -0.04242900000000       -0.02758400000000
C           57.37375999999999       -0.02363100000000       -0.03374000000000
C           58.72611999999999        0.00115300000000       -0.01787200000000
C           59.82638799999999        0.00244400000000       -0.00126400000000
Ni          46.44711400000000       -0.03263200000000       -0.00141900000000
C           43.00125500000000        0.02429200000000        0.02367200000000
C           43.65977599999999        0.18610100000000        1.18642200000000
C           43.01800200000000        0.42038200000000        2.48235300000000
C           43.95806800000000        0.49578600000000        3.40184600000000
C           45.25761600000000        0.31531200000000        2.74902800000000
N           45.07924799999999        0.12235100000000        1.34427400000000
C           46.44262700000000        0.30848100000000        3.39192200000000
C           46.46687799999999        0.48041900000000        4.86858700000000
C           46.62344500000000        1.76969400000000        5.42984800000000
C           46.78438300000000        2.98505900000000        4.55334000000000
C           46.65277900000000        1.91842600000000        6.82485800000000
C           46.50483800000000        0.80921500000000        7.66612400000000
C           46.56813100000000        0.97675000000000        9.15619200000000
C           46.36677400000000       -0.46756100000000        7.10953900000000
C           46.34785600000000       -0.64537000000000        5.71773800000000
C           46.18310999999999       -2.03227400000000        5.15217900000000
C           47.74707000000000        0.13968000000000        2.70519700000000
C           49.02386700000000       -0.00340200000000        3.41426300000000
C           49.97894999999999       -0.08308800000000        2.51156100000000
N           47.91221200000000        0.14908100000000        1.41856700000000
C           49.31887300000000        0.01025700000000        1.21533000000000
C           49.93807399999999        0.02429200000000        0.02367200000000
C           49.19969700000000        0.11596200000000       -1.25663100000000
C           49.76765899999999        0.36964300000000       -2.42875800000000
C           48.73397700000000        0.27253200000000       -3.43909100000000
C           47.60115500000000       -0.03229600000000       -2.81782600000000
N           47.80372000000000       -0.14505900000000       -1.40913800000000
C           46.32251100000000       -0.31983100000000       -3.51180500000000
C           46.35470100000000       -0.56669500000000       -4.97857500000000
C           46.10746600000000        0.49202500000000       -5.88478300000000
C           45.80428700000000        1.88351500000000       -5.39180400000000
C           46.14577500000000        0.24451500000000       -7.26548500000000
C           46.42286300000000       -1.03704300000000       -7.75531900000000
C           46.50725700000000       -1.27739600000000       -9.23406400000000
C           46.69240200000000       -2.07722300000000       -6.85839100000000
C           46.64877600000000       -1.85936800000000       -5.47294100000000
C           46.94376600000000       -3.00240900000000       -4.53606300000000
C           45.14654699999999       -0.37996900000000       -2.86023100000000
C           43.85500500000000       -0.67296200000000       -3.47098200000000
C           42.96366900000000       -0.57269400000000       -2.50718000000000
C           43.67531900000000       -0.21929200000000       -1.27345300000000
N           44.95273800000000       -0.10600700000000       -1.47305200000000
H           41.95966500000000        0.51516600000000        2.68523100000000
H           43.77437400000000        0.66025300000000        4.45580700000000
H           47.73986099999999        2.91600800000000        3.99308100000000
H           46.79543000000000        3.92225600000000        5.14890600000000
H           45.94180000000000        3.04848800000000        3.83354500000000
H           46.78849300000000        2.90177700000000        7.26003200000000
H           47.61327100000000        0.82966000000000        9.49984500000000
H           45.91256100000000        0.23459900000000        9.65971100000000
H           46.22823200000000        1.99129100000000        9.45519600000000
H           46.27609700000000       -1.32560000000000        7.76537100000000
H           45.20730600000000       -2.10796900000000        4.62868000000000
H           47.00171899999999       -2.24953400000000        4.43459100000000
H           46.21313800000000       -2.80681300000000        5.94783200000000
H           49.17643300000000       -0.03618300000000        4.48515200000000
H           51.03464900000000       -0.19042600000000        2.72277000000000
H           50.81259099999999        0.58010400000000       -2.61259200000000
H           48.87421200000000        0.39029200000000       -4.50575100000000
H           44.85408900000000        1.87922800000000       -4.81797400000000
H           45.69904300000000        2.60411500000000       -6.23071200000000
H           46.62639299999999        2.23911400000000       -4.73558500000000
H           45.96365500000000        1.05241200000000       -7.96461700000000
H           46.19746700000000       -2.31562600000000       -9.47985300000000
H           47.55211800000000       -1.12095300000000       -9.57465800000000
H           45.83864800000000       -0.58148800000000       -9.78472200000000
H           46.93593599999999       -3.06080300000000       -7.24319000000000
H           47.02609000000000       -3.96788400000000       -5.07924400000000
H           46.12859899999999       -3.10268600000000       -3.78909200000000
H           47.90287600000000       -2.81441200000000       -4.01002900000000
H           43.64388200000000       -0.91735000000000       -4.50401600000000
H           41.90066800000000       -0.72907700000000       -2.63125500000000
237
 energy: -374.362262948505 gnorm: 0.616649666131 xtb: 6.5.1 (b24c23e)
Ni          27.12701100531536       -0.01681238808016       -0.01481089608835
C           23.75036715387930        0.10268907055465        0.01806331523024
C           24.42514113260103        1.16789258349206        0.50288567794608
C           23.77456933350493        2.34373271862503        1.06295278080361
C           24.72901420765116        3.20215988968551        1.41040478199710
C           26.02144745655192        2.59712061269409        1.07764062845798
N           25.82896508243793        1.31650944467446        0.51021421310818
C           27.22805381222019        3.19980985505679        1.26052884409646
C           27.26422101932394        4.57258392358522        1.84267573732015
C           27.17844586448947        5.70298253432834        1.00106644389798
C           27.04058042393939        5.55115527484728       -0.49544637462306
C           27.22100802271313        6.98427945279052        1.56188320255257
C           27.34208476856827        7.15826982076411        2.94285416126940
C           27.42551310851869        8.54176922694444        3.52811398860697
C           27.44865225290001        6.03765963012142        3.77038254573197
C           27.40287561646639        4.74482092563282        3.23704818413285
C           27.51397751781654        3.55518842972530        4.16101975029692
C           28.50301962022873        2.57202767422497        0.91310944103758
C           29.79233015744752        3.25787890080552        0.98415042273983
C           30.73737396868463        2.38791684484834        0.63095924864229
N           28.65136171046903        1.31950371037360        0.52872606303654
C           30.05659766794617        1.13902765723716        0.33578551991274
C           30.65104274978908       -0.02287123796438       -0.01290819361255
C           29.88610845655186       -1.23935601257912       -0.29901525598700
C           30.44425543333328       -2.46957042871355       -0.42582511685317
C           29.41044493054089       -3.38368729049581       -0.78727078219272
C           28.25192135043168       -2.68074211747584       -0.86629335709047
N           28.48466639207452       -1.31405843296847       -0.55632482180569
C           26.97136789518301       -3.26751631802893       -1.28274283008802
C           26.95370693421238       -4.63596722135275       -1.88368390273354
C           27.18937834488842       -4.80333957021202       -3.26623234113236
C           27.45688407140235       -3.61512855643756       -4.15927599558593
C           27.18528055018124       -6.09013559827802       -3.81604458745904
C           26.94635985644462       -7.21064500926983       -3.01635924704086
C           26.92230538599669       -8.58020766026134       -3.63881725578345
C           26.69896606439250       -7.04136574642552       -1.65185835561873
C           26.70902969878163       -5.76683280098143       -1.07324342292215
C           26.44800530825499       -5.62236555579051        0.40759126957889
C           25.79924156444283       -2.60638179265792       -1.14111996658413
C           24.48587246954263       -3.10466243840067       -1.52392933013861
C           23.61284079914626       -2.16924506862631       -1.14951583998176
C           24.36772325310269       -1.08114768158317       -0.53952244823440
N           25.65933927835145       -1.33192423167324       -0.53285194809094
H           22.66697528925894        0.13743566390996        0.04459972386917
H           22.71231542783270        2.51070813050464        1.18131046326189
H           24.54901590076603        4.17219341301932        1.85329890090697
H           26.09322100795497        5.03353278717781       -0.73271605742907
H           27.88631112131067        4.96118068742456       -0.89328166296019
H           27.03589825502473        6.53175162335782       -1.00606775310060
H           27.16179330865958        7.85819717134527        0.91934238701020
H           27.00542953744132        8.55896376829485        4.55016166989715
H           28.48471961693214        8.85765382563696        3.56827080805408
H           26.85793651511321        9.26212321152955        2.91148619430744
H           27.56849876133265        6.17733543018248        4.84101486521693
H           28.42479351838013        2.97792540006893        3.91774297995260
H           27.57277991333932        3.86568677405890        5.22034830951852
H           26.62908137570741        2.90351779247678        4.04321788923481
H           29.97341718571805        4.28228260627224        1.26827336411542
H           31.79671233301027        2.60033424158252        0.58886732144034
H           31.48903355492302       -2.70228430533232       -0.29857230751983
H           29.52367705186042       -4.43824098520332       -0.98724902803849
H           26.62608712137812       -2.89009304028027       -4.08128258420682
H           27.55241342931239       -3.91489815757693       -5.21914408847656
H           28.39822929513378       -3.12361975501183       -3.85221273768466
H           27.36766412125848       -6.22682337991578       -4.87848821367885
H           27.81823002183237       -8.72229291479979       -4.27103471006942
H           26.91214512313572       -9.37299799742835       -2.86848921922399
H           26.01740009613211       -8.68176397414882       -4.26696447688421
H           26.49965882106185       -7.91231781200357       -1.03396983984485
H           25.49754251219652       -5.08134596325285        0.56746413117164
H           27.27123254475686       -5.05857236428446        0.88257038627240
H           26.37521054047838       -6.60601041972951        0.90713358288782
H           24.23607075021086       -4.04162354182968       -2.00420591415215
H           22.54380602702031       -2.22477862172901       -1.28022851980825
Ni          65.78312391520281       -0.00668710376782       -0.01072904370304
C           69.15983341502054       -0.11566213451301       -0.06974497692903
C           68.48503168020720       -1.21996412329860       -0.45737918876061
C           69.13562159475228       -2.45617924902171       -0.86731361949942
C           68.18118475809700       -3.31616785395544       -1.21090751584172
C           66.88872818154454       -2.64923380559609       -1.03216663345072
N           67.08124052205243       -1.33226454032698       -0.55498678767205
C           65.68225725325328       -3.21074069273932       -1.31745503731765
C           65.64598623977082       -4.60430622096642       -1.84776798164819
C           65.73174526145250       -4.83731929580351       -3.23765968478221
C           65.86961349149423       -3.69168441712352       -4.21241081638863
C           65.68918495346510       -6.15014795528506       -3.72007405460647
C           65.56811315123579       -7.23176740947357       -2.84403810775619
C           65.48467784421869       -8.63528360540807       -3.37956440965839
C           65.46154087116740       -6.99609045421201       -1.47108056314487
C           65.50731940202805       -5.69395237491939       -0.96087046218322
C           65.39621680801864       -5.47522466550147        0.52947396839438
C           64.40717976723242       -2.51719449668171       -1.13350017651898
C           63.11784810901001       -3.06124520046934       -1.55704599461071
C           62.17286822713830       -2.18882788559759       -1.20955434387933
N           64.25935589862047       -1.34770309776998       -0.54380441184812
C           62.85431022541209       -1.08323380392583       -0.55788967416581
C           62.26332550010023       -0.00344445317325       -0.00507740413119
C           63.02498180875616        1.07210071602644        0.63058045377060
C           62.46606975133807        2.04764448113421        1.39072684007448
C           63.49973042271253        2.95761318084287        1.76285943019863
C           64.65837023375585        2.50514426181785        1.21918841446147
N           64.42592927046262        1.30458508416103        0.49671578182270
C           65.93882481684550        3.21680373359632        1.32490344081053
C           65.95649459051758        4.62028891382874        1.83868182239022
C           65.72082029955894        5.69823601909815        0.95694387238163
C           65.45331106693222        5.45912616587975       -0.51009858548162
C           65.72491228999631        7.00742523006994        1.45108180405543
C           65.96383248283489        7.26230698733155        2.80387825586630
C           65.98789008148282        8.68152099643058        3.30291016613024
C           66.21122807445303        6.19549014801288        3.67129002059470
C           66.20116072946077        4.87522078425251        3.20640134485094
C           66.46218827104521        3.74575063465684        4.17493478574484
C           67.11097024300379        2.64168098256363        0.96936330260981
C           68.42431264952218        3.26626274982904        1.03811058713955
C           69.29735992430362        2.33204600791670        0.66066004601844
C           68.54248924818168        1.12458388088076        0.34750190008332
N           67.25084782885588        1.30094664493948        0.52595141183663
H           70.24322520817447       -0.15911891468951       -0.07465949905720
H           70.19788348383020       -2.65861156145729       -0.89750944007122
H           68.36118468157463       -4.32275408264764       -1.56290722466914
H           66.81697160112948       -3.15390662753427       -4.02525728744121
H           65.02388380985528       -2.99053484881110       -4.09102631236532
H           65.87429606305791       -4.04574816701006       -5.25976756524724
H           65.74840122190513       -6.33590708515379       -4.78876046395204
H           65.90476614023991       -9.35528375639108       -2.65397496906013
H           64.42547074317649       -8.89102614546030       -3.56928467489066
H           66.05225925546939       -8.72817138991393       -4.32323549725174
H           65.34169482560780       -7.83811004867840       -0.79523168456486
H           64.48540185926129       -4.89025164057849        0.75358560975926
H           65.33741400979200       -6.43268048186213        1.07890837202633
H           66.28111156975797       -4.92343034940361        0.89564013620736
H           62.93677311884510       -3.99716774170413       -2.06127293060465
H           61.11359229498368       -2.31323742054542       -1.38713690475955
H           61.42124176132526        2.12756854854375        1.64373752558008
H           63.38650635861988        3.85701013349024        2.34865260792559
H           66.28410620238922        4.88195405627504       -0.95578284436772
H           65.35778030969109        6.40921349900997       -1.06735048003105
H           64.51196632576846        4.89187163360772       -0.62881349839938
H           65.54252926079060        7.84161937885707        0.77907170166850
H           65.09196151176981        9.22174935841657        2.94508477446666
H           65.99804864859449        8.72026452146649        4.40764151069398
H           66.89279675274464        9.18968704600695        2.91996282432764
H           66.41053653384857        6.39617616995938        4.72013405038858
H           67.41265038972855        3.24467256850429        3.91573451957592
H           65.63896138005487        3.01008352339028        4.12734141694165