262
 energy: -455.135558426316 gnorm: 8.944499538992 xtb: 6.5.1 (b24c23e)
Cu          40.10622700000000       -0.03631400000000        0.03441300000000
C           36.76463300000000        0.10697400000000        0.02491100000000
C           37.42690199999999        1.14604800000000       -0.49187900000000
C           36.77635400000000        2.29390400000000       -1.11206400000000
C           37.71656800000000        3.14238900000000       -1.48450800000000
C           39.02149099999999        2.58152500000000       -1.10764100000000
N           38.84433800000000        1.30802000000000       -0.48587900000000
C           40.21361300000000        3.18363900000000       -1.30027900000000
C           40.26333700000000        4.52917200000000       -1.91700000000000
C           40.82027700000000        4.69715100000000       -3.19368200000000
C           40.88353500000000        5.96815600000000       -3.77233900000000
C           40.39452800000000        7.08469400000000       -3.07940900000000
N           40.45943699999999        8.38451100000000       -3.67191800000000
C           39.84347800000000        6.91878900000000       -1.80085500000000
C           39.78056300000000        5.64843800000000       -1.22084000000000
C           41.50480100000000        2.55851100000000       -0.91021100000000
C           42.78825700000000        3.27115200000000       -0.90404100000000
C           43.72277100000000        2.41578200000000       -0.54215400000000
N           41.64746399999999        1.31662100000000       -0.56129300000000
C           43.04265600000000        1.14739000000000       -0.31062500000000
C           43.63685400000000       -0.01074500000000        0.01978200000000
C           42.87327100000000       -1.25675600000000        0.25258600000000
C           43.40379200000000       -2.47294100000000        0.23273500000000
C           42.36089599999999       -3.40454100000000        0.61647900000000
C           41.26326300000000       -2.69446200000000        0.85024800000000
N           41.49710900000000       -1.30262000000000        0.62982200000000
C           39.98464900000000       -3.26548600000000        1.34575800000000
C           40.00746899999999       -4.60347200000000        1.98566800000000
C           40.74642100000000       -4.80743800000000        3.16119800000000
C           40.78739700000000       -6.07109200000000        3.75765900000000
C           40.09521400000000       -7.14616200000000        3.18271800000000
N           40.13761200000000       -8.43851800000000        3.79332600000000
C           39.36375499999999       -6.94660200000000        2.00351200000000
C           39.32270200000000       -5.68365000000000        1.40570000000000
C           38.82259199999999       -2.59437600000000        1.22966900000000
C           37.51526000000000       -3.03701000000000        1.71161400000000
C           36.65359800000000       -2.11042600000000        1.33890700000000
C           37.40205600000000       -1.07159600000000        0.63326200000000
N           38.66691600000000       -1.34305600000000        0.56347700000000
H           35.68127000000000        0.12493700000000        0.00145200000000
H           35.71304200000000        2.43744600000000       -1.25531300000000
H           37.52876800000000        4.08425800000000       -1.98310200000000
H           41.20333800000000        3.84353200000000       -3.73947500000000
H           41.31388300000000        6.08307900000000       -4.75919900000000
H           40.86876700000000        8.51845700000000       -4.62343000000000
H           40.09844600000000        9.22241400000000       -3.16351000000000
H           39.46528400000000        7.77322400000000       -1.25385700000000
H           39.35788600000000        5.53547500000000       -0.22997200000000
H           42.95917600000000        4.31155100000000       -1.14749000000000
H           44.77654499999999        2.64103000000000       -0.44601400000000
H           44.42947399999999       -2.72818900000000        0.00232700000000
H           42.46964299999999       -4.47651700000000        0.71864600000000
H           41.28740300000000       -3.98667600000000        3.61618800000000
H           41.35877700000000       -6.21264300000000        4.66640000000000
H           40.68060200000000       -8.59742700000000        4.67126300000000
H           39.62611200000000       -9.24585100000000        3.37207700000000
H           38.82869000000000       -7.76959300000000        1.54667100000000
H           38.76126500000000       -5.54708100000000        0.48953500000000
H           37.27342399999999       -3.93506100000000        2.26457800000000
H           35.58904500000000       -2.12667000000000        1.53229800000000
Cu          95.28235999999998        0.01557700000000        0.00655400000000
C           98.62395399999998       -0.07151300000000        0.12073400000000
C           97.96168499999999       -1.07637000000000        0.70125800000000
C           98.61223400000000       -2.22751200000000        1.31532200000000
C           97.67201900000001       -3.00675300000000        1.81674600000000
C           96.36709599999999       -2.38274400000000        1.55749600000000
N           96.54424899999998       -1.16086300000000        0.83957600000000
C           95.17497400000001       -2.87599000000000        1.95291900000000
C           95.12524999999998       -4.13346600000000        2.73366000000000
C           94.56830999999998       -5.29038800000000        2.16827000000000
C           94.50505200000001       -6.47495900000000        2.90792400000000
C           94.99405899999999       -6.51432200000000        4.22141600000000
N           94.92915000000001       -7.72635800000000        4.97743100000000
C           95.54510900000000       -5.35698600000000        4.78956800000000
C           95.60802399999999       -4.17164400000000        4.05121000000000
C           93.88378599999999       -2.20547100000000        1.64740000000000
C           92.60033000000000       -2.59408100000000        2.24479200000000
C           91.66581700000000       -1.81983600000000        1.73179700000000
N           93.74112300000000       -1.22847300000000        0.80507700000000
C           92.34593099999998       -0.92603700000000        0.80252400000000
C           91.75173300000000       -0.01074500000000        0.01978200000000
C           92.51531600000000        0.87175000000000       -0.89013300000000
C           91.98479499999999        1.52717800000000       -1.91478600000000
C           93.02769100000000        2.36176100000000       -2.47924200000000
C           94.12532400000001        2.16426900000000       -1.75823000000000
N           93.89147799999999        1.21151600000000       -0.71992700000000
C           95.40393800000000        2.89278000000000       -1.96039400000000
C           95.38111800000000        4.16541400000000       -2.72203300000000
C           94.64216600000000        5.25790900000000       -2.24252600000000
C           94.60119000000000        6.45325900000000       -2.96621700000000
C           95.29337299999999        6.56805300000000       -4.17995200000000
N           95.25097500000000        7.79105200000000       -4.91974800000000
C           96.02483200000000        5.47492700000000       -4.66516200000000
C           96.06588499999998        4.27884000000000       -3.94280400000000
C           96.56599499999999        2.42521400000000       -1.46516900000000
C           97.87332700000000        3.07148000000000       -1.56781600000000
C           98.73498900000000        2.24886800000000       -1.00144200000000
C           97.98653099999999        1.08673600000000       -0.52546900000000
N           96.72167100000000        1.17855900000000       -0.79028800000000
H           99.70731700000000       -0.10099100000000        0.12274500000000
H           99.67554500000000       -2.42622000000000        1.35581500000000
H           97.85981899999999       -3.94273500000000        2.32630300000000
H           94.18524899999998       -5.27365800000000        1.15521700000000
H           94.07470399999998       -7.36100100000000        2.45844600000000
H           94.51982099999999       -8.59344800000000        4.56333900000000
H           95.29014100000001       -7.76556600000000        5.95672800000000
H           95.92330300000000       -5.37316300000000        5.80396700000000
H           96.03070099999999       -3.28334500000000        4.50453700000000
H           92.42941199999999       -3.37184200000000        2.97744800000000
H           90.61204200000000       -1.86415800000000        1.97266000000000
H           90.95911300000000        1.47616500000000       -2.25484000000000
H           92.91894400000000        3.03921100000000       -3.31627900000000
H           94.10118399999999        5.18364900000000       -1.30703100000000
H           94.02981000000000        7.28890100000000       -2.58209500000000
H           94.70798499999998        8.61061000000000       -4.56711600000000
H           95.76247499999999        7.88601500000000       -5.82540800000000
H           96.55989700000001        5.54887700000000       -5.60353800000000
H           96.62732200000001        3.43976200000000       -4.33517900000000
H           98.11516299999998        4.02857000000000       -2.01081000000000
H           99.79954200000000        2.41903400000000       -0.90812800000000
C           45.71401900000000        0.00394500000000        0.03005800000000
C           47.17224600000000       -0.01789100000000        0.01218400000000
C           48.30617400000000       -0.03864500000000        0.01069300000000
C           49.66755500000000       -0.05123500000000        0.00850200000000
C           50.94177400000000       -0.04092800000000        0.00373700000000
C           52.13023700000000       -0.02213000000000       -0.00241900000000
C           53.48259700000000        0.00265400000000        0.01344900000000
C           54.58286500000000        0.00394500000000        0.03005800000000
C           63.19785200000000        0.00394500000000        0.03005800000000
C           64.65607900000001       -0.01789100000000        0.01218400000000
C           65.79000700000000       -0.03864500000000        0.01069300000000
C           67.15138899999999       -0.05123500000000        0.00850200000000
C           68.42560700000000       -0.04092800000000        0.00373700000000
C           69.61407000000000       -0.02213000000000       -0.00241900000000
C           70.96643100000000        0.00265400000000        0.01344900000000
C           72.06669800000000        0.00394500000000        0.03005800000000
C           80.68168600000000        0.00394500000000        0.03005800000000
C           82.13991200000000       -0.01789100000000        0.01218400000000
C           83.27383999999999       -0.03864500000000        0.01069300000000
C           84.63522200000000       -0.05123500000000        0.00850200000000
C           85.90944099999999       -0.04092800000000        0.00373700000000
C           87.09790299999999       -0.02213000000000       -0.00241900000000
C           88.45026400000000        0.00265400000000        0.01344900000000
C           89.55053100000001        0.00394500000000        0.03005800000000
Cu          58.98519000000000       -0.04617900000000        0.05561400000000
C           55.50100400000000        0.01012500000000       -0.02623000000000
C           56.15786400000000        1.12002000000000       -0.41017700000000
C           55.51313900000000        2.35210600000000       -0.87029600000000
C           56.45116299999999        3.24770400000000       -1.10480500000000
C           57.75401099999999        2.63991400000000       -0.81503700000000
N           57.57759299999999        1.28989400000000       -0.37752800000000
C           58.93804699999999        3.28227400000000       -0.90204800000000
C           58.95942500000000        4.70236900000000       -1.31616400000000
C           58.82575299999999        5.04566300000000       -2.66998600000000
C           58.84278000000000        6.38840400000000       -3.05910800000000
C           58.99636800000000        7.39979200000000       -2.09943400000000
N           59.01429500000000        8.77311900000000       -2.49822300000000
C           59.13202200000000        7.05570200000000       -0.74636900000000
C           59.11291700000000        5.71344700000000       -0.35599600000000
C           60.24153600000000        2.63846500000000       -0.59789000000000
C           61.52045099999999        3.35956900000000       -0.56343700000000
C           62.47193799999999        2.48282200000000       -0.31755700000000
N           60.40497900000000        1.36850000000000       -0.38942900000000
C           61.80922600000000        1.19033800000000       -0.20149700000000
C           62.42431700000000        0.01012500000000       -0.02623000000000
C           61.67895899999999       -1.26430300000000        0.06890100000000
C           62.22745999999999       -2.46393500000000       -0.07644400000000
C           61.19493700000000       -3.44444200000000        0.19373800000000
C           60.08503699999999       -2.77780500000000        0.48892500000000
N           60.29956100000000       -1.36811800000000        0.42095900000000
C           58.81982099999999       -3.41407100000000        0.93106500000000
C           58.87300400000000       -4.80208600000000        1.45082800000000
C           58.22804200000000       -5.84500800000000        0.76462400000000
C           58.29419100000000       -7.15412900000000        1.25091200000000
C           59.00983500000000       -7.43607300000000        2.42416600000000
N           59.07399999999999       -8.77471700000000        2.92378400000000
C           59.66307399999999       -6.39703700000000        3.10441800000000
C           59.59878299999999       -5.08791500000000        2.61780700000000
C           57.64387300000000       -2.75849000000000        0.88837100000000
C           56.36127900000000       -3.27233700000000        1.35799400000000
C           55.47301100000000       -2.33651400000000        1.09453400000000
C           56.17644700000000       -1.21613900000000        0.45980600000000
N           57.44619700000000       -1.45492200000000        0.33926200000000
H           54.45377700000000        2.53391700000000       -0.99417600000000
H           56.26176599999999        4.25835300000000       -1.44419400000000
H           58.70661700000000        4.27336300000000       -3.42050900000000
H           58.73682899999999        6.64056400000000       -4.10692200000000
H           58.91518800000000        9.03914400000000       -3.50331600000000
H           59.13179200000000        9.53332900000000       -1.79126000000000
H           59.25249500000000        7.82717500000000        0.00416200000000
H           59.21841000000000        5.46045100000000        0.69219900000000
H           61.67942599999999        4.41868900000000       -0.71684300000000
H           63.52700100000000        2.70763100000000       -0.23704000000000
H           63.25877200000000       -2.68004700000000       -0.32018000000000
H           61.32065599999999       -4.51960600000000        0.19212400000000
H           57.67687200000000       -5.64277000000000       -0.14619200000000
H           57.78958500000000       -7.94841000000000        0.71327600000000
H           59.60391100000000       -8.99483800000000        3.79696300000000
H           58.58864299999999       -9.55517900000000        2.42691800000000
H           60.22160000000000       -6.60159400000000        4.01048700000000
H           60.10940599999999       -4.29552200000000        3.15296700000000
H           56.15365900000000       -4.21991400000000        1.83789000000000
H           54.41857100000000       -2.40356100000000        1.32583500000000
Cu          76.46902300000001       -0.04617900000000        0.05561400000000
C           72.98483700000000        0.01012500000000       -0.02623000000000
C           73.64169699999999        1.12002000000000       -0.41017700000000
C           72.99697200000000        2.35210600000000       -0.87029600000000
C           73.93499600000000        3.24770400000000       -1.10480500000000
C           75.23784499999999        2.63991400000000       -0.81503700000000
N           75.06142600000000        1.28989400000000       -0.37752800000000
C           76.42188000000000        3.28227400000000       -0.90204800000000
C           76.44325900000000        4.70236900000000       -1.31616400000000
C           76.30958600000000        5.04566300000000       -2.66998600000000
C           76.32661299999999        6.38840400000000       -3.05910800000000
C           76.48020199999999        7.39979200000000       -2.09943400000000
N           76.49812799999999        8.77311900000000       -2.49822300000000
C           76.61585500000000        7.05570200000000       -0.74636900000000
C           76.59675000000000        5.71344700000000       -0.35599600000000
C           77.72537000000000        2.63846500000000       -0.59789000000000
C           79.00428400000000        3.35956900000000       -0.56343700000000
C           79.95577100000000        2.48282200000000       -0.31755700000000
N           77.88881200000000        1.36850000000000       -0.38942900000000
C           79.29305900000000        1.19033800000000       -0.20149700000000
C           79.90815099999999        0.01012500000000       -0.02623000000000
C           79.16279200000000       -1.26430300000000        0.06890100000000
C           79.71129300000000       -2.46393500000000       -0.07644400000000
C           78.67877099999998       -3.44444200000000        0.19373800000000
C           77.56887000000000       -2.77780500000000        0.48892500000000
N           77.78339400000000       -1.36811800000000        0.42095900000000
C           76.30365399999999       -3.41407100000000        0.93106500000000
C           76.35683699999998       -4.80208600000000        1.45082800000000
C           75.71187600000000       -5.84500800000000        0.76462400000000
C           75.77802400000000       -7.15412900000000        1.25091200000000
C           76.49366800000000       -7.43607300000000        2.42416600000000
N           76.55783300000000       -8.77471700000000        2.92378400000000
C           77.14690700000000       -6.39703700000000        3.10441800000000
C           77.08261600000000       -5.08791500000000        2.61780700000000
C           75.12770700000000       -2.75849000000000        0.88837100000000
C           73.84511200000000       -3.27233700000000        1.35799400000000
C           72.95684499999999       -2.33651400000000        1.09453400000000
C           73.66028100000000       -1.21613900000000        0.45980600000000
N           74.93003000000000       -1.45492200000000        0.33926200000000
H           71.93761000000001        2.53391700000000       -0.99417600000000
H           73.74559900000000        4.25835300000000       -1.44419400000000
H           76.19045000000000        4.27336300000000       -3.42050900000000
H           76.22066300000000        6.64056400000000       -4.10692200000000
H           76.39902099999999        9.03914400000000       -3.50331600000000
H           76.61562499999999        9.53332900000000       -1.79126000000000
H           76.73632799999999        7.82717500000000        0.00416200000000
H           76.70224399999999        5.46045100000000        0.69219900000000
H           79.16325899999998        4.41868900000000       -0.71684300000000
H           81.01083400000000        2.70763100000000       -0.23704000000000
H           80.74260500000000       -2.68004700000000       -0.32018000000000
H           78.80448900000000       -4.51960600000000        0.19212400000000
H           75.16070600000000       -5.64277000000000       -0.14619200000000
H           75.27341799999999       -7.94841000000000        0.71327600000000
H           77.08774400000000       -8.99483800000000        3.79696300000000
H           76.07247700000001       -9.55517900000000        2.42691800000000
H           77.70543300000000       -6.60159400000000        4.01048700000000
H           77.59323900000000       -4.29552200000000        3.15296700000000
H           73.63749199999999       -4.21991400000000        1.83789000000000
H           71.90240500000000       -2.40356100000000        1.32583500000000
262
 energy: -458.273578891120 gnorm: 1.782052997938 xtb: 6.5.1 (b24c23e)
Cu          40.10731633648503       -0.03623702672347        0.03443463249544
C           36.76482150454061        0.10373325571970        0.02659758684177
C           37.42907302419626        1.14717860888897       -0.49238662935377
C           36.77570475720668        2.29272027592644       -1.11151303132056
C           37.71825262731079        3.14309937945870       -1.48475259942671
C           39.02032718664370        2.57970609945796       -1.10689683464357
N           38.84097407754660        1.31089216778907       -0.48732837542341
C           40.21669345697533        3.18313385750469       -1.29976829031324
C           40.26363584472461        4.52951686528295       -1.91699932765307
C           40.82014153531741        4.69810670990960       -3.19344238430247
C           40.88336747458482        5.96791469991801       -3.77192152768212
C           40.39462284883461        7.08660902603955       -3.08028314852836
N           40.45941147361473        8.38405985527609       -3.67171288252844
C           39.84358395421324        6.91830390916077       -1.80095827981809
C           39.78075620547088        5.64883435290274       -1.22173096806334
C           41.50302432328266        2.56178867645556       -0.91157752196768
C           42.78599884043179        3.27274471905466       -0.90487530608519
C           43.72340723038525        2.41416398099682       -0.54163357730660
N           41.64926970434163        1.31512434160793       -0.56043171935071
C           43.04356125418393        1.14790494676555       -0.31065203983785
C           43.64014891342804       -0.01321490638289        0.02002155767356
C           42.87266887241613       -1.25205762943543        0.25296530711508
C           43.40389426794609       -2.47801974089083        0.23340773852740
C           42.36565498334812       -3.40525243863573        0.61547314294105
C           41.25951211149469       -2.69163764059358        0.85135068904937
N           41.49846948200186       -1.30420190789725        0.62951969569794
C           39.98714154533408       -3.26469544668862        1.34509589365581
C           40.00785481134829       -4.60355498644021        1.98543625861628
C           40.74621201739446       -4.80836374879224        3.16101491892568
C           40.78717817770430       -6.07077692127309        3.75726045240873
C           40.09527770135026       -7.14812308136255        3.18364550005557
N           40.13759062151553       -8.43802636925073        3.79309490404971
C           39.36391360701792       -6.94608860092379        2.00355410081599
C           39.32295535910221       -5.68401749391751        1.40655120882888
C           38.82165911055395       -2.59380323088213        1.22956389716565
C           37.51709264590016       -3.03780715551853        1.71170745281494
C           36.65210842960764       -2.10846702349348        1.33804596152093
C           37.39822521109405       -1.06951884831759        0.63242172756445
N           38.66807079176407       -1.34509556801263        0.56444621952052
H           35.68129332196130        0.12476697591952        0.00161769204896
H           35.71307172227603        2.43700751325319       -1.25509184721242
H           37.52934650227431        4.08428557430810       -1.98306734556090
H           41.20329730695006        3.84353987352197       -3.73940491598779
H           41.31387840529253        6.08313253107384       -4.75923131206698
H           40.86784520507982        8.51801512932595       -4.62123328202067
H           40.09924962542813        9.22039582010769       -3.16458378440753
H           39.46529561450445        7.77328448663229       -1.25387402753497
H           39.35792778871835        5.53542244372461       -0.23001979335870
H           42.95868538040753        4.31160819783313       -1.14758863052935
H           44.77649917160501        2.64040174182277       -0.44584858996730
H           44.42939073701308       -2.72828467609157        0.00232792487484
H           42.46978550457936       -4.47642599998893        0.71853423435398
H           41.28735390417876       -3.98668313191196        3.61611897644798
H           41.35876803674671       -6.21268705118308        4.66642975956282
H           40.67938558745712       -8.59692932141770        4.66922946687013
H           39.62725480879502       -9.24390381367121        3.37295142291598
H           38.82870350856837       -7.76964639601936        1.54668170118837
H           38.76131942810441       -5.54703195188104        0.48956963895387
H           37.27397931594732       -3.93505323454145        2.26449530781335
H           35.58900696603163       -2.12628531298726        1.53209334152888
Cu          95.28126549116234        0.01555888202992        0.00663445129583
C           98.62376228816107       -0.06833155395576        0.11897447576724
C           97.95951560622593       -1.07740226429070        0.70191778365468
C           98.61287962314057       -2.22641264645548        1.31464535169485
C           97.67035345887234       -3.00734640144254        1.81720749364203
C           96.36824449145330       -2.38110270045281        1.55639105616492
N           96.54761666954523       -1.16369183910550        0.84115834709366
C           95.17192018340434       -2.87529021800870        1.95277886585374
C           95.12494939027809       -4.13365796949234        2.73394780743225
C           94.56844586575353       -5.29071673947964        2.16919922134041
C           94.50521910243899       -6.47447828854268        2.90795393929616
C           94.99396446732774       -6.51610840713947        4.22252892560265
N           94.92917487650453       -7.72593799178375        4.97716866675470
C           95.54500321564095       -5.35680425503684        4.78910668395401
C           95.60782975765429       -4.17260555026936        4.05104851083155
C           93.88556026964865       -2.20834866482848        1.64932069140342
C           92.60253383382401       -2.59563141761083        2.24566188026043
C           91.66516749738733       -1.81854253555875        1.73076388103863
N           93.73943016031454       -1.22705278460317        0.80434584662569
C           92.34488238772312       -0.92613277625063        0.80278454888005
C           91.74952388650571       -0.00914587868685        0.01790810213397
C           92.51591439651888        0.86935682602544       -0.88591177718544
C           91.98468985372934        1.53057127918079       -1.91867227603670
C           93.02289477153187        2.36130202637674       -2.48039683296208
C           94.12909002213406        2.16360969439109       -1.75523973483007
N           93.89016073127448        1.21219164323248       -0.72143575748761
C           95.40144057010109        2.89179117691360       -1.96010002092917
C           95.38073153813382        4.16526689021562       -2.72223049113190
C           94.64237482610359        5.25826814761090       -2.24339886086987
C           94.60140864568976        6.45275270602937       -2.96617424570116
C           95.29330920570470        6.56991146228872       -4.18107522467503
N           95.25099663511789        7.79058624504492       -4.91946481020176
C           96.02467363054400        5.47467782806584       -4.66471073052267
C           96.06563176265186        4.27975267258232       -3.94264063314910
C           96.56693303600341        2.42480416038374       -1.46474851586498
C           97.87149570409846        3.07199855297197       -1.56843235979288
C           98.73647985449382        2.24706920536582       -1.00028435877443
C           97.99035101003290        1.08489628481659       -0.52421082330080
N           96.72053465904817        1.18051471479677       -0.79144748327099
H           99.70729384401969       -0.10075989870281        0.12269378869460
H           99.67551549512528       -2.42579386082861        1.35557288922593
H           97.85924118656868       -3.94272193759974        2.32634501823004
H           94.18528983002884       -5.27360419087111        1.15526209080919
H           94.07470854162524       -7.36105773751074        2.45847276860809
H           94.52074309789820       -8.59137297939261        4.56418443117017
H           95.28933762492760       -7.76534593871274        5.95445251450100
H           95.92329151751517       -5.37321072055462        5.80400789127981
H           96.03065925349614       -3.28335584180592        4.50446664356853
H           92.42990133314306       -3.37195846728636        2.97744048696897
H           90.61210279014367       -1.86369461891353        1.97224699600838
H           90.95920751068068        1.47622775651553       -2.25493159109187
H           92.91880056757036        3.03906841684293       -3.31626550449117
H           94.10123312504042        5.18359545933936       -1.30707490058832
H           94.02981896610480        7.28895007919169       -2.58211524830964
H           94.70920127827461        8.60864009867153       -4.56782487608099
H           95.76133208771110        7.88566792307788       -5.82330198827912
H           96.55988343569112        5.54891533406208       -5.60357642695973
H           96.62726753342309        3.43976378424764       -4.33511892610787
H           98.11460782749448        4.02849686792445       -2.01084926859398
H           99.79958034942882        2.41865097086287       -0.90792110259475