386
 energy: -606.454308072528 gnorm: 2.344139034057 xtb: 6.5.1 (b24c23e)
C           64.37355400000000        0.07741900000000       -0.01348600000000
C           65.09795500000000       -0.01119300000000        1.36361700000000
C           64.47806100000000       -0.04405600000000        2.59260800000000
C           65.49874300000000       -0.16175700000000        3.56999900000000
C           66.71011400000000       -0.19542500000000        2.90399200000000
N           66.45331400000001       -0.08134900000000        1.56110700000000
C           68.14209900000000       -0.37331500000000        3.56147600000000
C           68.19531400000000       -0.64489100000000        5.01741300000000
C           68.39375800000001        0.39333200000000        5.92553400000000
C           68.42858699999999        0.13561000000000        7.30398100000000
C           68.25227000000000       -1.15879400000000        7.83167300000000
N           68.29159700000000       -1.40661900000000        9.21680000000000
C           67.99475200000001       -0.28871800000000       10.10900800000000
C           67.87838300000000       -2.72227900000000        9.69495200000000
C           68.07923900000000       -2.18938000000000        6.88680000000000
C           68.04337400000000       -1.94058000000000        5.50620600000000
C           69.26983700000000       -0.30407800000000        2.80298200000000
C           70.58136499999999       -0.53088700000000        3.37410200000000
C           71.48367900000000       -0.42853700000000        2.40604900000000
N           69.46179400000000       -0.05194000000000        1.46894000000000
C           70.79872400000001       -0.11202500000000        1.16805200000000
C           71.47150199999999        0.06756400000000       -0.00015500000000
C           70.69909600000000        0.45908100000000       -1.33271100000000
C           71.26519700000000        1.01597300000000       -2.46443800000000
C           70.23950899999998        1.16418100000000       -3.42904600000000
C           69.06974900000000        0.70851800000000       -2.85659300000000
N           69.35164099999999        0.31908000000000       -1.56767600000000
C           67.64591400000000        0.66386800000000       -3.55818200000000
C           67.59721700000000        0.81241800000000       -5.02957600000000
C           67.42155900000000        2.06716000000000       -5.61061000000000
C           67.41459500000001        2.20883400000000       -7.00537400000000
C           67.59399200000000        1.11241200000000       -7.87184900000000
N           67.59424400000000        1.27829800000000       -9.27145100000000
C           67.85516099999998        0.10806100000000      -10.10429000000000
C           68.14859300000001        2.53675800000000       -9.77017000000000
C           67.73083800000001       -0.14628400000000       -7.25563500000000
C           67.74317200000000       -0.29629400000000       -5.86065400000000
C           66.52367099999999        0.49689100000000       -2.81125700000000
C           65.19511900000001        0.45385500000000       -3.39701300000000
C           64.31143100000000        0.29734200000000       -2.41611100000000
C           65.03980300000001        0.22997700000000       -1.17291600000000
N           66.36442099999999        0.34406300000000       -1.46157600000000
H           63.29209000000000        0.00607300000000       -0.02215000000000
H           63.41353100000000        0.00112000000000        2.76546800000000
H           65.36511000000000       -0.22653300000000        4.64008200000000
H           67.15807300000000       -0.05044500000000        0.82852300000000
H           68.52945699999999        1.40514700000000        5.55016200000000
H           68.60629600000000        0.98948400000000        7.94827800000000
H           67.01255000000000        0.14614600000000        9.89055200000000
H           67.98469900000001       -0.61291800000000       11.15624600000000
H           68.76532899999999        0.48687200000000       10.04601300000000
H           66.83112100000000       -2.92467600000000        9.44422300000000
H           68.51711600000000       -3.51398300000000        9.28861500000000
H           67.97619800000000       -2.79077400000000       10.78443000000000
H           67.96347199999998       -3.22394000000000        7.18957600000000
H           67.90259799999998       -2.75825900000000        4.80286500000000
H           70.79901599999999       -0.75828500000000        4.40269500000000
H           72.54166499999999       -0.55540800000000        2.54504700000000
H           72.30446400000000        1.27763600000000       -2.59248000000000
H           70.34345000000000        1.55670300000000       -4.42972000000000
H           68.65859600000000        0.01647900000000       -0.88765100000000
H           67.28801100000000        2.93485400000000       -4.96812900000000
H           67.25054299999999        3.20926400000000       -7.39076500000000
H           67.75147600000000        0.35981300000000      -11.16614300000000
H           68.87122900000000       -0.27181100000000       -9.94978000000000
H           67.12889900000000       -0.68940600000000       -9.91189500000000
H           67.50366900000000        3.38558000000000       -9.52177900000000
H           68.21995699999999        2.52674000000000      -10.86354600000000
H           69.15659900000000        2.71261200000000       -9.37761700000000
H           67.84886099999999       -1.05434400000000       -7.83589800000000
H           67.86806799999999       -1.28052900000000       -5.41357800000000
H           64.96030200000000        0.53609300000000       -4.44340100000000
H           63.24391199999999        0.23060800000000       -2.52411800000000
C          136.70488900000001        0.07402100000000        0.01511300000000
C          135.98048800000001        0.31055500000000       -1.34441500000000
C          136.60038200000000        0.56658000000000       -2.54689100000000
C          135.57970000000000        0.68117600000000       -3.52465200000000
C          134.36832899999999        0.49238800000000       -2.88507500000000
N          134.62512899999999        0.28862700000000       -1.55284600000000
C          132.93634399999999        0.47351000000000       -3.56593800000000
C          132.88312900000000        0.55064600000000       -5.04497700000000
C          132.68468500000000        1.77275300000000       -5.68454200000000
C          132.64985600000000        1.84520000000000       -7.08500300000000
C          132.82617300000001        0.71047900000000       -7.90130400000000
N          132.78684600000000        0.79411200000000       -9.30593900000000
C          133.08369200000001        2.08995100000000       -9.91136500000000
C          133.20006000000001       -0.37288100000000      -10.07906100000000
C          132.99920399999999       -0.51281600000000       -7.22422000000000
C          133.03506899999999       -0.59443900000000       -5.82376400000000
C          131.80860600000000        0.36309200000000       -2.81233600000000
C          130.49707799999999        0.27642000000000       -3.42070200000000
C          129.59476400000000        0.14908900000000       -2.45561700000000
N          131.61664900000000        0.29562100000000       -1.45635400000000
C          130.27971900000000        0.16670500000000       -1.17792100000000
C          129.60694100000001        0.06756400000000       -0.00015500000000
C          130.37934700000000        0.13594100000000        1.38704100000000
C          129.81324599999999        0.41214600000000        2.61775000000000
C          130.83893399999999        0.33020400000000        3.59023200000000
C          132.00869399999999        0.02136200000000        2.92694500000000
N          131.72680199999999       -0.05521900000000        1.58266000000000
C          133.43252899999999       -0.18643900000000        3.59854100000000
C          133.48122599999999       -0.38679800000000        5.06377900000000
C          133.65688399999999        0.69686700000000        5.92264500000000
C          133.66384800000000        0.50777900000000        7.31177500000000
C          133.48445100000001       -0.76114800000000        7.89721700000000
N          133.48419899999999       -0.92783200000000        9.29672500000000
C          133.22328200000001       -2.26063800000000        9.83217100000000
C          132.92984999999999        0.17873500000000       10.07643800000000
C          133.34760499999999       -1.84041400000000        7.00322500000000
C          133.33527100000001       -1.65937900000000        5.61193000000000
C          134.55477200000001       -0.17375100000000        2.83328400000000
C          135.88332399999999       -0.35284100000000        3.39264800000000
C          136.76701199999999       -0.27515400000000        2.40238100000000
C          136.03863999999999       -0.04934200000000        1.17801200000000
N          134.71402200000000       -0.00607000000000        1.48536800000000
H          137.78635299999999        0.00263100000000        0.00681800000000
H          137.66491199999999        0.65100300000000       -2.70435400000000
H          135.71333300000001        0.86894100000000       -4.58012100000000
H          133.92036999999999        0.14701400000000       -0.83341500000000
H          132.54898600000001        2.66844300000000       -5.08253500000000
H          132.47214700000001        2.82627200000000       -7.51128500000000
H          134.06589299999999        2.46152000000000       -9.59709500000000
H          133.09374399999999        2.02016200000000      -11.00541400000000
H          132.31311400000001        2.82918700000000       -9.66839000000000
H          134.24732200000000       -0.62839400000000       -9.88273800000000
H          132.56132700000001       -1.23775600000000       -9.86954700000000
H          133.10224500000001       -0.18418600000000      -11.15425800000000
H          133.11497100000000       -1.44762800000000       -7.76098200000000
H          133.17584500000001       -1.55415900000000       -5.33159900000000
H          130.27942700000000        0.29636900000000       -4.47394200000000
H          128.53677800000000        0.05831900000000       -2.62047300000000
H          128.77397900000000        0.63652200000000        2.80353900000000
H          130.73499300000000        0.47732300000000        4.65502200000000
H          132.41984800000000       -0.19005400000000        0.85066200000000
H          133.79043200000001        1.69094800000000        5.50136500000000
H          133.82790000000000        1.39005400000000        7.92085500000000
H          133.32696700000000       -2.26470400000000       10.92345200000000
H          132.20721399999999       -2.59373000000000        9.59295200000000
H          133.94954400000000       -2.99082200000000        9.45827300000000
H          133.57477399999999        1.06212800000000       10.03385600000000
H          132.85848600000000       -0.08720100000000       11.13702700000000
H          131.92184399999999        0.44167400000000        9.73602000000000
H          133.22958199999999       -2.85915900000000        7.35455900000000
H          133.21037500000000       -2.51145500000000        4.94667700000000
H          136.11814100000001       -0.51807900000000        4.42917600000000
H          137.83453099999997       -0.36533800000000        2.49174400000000
C           77.47990900000001        0.06887600000000        0.00827700000000
C           76.27097000000001        0.05542100000000       -0.00017000000000
C           74.84944099999998        0.06424000000000       -0.01215300000000
C           73.63777199999998        0.07167900000000       -0.00129100000000
C           78.89651400000000        0.06220100000000        0.00881000000000
C           80.11721000000000        0.07167900000000       -0.00129100000000
C           93.25539800000000        0.06887600000000        0.00827700000000
C           92.04645800000000        0.05542100000000       -0.00017000000000
C           90.62492899999998        0.06424000000000       -0.01215300000000
C           89.41325999999999        0.07167900000000       -0.00129100000000
C           94.67200199999999        0.06220100000000        0.00881000000000
C           95.89269800000000        0.07167900000000       -0.00129100000000
C          109.03088600000000        0.06887600000000        0.00827700000000
C          107.82194599999998        0.05542100000000       -0.00017000000000
C          106.40041800000000        0.06424000000000       -0.01215300000000
C          105.18874800000000        0.07167900000000       -0.00129100000000
C          110.44748999999999        0.06220100000000        0.00881000000000
C          111.66818599999999        0.07167900000000       -0.00129100000000
C          124.80637399999999        0.06887600000000        0.00827700000000
C          123.59743500000000        0.05542100000000       -0.00017000000000
C          122.17590600000000        0.06424000000000       -0.01215300000000
C          120.96423600000000        0.07167900000000       -0.00129100000000
C          126.22297800000000        0.06220100000000        0.00881000000000
C          127.44367399999999        0.07167900000000       -0.00129100000000
C           81.19025200000000       -0.05363300000000        0.00024900000000
C           81.98403900000000       -0.40360400000000        1.32660800000000
C           81.47628700000000       -1.01867500000000        2.45331300000000
C           82.51350400000000       -1.05465000000000        3.42014700000000
C           83.62415799999998       -0.46733000000000        2.85128000000000
N           83.31340400000001       -0.14451000000000        1.55402100000000
C           85.01429800000000       -0.20025100000000        3.56285300000000
C           85.00378400000000       -0.01908100000000        5.03251800000000
C           84.55383399999999        1.17472600000000        5.59308400000000
C           84.51571999999999        1.33881300000000        6.98586200000000
C           84.90565300000000        0.31508200000000        7.86880700000000
N           84.86760200000001        0.45939000000000        9.27114500000000
C           84.39233999999999        1.72656500000000        9.81732600000000
C           84.45089499999999       -0.73108500000000       10.01277300000000
C           85.38130600000000       -0.86971000000000        7.27437300000000
C           85.42398899999999       -1.04072300000000        5.88332900000000
C           86.14891799999999       -0.09850400000000        2.82170300000000
C           87.43552699999998        0.20195900000000        3.41495000000000
C           88.34344299999999        0.24496300000000        2.44586700000000
N           86.35703500000000       -0.21908000000000        1.47548200000000
C           87.68130100000000       -0.02710800000000        1.18574000000000
C           88.34489099999999       -0.05363300000000        0.00024900000000
C           87.55109200000000       -0.35274100000000       -1.33851400000000
C           88.05849799999999       -0.92658500000000       -2.48716000000000
C           87.02158600000000       -0.92541700000000       -3.45498300000000
C           85.91141800000000       -0.35824900000000       -2.86459500000000
N           86.22206099999998       -0.08484900000000       -1.55603200000000
C           84.52165100000001       -0.06331100000000       -3.56583800000000
C           84.53262400000000        0.17039900000000       -5.02805200000000
C           84.99199000000000        1.37874800000000       -5.54701500000000
C           85.02942200000000        1.59032300000000       -6.93370900000000
C           84.62921600000000        0.60315000000000       -7.85445300000000
N           84.66629900000000        0.80801100000000       -9.24770300000000
C           84.84474000000000       -0.37944500000000      -10.08119600000000
C           85.29325300000001        2.02685800000000       -9.75023200000000
C           84.14541699999998       -0.59738900000000       -7.29877000000000
C           84.10427999999999       -0.81708200000000       -5.91401600000000
C           83.38691199999998        0.01099100000000       -2.82119800000000
C           82.10010399999999        0.33376600000000       -3.40227800000000
C           81.19208399999999        0.33936400000000       -2.43211900000000
C           81.85425999999998        0.01927400000000       -1.18339100000000
N           83.17894600000000       -0.16035100000000       -1.48031400000000
H           80.46697000000000       -1.38041700000000        2.57720200000000
H           82.45231699999999       -1.44434200000000        4.42522600000000
H           83.97480100000000        0.19592500000000        0.86182500000000
H           84.23051100000001        1.98001100000000        4.93686500000000
H           84.15209599999999        2.29423400000000        7.34711300000000
H           84.51151799999998        1.74229600000000       10.90723800000000
H           84.98004099999999        2.57017500000000        9.43748100000000
H           83.33057100000001        1.88503600000000        9.59571800000000
H           85.19796900000000       -1.52862200000000        9.95184400000000
H           83.48537300000000       -1.10634400000000        9.65359100000000
H           84.34154400000000       -0.50590900000000       11.08044200000000
H           85.75373800000000       -1.68892800000000        7.87984800000000
H           85.79392899999999       -1.96952600000000        5.45410600000000
H           87.62963200000000        0.37336300000000        4.45895200000000
H           89.38758399999999        0.45210200000000        2.59212800000000
H           89.06757600000000       -1.28484100000000       -2.62375000000000
H           87.08227100000001       -1.27733600000000       -4.47400200000000
H           85.56151600000000        0.23148400000000       -0.85113800000000
H           85.32223800000000        2.15857900000000       -4.86390400000000
H           85.39709200000000        2.55664400000000       -7.26025900000000
H           85.73801200000000       -0.94282100000000       -9.78779100000000
H           83.96641199999999       -1.03234200000000      -10.04083800000000
H           84.96400900000000       -0.10494000000000      -11.13600300000000
H           86.36031099999998        2.05760100000000       -9.50274500000000
H           85.20459399999999        2.08740700000000      -10.84113100000000
H           84.79620199999999        2.92186800000000       -9.35951700000000
H           83.77210700000001       -1.39843800000000       -7.92688600000000
H           83.73029800000000       -1.75860700000000       -5.51746300000000
H           81.90543799999999        0.54477400000000       -4.43872500000000
H           80.14771500000001        0.55187500000000       -2.57003900000000
C           96.96574099999999       -0.05363300000000        0.00024900000000
C           97.75952700000001       -0.40360400000000        1.32660800000000
C           97.25177499999998       -1.01867500000000        2.45331300000000
C           98.28899199999999       -1.05465000000000        3.42014700000000
C           99.39964600000000       -0.46733000000000        2.85128000000000
N           99.08889199999999       -0.14451000000000        1.55402100000000
C          100.78978600000001       -0.20025100000000        3.56285300000000
C          100.77927200000001       -0.01908100000000        5.03251800000000
C          100.32932200000000        1.17472600000000        5.59308400000000
C          100.29120799999998        1.33881300000000        6.98586200000000
C          100.68114100000000        0.31508200000000        7.86880700000000
N          100.64308999999999        0.45939000000000        9.27114500000000
C          100.16782800000000        1.72656500000000        9.81732600000000
C          100.22638399999998       -0.73108500000000       10.01277300000000
C          101.15679500000000       -0.86971000000000        7.27437300000000
C          101.19947699999999       -1.04072300000000        5.88332900000000
C          101.92440600000000       -0.09850400000000        2.82170300000000
C          103.21101600000000        0.20195900000000        3.41495000000000
C          104.11893099999999        0.24496300000000        2.44586700000000
N          102.13252300000001       -0.21908000000000        1.47548200000000
C          103.45678900000000       -0.02710800000000        1.18574000000000
C          104.12037899999999       -0.05363300000000        0.00024900000000
C          103.32658100000000       -0.35274100000000       -1.33851400000000
C          103.83398699999999       -0.92658500000000       -2.48716000000000
C          102.79707399999999       -0.92541700000000       -3.45498300000000
C          101.68690599999999       -0.35824900000000       -2.86459500000000
N          101.99754899999999       -0.08484900000000       -1.55603200000000
C          100.29713899999999       -0.06331100000000       -3.56583800000000
C          100.30811199999999        0.17039900000000       -5.02805200000000
C          100.76747800000000        1.37874800000000       -5.54701500000000
C          100.80491000000001        1.59032300000000       -6.93370900000000
C          100.40470399999998        0.60315000000000       -7.85445300000000
N          100.44178700000001        0.80801100000000       -9.24770300000000
C          100.62022799999998       -0.37944500000000      -10.08119600000000
C          101.06874100000000        2.02685800000000       -9.75023200000000
C           99.92090500000000       -0.59738900000000       -7.29877000000000
C           99.87976800000000       -0.81708200000000       -5.91401600000000
C           99.16240100000000        0.01099100000000       -2.82119800000000
C           97.87559299999999        0.33376600000000       -3.40227800000000
C           96.96757199999999        0.33936400000000       -2.43211900000000
C           97.62974800000001        0.01927400000000       -1.18339100000000
N           98.95443400000001       -0.16035100000000       -1.48031400000000
H           96.24245800000000       -1.38041700000000        2.57720200000000
H           98.22780499999999       -1.44434200000000        4.42522600000000
H           99.75028899999998        0.19592500000000        0.86182500000000
H          100.00599899999999        1.98001100000000        4.93686500000000
H           99.92758499999999        2.29423400000000        7.34711300000000
H          100.28700700000000        1.74229600000000       10.90723800000000
H          100.75552900000000        2.57017500000000        9.43748100000000
H           99.10605899999999        1.88503600000000        9.59571800000000
H          100.97345700000000       -1.52862200000000        9.95184400000000
H           99.26086100000001       -1.10634400000000        9.65359100000000
H          100.11703199999999       -0.50590900000000       11.08044200000000
H          101.52922699999999       -1.68892800000000        7.87984800000000
H          101.56941800000000       -1.96952600000000        5.45410600000000
H          103.40511999999998        0.37336300000000        4.45895200000000
H          105.16307299999998        0.45210200000000        2.59212800000000
H          104.84306400000000       -1.28484100000000       -2.62375000000000
H          102.85775900000000       -1.27733600000000       -4.47400200000000
H          101.33700399999999        0.23148400000000       -0.85113800000000
H          101.09772599999999        2.15857900000000       -4.86390400000000
H          101.17258000000000        2.55664400000000       -7.26025900000000
H          101.51350100000001       -0.94282100000000       -9.78779100000000
H           99.74190100000000       -1.03234200000000      -10.04083800000000
H          100.73949700000000       -0.10494000000000      -11.13600300000000
H          102.13579900000001        2.05760100000000       -9.50274500000000
H          100.98008200000000        2.08740700000000      -10.84113100000000
H          100.57169000000000        2.92186800000000       -9.35951700000000
H           99.54759500000000       -1.39843800000000       -7.92688600000000
H           99.50578600000000       -1.75860700000000       -5.51746300000000
H           97.68092699999998        0.54477400000000       -4.43872500000000
H           95.92320300000000        0.55187500000000       -2.57003900000000
C          112.74122900000000       -0.05363300000000        0.00024900000000
C          113.53501500000000       -0.40360400000000        1.32660800000000
C          113.02726299999999       -1.01867500000000        2.45331300000000
C          114.06447999999999       -1.05465000000000        3.42014700000000
C          115.17513400000000       -0.46733000000000        2.85128000000000
N          114.86437999999998       -0.14451000000000        1.55402100000000
C          116.56527500000000       -0.20025100000000        3.56285300000000
C          116.55475999999999       -0.01908100000000        5.03251800000000
C          116.10481000000000        1.17472600000000        5.59308400000000
C          116.06669599999999        1.33881300000000        6.98586200000000
C          116.45663000000000        0.31508200000000        7.86880700000000
N          116.41857799999998        0.45939000000000        9.27114500000000
C          115.94331600000000        1.72656500000000        9.81732600000000
C          116.00187200000001       -0.73108500000000       10.01277300000000
C          116.93228299999998       -0.86971000000000        7.27437300000000
C          116.97496500000000       -1.04072300000000        5.88332900000000
C          117.69989399999999       -0.09850400000000        2.82170300000000
C          118.98650400000000        0.20195900000000        3.41495000000000
C          119.89441899999998        0.24496300000000        2.44586700000000
N          117.90801099999999       -0.21908000000000        1.47548200000000
C          119.23227699999998       -0.02710800000000        1.18574000000000
C          119.89586700000000       -0.05363300000000        0.00024900000000
C          119.10206900000000       -0.35274100000000       -1.33851400000000
C          119.60947500000000       -0.92658500000000       -2.48716000000000
C          118.57256299999999       -0.92541700000000       -3.45498300000000
C          117.46239399999999       -0.35824900000000       -2.86459500000000
N          117.77303800000000       -0.08484900000000       -1.55603200000000
C          116.07262699999998       -0.06331100000000       -3.56583800000000
C          116.08359999999999        0.17039900000000       -5.02805200000000
C          116.54296600000001        1.37874800000000       -5.54701500000000
C          116.58039899999999        1.59032300000000       -6.93370900000000
C          116.18019200000001        0.60315000000000       -7.85445300000000
N          116.21727500000000        0.80801100000000       -9.24770300000000
C          116.39571599999998       -0.37944500000000      -10.08119600000000
C          116.84422900000000        2.02685800000000       -9.75023200000000
C          115.69639300000000       -0.59738900000000       -7.29877000000000
C          115.65525599999999       -0.81708200000000       -5.91401600000000
C          114.93788900000000        0.01099100000000       -2.82119800000000
C          113.65108100000000        0.33376600000000       -3.40227800000000
C          112.74306000000000        0.33936400000000       -2.43211900000000
C          113.40523600000000        0.01927400000000       -1.18339100000000
N          114.72992199999999       -0.16035100000000       -1.48031400000000
H          112.01794599999998       -1.38041700000000        2.57720200000000
H          114.00329299999999       -1.44434200000000        4.42522600000000
H          115.52577700000001        0.19592500000000        0.86182500000000
H          115.78148699999998        1.98001100000000        4.93686500000000
H          115.70307300000000        2.29423400000000        7.34711300000000
H          116.06249500000000        1.74229600000000       10.90723800000000
H          116.53101700000001        2.57017500000000        9.43748100000000
H          114.88154699999998        1.88503600000000        9.59571800000000
H          116.74894500000001       -1.52862200000000        9.95184400000000
H          115.03635000000000       -1.10634400000000        9.65359100000000
H          115.89252000000000       -0.50590900000000       11.08044200000000
H          117.30471499999999       -1.68892800000000        7.87984800000000
H          117.34490599999999       -1.96952600000000        5.45410600000000
H          119.18060900000000        0.37336300000000        4.45895200000000
H          120.93856100000001        0.45210200000000        2.59212800000000
H          120.61855199999999       -1.28484100000000       -2.62375000000000
H          118.63324699999998       -1.27733600000000       -4.47400200000000
H          117.11249199999999        0.23148400000000       -0.85113800000000
H          116.87321400000000        2.15857900000000       -4.86390400000000
H          116.94806799999999        2.55664400000000       -7.26025900000000
H          117.28898900000000       -0.94282100000000       -9.78779100000000
H          115.51738899999999       -1.03234200000000      -10.04083800000000
H          116.51498499999998       -0.10494000000000      -11.13600300000000
H          117.91128700000000        2.05760100000000       -9.50274500000000
H          116.75557100000000        2.08740700000000      -10.84113100000000
H          116.34717900000000        2.92186800000000       -9.35951700000000
H          115.32308299999998       -1.39843800000000       -7.92688600000000