      -----------------------------------------------------------      
     |                   =====================                   |     
     |                           x T B                           |     
     |                   =====================                   |     
     |                         S. Grimme                         |     
     |          Mulliken Center for Theoretical Chemistry        |     
     |                    University of Bonn                     |     
      -----------------------------------------------------------      

   * xtb version 6.5.1 (b24c23e) compiled by 'conda@728c89f4b128' on 2022-07-12

   xtb is free software: you can redistribute it and/or modify it under
   the terms of the GNU Lesser General Public License as published by
   the Free Software Foundation, either version 3 of the License, or
   (at your option) any later version.
   
   xtb is distributed in the hope that it will be useful,
   but WITHOUT ANY WARRANTY; without even the implied warranty of
   MERCHANTABILITY or FITNESS FOR A PARTICULAR PURPOSE.  See the
   GNU Lesser General Public License for more details.
   
   Cite this work as:
   * C. Bannwarth, E. Caldeweyher, S. Ehlert, A. Hansen, P. Pracht,
     J. Seibert, S. Spicher, S. Grimme, WIREs Comput. Mol. Sci., 2020, 11,
     e01493. DOI: 10.1002/wcms.1493
   
   for GFN2-xTB:
   * C. Bannwarth, S. Ehlert and S. Grimme., J. Chem. Theory Comput., 2019,
     15, 1652-1671. DOI: 10.1021/acs.jctc.8b01176
   for GFN1-xTB:
   * S. Grimme, C. Bannwarth, P. Shushkov, J. Chem. Theory Comput., 2017,
     13, 1989-2009. DOI: 10.1021/acs.jctc.7b00118
   for GFN0-xTB:
   * P. Pracht, E. Caldeweyher, S. Ehlert, S. Grimme, ChemRxiv, 2019, preprint.
     DOI: 10.26434/chemrxiv.8326202.v1
   for GFN-FF:
   * S. Spicher and S. Grimme, Angew. Chem. Int. Ed., 2020, 59, 15665-15673.
     DOI: 10.1002/anie.202004239
   
   for ALPB and GBSA implicit solvation:
   * S. Ehlert, M. Stahn, S. Spicher, S. Grimme, J. Chem. Theory Comput.,
     2021, 17, 4250-4261. DOI: 10.1021/acs.jctc.1c00471
   
   for DFT-D4:
   * E. Caldeweyher, C. Bannwarth and S. Grimme, J. Chem. Phys., 2017,
     147, 034112. DOI: 10.1063/1.4993215
   * E. Caldeweyher, S. Ehlert, A. Hansen, H. Neugebauer, S. Spicher,
     C. Bannwarth and S. Grimme, J. Chem. Phys., 2019, 150, 154122.
     DOI: 10.1063/1.5090222
   * E. Caldeweyher, J.-M. Mewes, S. Ehlert and S. Grimme, Phys. Chem. Chem. Phys.
     2020, 22, 8499-8512. DOI: 10.1039/D0CP00502A
   
   for sTDA-xTB:
   * S. Grimme and C. Bannwarth, J. Chem. Phys., 2016, 145, 054103.
     DOI: 10.1063/1.4959605
   
   in the mass-spec context:
   * V. Asgeirsson, C. Bauer and S. Grimme, Chem. Sci., 2017, 8, 4879.
     DOI: 10.1039/c7sc00601b
   * J. Koopman and S. Grimme, ACS Omega 2019, 4, 12, 15120-15133.
     DOI: 10.1021/acsomega.9b02011
   
   for metadynamics refer to:
   * S. Grimme, J. Chem. Theory Comput., 2019, 155, 2847-2862
     DOI: 10.1021/acs.jctc.9b00143
   
   for SPH calculations refer to:
   * S. Spicher and S. Grimme, J. Chem. Theory Comput., 2021, 17, 1701-1714
     DOI: 10.1021/acs.jctc.0c01306
   
   with help from (in alphabetical order)
   P. Atkinson, C. Bannwarth, F. Bohle, G. Brandenburg, E. Caldeweyher
   M. Checinski, S. Dohm, S. Ehlert, S. Ehrlich, I. Gerasimov, C. Hölzer
   A. Katbashev, J. Koopman, C. Lavigne, S. Lehtola, F. März, M. Müller,
   F. Musil, H. Neugebauer, J. Pisarek, C. Plett, P. Pracht, F. Pultar,
   J. Seibert, P. Shushkov, S. Spicher, M. Stahn, M. Steiner, T. Strunk,
   J. Stückrath, T. Rose, and J. Unsleber
   
 * started run on 2022/07/30 at 09:46:26.105     

           -------------------------------------------------
          |                Calculation Setup                |
           -------------------------------------------------

          program call               : xtb PhNO2_C6_7.xyz --gfn 1 --opt -T 48
          hostname                   : cx3-6-25.cx3.hpc.ic.ac.uk
          coordinate file            : PhNO2_C6_7.xyz
          omp threads                :                     1

   ID    Z sym.   atoms
    1    6 C      1-5, 7-11, 15-19, 21-26, 28-32, 36-41, 62-66, 68-72, 76-80,
                  82-87, 89-93, 97-102, 123-163, 165-169, 173-177, 179-184,
                  186-190, 194-199, 219-223, 225-229, 233-237, 239-244,
                  246-250, 254-259, 279-283, 285-289, 293-297, 299-304,
                  306-310, 314-319, 339-343, 345-349, 353-357, 359-364,
                  366-370, 374-379, 399-403, 405-409, 413-417, 419-424,
                  426-430, 434-439
    2    7 N      6, 12, 20, 27, 33, 42, 67, 73, 81, 88, 94, 103, 164, 170,
                  178, 185, 191, 200, 224, 230, 238, 245, 251, 260, 284, 290,
                  298, 305, 311, 320, 344, 350, 358, 365, 371, 380, 404, 410,
                  418, 425, 431, 440
    3    8 O      13, 14, 34, 35, 74, 75, 95, 96, 171, 172, 192, 193, 231,
                  232, 252, 253, 291, 292, 312, 313, 351, 352, 372, 373, 411,
                  412, 432, 433
    4    1 H      43-61, 104-122, 201-218, 261-278, 321-338, 381-398, 441-458

molecular fragmentation (1/2 indicates fragments):
111111111111111111111111111111111111111111111111111111111111122222222222
222222222222222222222222222222222222222222222222222222222222222222222222
222222222222222222222222222222222222222222222222222222222222222222222222
222222222222222222222222222222222222222222222222222222222222222222222222
222222222222222222222222222222222222222222222222222222222222222222222222
222222222222222222222222222222222222222222222222222222222222222222222222
22222222222222222222222222
# atoms in fragment 1/2:    61   397
 fragment masses (1/2) :      551.53     3736.54
CMA distance (Bohr)    : 107.104
constraining FC (au)   :  0.0500
########################################################################
[WARNING] Please study the warnings concerning your input carefully
-1- prog_main_parseArguments: Unknown option '-T' provided
########################################################################

           -------------------------------------------------
          |                 G F N 1 - x T B                 |
           -------------------------------------------------

        Reference                      10.1021/acs.jctc.7b00118
      * Hamiltonian:
        H0-scaling (s, p, d)           1.850000    2.250000    2.000000
        zeta-weighting                 0.000000
      * Dispersion:
        s8                             2.400000
        a1                             0.630000
        a2                             5.000000
        s9                             0.000000
      * Repulsion:
        kExp                           1.500000
        rExp                           1.000000
      * Coulomb:
        alpha                          2.000000
        third order                    atomic
        anisotropic                    false
      * Halogen bond correction:
        rad-scale                      1.300000
        damping                        0.440000


          ...................................................
          :                      SETUP                      :
          :.................................................:
          :  # basis functions                1576          :
          :  # atomic orbitals                1576          :
          :  # shells                          916          :
          :  # electrons                      1546          :
          :  # halogen bonds                     0          :
          :  max. iterations                   250          :
          :  Hamiltonian                  GFN1-xTB          :
          :  restarted?                      false          :
          :  GBSA solvation                  false          :
          :  PC potential                    false          :
          :  electronic temp.          300.0000000     K    :
          :  accuracy                    1.0000000          :
          :  -> integral cutoff          0.2500000E+02      :
          :  -> integral neglect         0.1000000E-07      :
          :  -> SCF convergence          0.1000000E-05 Eh   :
          :  -> wf. convergence          0.2000000E-04 e    :
          :  Broyden damping             0.4000000          :
          ...................................................

 iter      E             dE          RMSdq      gap      omega  full diag
   1   -890.4969409 -0.890497E+03  0.106E+01    0.07       0.0  T
   2   -893.0102280 -0.251329E+01  0.617E+00    0.10       1.0  T
   3   -885.2286033  0.778162E+01  0.259E+00    0.09       1.0  T
   4   -836.9123632  0.483162E+02  0.325E+00    0.07       1.0  T
   5   -574.6350489  0.262277E+03  0.565E+00    0.03       1.0  T
   6   -763.6532816 -0.189018E+03  0.381E+00    0.04       1.0  T
   7   -865.0190440 -0.101366E+03  0.219E+00    0.03       1.0  T
   8   -889.7553518 -0.247363E+02  0.114E+00    0.01       1.0  T
   9   -892.4259255 -0.267057E+01  0.707E-01    0.03       1.0  T
  10   -893.1093227 -0.683397E+00  0.467E-01    0.04       1.0  T
  11   -893.1682151 -0.588924E-01  0.342E-01    0.06       1.0  T
  12   -893.1714117 -0.319659E-02  0.308E-01    0.08       1.0  T
  13   -893.2878884 -0.116477E+00  0.149E-01    0.10       1.0  T
  14   -893.2842363  0.365215E-02  0.123E-01    0.11       1.0  T
  15   -893.3081997 -0.239634E-01  0.659E-02    0.10       1.0  T
  16   -893.3131511 -0.495139E-02  0.445E-02    0.10       1.0  T
  17   -893.3144062 -0.125512E-02  0.397E-02    0.10       1.0  T
  18   -893.3156106 -0.120436E-02  0.227E-02    0.10       1.0  T
  19   -893.3146213  0.989223E-03  0.262E-02    0.10       1.0  T
  20   -893.3162170 -0.159564E-02  0.151E-02    0.10       1.0  T
  21   -893.3160464  0.170625E-03  0.137E-02    0.10       1.0  T
  22   -893.3163621 -0.315707E-03  0.861E-03    0.10       1.0  T
  23   -893.3165040 -0.141897E-03  0.768E-03    0.10       1.0  T
  24   -893.3165348 -0.308674E-04  0.673E-03    0.10       1.0  T
  25   -893.3165986 -0.637955E-04  0.580E-03    0.10       1.0  T
  26   -893.3166271 -0.284678E-04  0.491E-03    0.10       1.0  T
  27   -893.3166741 -0.469724E-04  0.390E-03    0.10       1.2  T
  28   -893.3167035 -0.294321E-04  0.269E-03    0.10       1.7  T
  29   -893.3167144 -0.109291E-04  0.260E-03    0.10       1.8  T
  30   -893.3167147 -0.226058E-06  0.211E-03    0.10       2.2  T
  31   -893.3167176 -0.296896E-05  0.160E-03    0.10       2.9  T
  32   -893.3167214 -0.375606E-05  0.115E-03    0.10       4.1  T
  33   -893.3167237 -0.236844E-05  0.959E-04    0.10       4.9  T
  34   -893.3167250 -0.128908E-05  0.814E-04    0.10       5.7  T
  35   -893.3167262 -0.113234E-05  0.610E-04    0.10       7.7  T
  36   -893.3167267 -0.534011E-06  0.504E-04    0.10       9.3  T
  37   -893.3167272 -0.525553E-06  0.275E-04    0.10      17.0  T
  38   -893.3167274 -0.200338E-06  0.203E-04    0.10      23.1  T
  39   -893.3167275 -0.735997E-07  0.174E-04    0.10      26.9  T
  40   -893.3167276 -0.515901E-07  0.131E-04    0.10      35.8  T

   *** convergence criteria satisfied after 40 iterations ***

         #    Occupation            Energy/Eh            Energy/eV
      -------------------------------------------------------------
         1        2.0000           -0.9173454             -24.9622
       ...           ...                  ...                  ...
       767        2.0000           -0.4096424             -11.1469
       768        2.0000           -0.4095091             -11.1433
       769        2.0000           -0.4091604             -11.1338
       770        2.0000           -0.4063291             -11.0568
       771        2.0000           -0.4023276             -10.9479
       772        1.9987           -0.3976933             -10.8218
       773        1.7423           -0.3925403             -10.6816 (HOMO)
       774        0.2192           -0.3887345             -10.5780 (LUMO)
       775        0.0179           -0.3862549             -10.5105
       776        0.0172           -0.3862165             -10.5095
       777        0.0020           -0.3841771             -10.4540
       778        0.0014           -0.3838527             -10.4452
       ...           ...                  ...                  ...
      1576                          1.6737030              45.5438
      -------------------------------------------------------------
                  HL-Gap            0.0038058 Eh            0.1036 eV
             Fermi-level           -0.3907246 Eh          -10.6322 eV

 SCC (total)                   0 d,  0 h,  0 min, 45.152 sec
 SCC setup                      ...        0 min,  0.050 sec (  0.111%)
 Dispersion                     ...        0 min,  0.025 sec (  0.055%)
 classical contributions        ...        0 min,  0.006 sec (  0.013%)
 integral evaluation            ...        0 min,  0.625 sec (  1.383%)
 iterations                     ...        0 min, 43.062 sec ( 95.372%)
 molecular gradient             ...        0 min,  1.180 sec (  2.612%)
 printout                       ...        0 min,  0.205 sec (  0.453%)

         :::::::::::::::::::::::::::::::::::::::::::::::::::::
         ::                     SUMMARY                     ::
         :::::::::::::::::::::::::::::::::::::::::::::::::::::
         :: total energy            -880.017644834152 Eh    ::
         :: gradient norm              1.328463995574 Eh/a0 ::
         :: HOMO-LUMO gap              0.103561536769 eV    ::
         ::.................................................::
         :: SCC energy              -893.316727555068 Eh    ::
         :: -> electrostatic           1.641770702039 Eh    ::
         :: repulsion energy          13.683646830435 Eh    ::
         :: dispersion energy         -0.384564109519 Eh    ::
         :: halogen bond corr.         0.000000000000 Eh    ::
         :: add. restraining           0.000000000000 Eh    ::
         :: total charge              -0.000000001252 e     ::
         :::::::::::::::::::::::::::::::::::::::::::::::::::::

      ----------------------------------------------------------- 
     |                   =====================                   |
     |                        A N C O P T                        |
     |                   =====================                   |
     |               Approximate Normal Coordinate               |
     |                Rational Function Optimizer                |
      ----------------------------------------------------------- 

          ...................................................
          :                      SETUP                      :
          :.................................................:
          :   optimization level            normal          :
          :   max. optcycles                  1374          :
          :   ANC micro-cycles                  20          :
          :   degrees of freedom              1368          :
          :.................................................:
          :   RF solver                   davidson          :
          :   write xtbopt.log                true          :
          :   linear?                        false          :
          :   energy convergence         0.5000000E-05 Eh   :
          :   grad. convergence          0.1000000E-02 Eh/α :
          :   maximium RF displ.         1.0000000          :
          :   Hlow (freq-cutoff)         0.1000000E-01      :
          :   Hmax (freq-cutoff)         5.0000000          :
          :   S6 in model hess.         20.0000000          :
          ...................................................

generating ANC from model Hessian ...
Using Lindh-Hessian (1995)
 Shifting diagonal of input Hessian by    1.0006209362718583E-002
 Lowest  eigenvalues of input Hessian
    0.010000    0.010003    0.010003    0.010004    0.010004    0.010005
    0.010005    0.010006    0.010006    0.000000    0.000000    0.000000
    0.000000    0.000000    0.000000    0.010006    0.010006    0.010007
 Highest eigenvalues
    3.059739    3.075264    3.099794    3.099795    3.099795    3.099796


........................................................................
.............................. CYCLE    1 ..............................
........................................................................
   1   -893.3167276 -0.893317E+03  0.776E-05    0.10       0.0  T
   2   -893.3167275  0.696814E-07  0.210E-04    0.10      22.2  T
   3   -893.3167276 -0.805367E-07  0.777E-05    0.10      60.1  T
   4   -893.3167276  0.258694E-07  0.121E-04    0.10      38.7  T
     SCC iter.                  ...        0 min,  4.284 sec
     gradient                   ...        0 min,  1.175 sec
 * total energy  :  -880.0176449 Eh     change       -0.2415288E-07 Eh
   gradient norm :     1.3284636 Eh/α   predicted     0.0000000E+00 (-100.00%)
   displ. norm   :     0.5918022 α      lambda       -0.7323419E+00
   maximum displ.:     0.2219052 α      in ANC's #1089, #1353, #1082, ...

........................................................................
.............................. CYCLE    2 ..............................
........................................................................
   1   -893.4048629 -0.893405E+03  0.107E-01    0.19       0.0  T
   2   -893.4075693 -0.270635E-02  0.771E-02    0.17       1.0  T
   3   -893.4066494  0.919894E-03  0.615E-02    0.18       1.0  T
   4   -893.4090479 -0.239850E-02  0.441E-02    0.18       1.0  T
   5   -893.4083752  0.672632E-03  0.418E-02    0.15       1.0  T
   6   -893.4109687 -0.259343E-02  0.210E-02    0.18       1.0  T
   7   -893.4114838 -0.515158E-03  0.997E-03    0.18       1.0  T
   8   -893.4115665 -0.826615E-04  0.494E-03    0.18       1.0  T
   9   -893.4115702 -0.370936E-05  0.480E-03    0.18       1.0  T
  10   -893.4116022 -0.320082E-04  0.197E-03    0.18       2.4  T
  11   -893.4116029 -0.743250E-06  0.158E-03    0.18       3.0  T
  12   -893.4116069 -0.398936E-05  0.653E-04    0.18       7.2  T
  13   -893.4116074 -0.505719E-06  0.319E-04    0.18      14.6  T
  14   -893.4116076 -0.168291E-06  0.139E-04    0.18      33.6  T
  15   -893.4116076 -0.485431E-08  0.109E-04    0.18      42.8  T
     SCC iter.                  ...        0 min, 16.003 sec
     gradient                   ...        0 min,  1.172 sec
 * total energy  :  -880.5663568 Eh     change       -0.5487120E+00 Eh
   gradient norm :     0.6820339 Eh/α   predicted    -0.4944281E+00 (  -9.89%)
   displ. norm   :     0.6032679 α      lambda       -0.3741107E+00
   maximum displ.:     0.1822386 α      in ANC's #1089, #1353, #1143, ...

........................................................................
.............................. CYCLE    3 ..............................
........................................................................
   1   -893.4717182 -0.893472E+03  0.977E-02    0.29       0.0  T
   2   -893.4754243 -0.370604E-02  0.663E-02    0.24       1.0  T
   3   -893.4765653 -0.114102E-02  0.383E-02    0.29       1.0  T
   4   -893.4766770 -0.111688E-03  0.353E-02    0.25       1.0  T
   5   -893.4777043 -0.102733E-02  0.138E-02    0.26       1.0  T
   6   -893.4777842 -0.798533E-04  0.567E-03    0.27       1.0  T
   7   -893.4778108 -0.266699E-04  0.304E-03    0.26       1.5  T
   8   -893.4778232 -0.124090E-04  0.128E-03    0.26       3.6  T
   9   -893.4778255 -0.227594E-05  0.448E-04    0.26      10.4  T
  10   -893.4778257 -0.225227E-06  0.139E-04    0.26      33.7  T
  11   -893.4778258 -0.136024E-07  0.744E-05    0.26      62.8  T
     SCC iter.                  ...        0 min, 11.806 sec
     gradient                   ...        0 min,  1.174 sec
 * total energy  :  -880.8391099 Eh     change       -0.2727530E+00 Eh
   gradient norm :     0.3039103 Eh/α   predicted    -0.2551309E+00 (  -6.46%)
   displ. norm   :     0.6410028 α      lambda       -0.1536190E+00
   maximum displ.:     0.1217292 α      in ANC's #446, #355, #332, ...

........................................................................
.............................. CYCLE    4 ..............................
........................................................................
   1   -893.5679903 -0.893568E+03  0.589E-02    0.44       0.0  T
   2   -893.5698754 -0.188504E-02  0.462E-02    0.42       1.0  T
   3   -893.5709178 -0.104239E-02  0.183E-02    0.43       1.0  T
   4   -893.5706887  0.229096E-03  0.212E-02    0.43       1.0  T
   5   -893.5710492 -0.360519E-03  0.750E-03    0.43       1.0  T
   6   -893.5710753 -0.261458E-04  0.240E-03    0.43       1.9  T
   7   -893.5710793 -0.396782E-05  0.871E-04    0.43       5.4  T
   8   -893.5710801 -0.763613E-06  0.431E-04    0.43      10.8  T
   9   -893.5710803 -0.194380E-06  0.191E-04    0.43      24.5  T
  10   -893.5710803 -0.385912E-07  0.843E-05    0.43      55.4  T
     SCC iter.                  ...        0 min, 10.903 sec
     gradient                   ...        0 min,  1.205 sec
 * total energy  :  -880.9492529 Eh     change       -0.1101431E+00 Eh
   gradient norm :     0.1310925 Eh/α   predicted    -0.1083695E+00 (  -1.61%)
   displ. norm   :     0.7618207 α      lambda       -0.7438872E-01
   maximum displ.:     0.1505462 α      in ANC's #113, #355, #109, ...

........................................................................
.............................. CYCLE    5 ..............................
........................................................................
   1   -893.6612195 -0.893661E+03  0.302E-02    0.54       0.0  T
   2   -893.6616207 -0.401208E-03  0.316E-02    0.53       1.0  T
   3   -893.6621742 -0.553461E-03  0.117E-02    0.53       1.0  T
   4   -893.6621251  0.490644E-04  0.100E-02    0.53       1.0  T
   5   -893.6621736 -0.484815E-04  0.450E-03    0.53       1.0  T
   6   -893.6621943 -0.206991E-04  0.133E-03    0.53       3.5  T
   7   -893.6621964 -0.207081E-05  0.338E-04    0.53      13.8  T
   8   -893.6621965 -0.840711E-07  0.251E-04    0.53      18.6  T
   9   -893.6621965 -0.555349E-07  0.948E-05    0.53      49.3  T
  10   -893.6621965 -0.820501E-08  0.418E-05    0.53     111.8  T
     SCC iter.                  ...        0 min, 10.858 sec
     gradient                   ...        0 min,  1.200 sec
 * total energy  :  -881.0128468 Eh     change       -0.6359391E-01 Eh
   gradient norm :     0.0958415 Eh/α   predicted    -0.5878197E-01 (  -7.57%)
   displ. norm   :     0.8730072 α      lambda       -0.6387214E-01
   maximum displ.:     0.2070839 α      in ANC's #113, #109, #263, ...

........................................................................
.............................. CYCLE    6 ..............................
........................................................................
   1   -893.7277094 -0.893728E+03  0.348E-02    0.61       0.0  T
   2   -893.7280922 -0.382752E-03  0.376E-02    0.61       1.0  T
   3   -893.7287158 -0.623603E-03  0.131E-02    0.61       1.0  T
   4   -893.7286511  0.646857E-04  0.899E-03    0.61       1.0  T
   5   -893.7287015 -0.504473E-04  0.482E-03    0.61       1.0  T
   6   -893.7287297 -0.281987E-04  0.133E-03    0.61       3.5  T
   7   -893.7287317 -0.195205E-05  0.440E-04    0.61      10.6  T
   8   -893.7287319 -0.208087E-06  0.253E-04    0.61      18.5  T
   9   -893.7287320 -0.638253E-07  0.863E-05    0.61      54.1  T
  10   -893.7287320 -0.370619E-08  0.393E-05    0.61     118.8  T
     SCC iter.                  ...        0 min, 10.864 sec
     gradient                   ...        0 min,  1.178 sec
 * total energy  :  -881.0728228 Eh     change       -0.5997595E-01 Eh
   gradient norm :     0.0870269 Eh/α   predicted    -0.5627591E-01 (  -6.17%)
   displ. norm   :     0.9407940 α      lambda       -0.6427979E-01
   maximum displ.:     0.2400024 α      in ANC's #113, #263, #109, ...

........................................................................
.............................. CYCLE    7 ..............................
........................................................................
   1   -893.7675882 -0.893768E+03  0.393E-02    0.67       0.0  T
   2   -893.7681459 -0.557676E-03  0.384E-02    0.67       1.0  T
   3   -893.7685480 -0.402113E-03  0.163E-02    0.67       1.0  T
   4   -893.7684073  0.140768E-03  0.120E-02    0.67       1.0  T
   5   -893.7685397 -0.132432E-03  0.430E-03    0.67       1.1  T
   6   -893.7685604 -0.207257E-04  0.131E-03    0.67       3.6  T
   7   -893.7685626 -0.220233E-05  0.582E-04    0.67       8.0  T
   8   -893.7685630 -0.417548E-06  0.194E-04    0.67      24.1  T
   9   -893.7685631 -0.226689E-07  0.921E-05    0.67      50.7  T
     SCC iter.                  ...        0 min,  9.678 sec
     gradient                   ...        0 min,  1.172 sec
 * total energy  :  -881.1348430 Eh     change       -0.6202016E-01 Eh
   gradient norm :     0.0862533 Eh/α   predicted    -0.6058680E-01 (  -2.31%)
   displ. norm   :     0.9478518 α      lambda       -0.6317668E-01
   maximum displ.:     0.2567523 α      in ANC's #113, #263, #109, ...

........................................................................
.............................. CYCLE    8 ..............................
........................................................................
   1   -893.7905115 -0.893791E+03  0.415E-02    0.70       0.0  T
   2   -893.7908919 -0.380454E-03  0.418E-02    0.70       1.0  T
   3   -893.7912041 -0.312193E-03  0.212E-02    0.70       1.0  T
   4   -893.7909790  0.225069E-03  0.151E-02    0.70       1.0  T
   5   -893.7911984 -0.219385E-03  0.362E-03    0.70       1.3  T
   6   -893.7912131 -0.146789E-04  0.115E-03    0.70       4.1  T
   7   -893.7912147 -0.157547E-05  0.596E-04    0.70       7.8  T
   8   -893.7912152 -0.493412E-06  0.157E-04    0.70      29.9  T
   9   -893.7912152 -0.160613E-07  0.698E-05    0.70      67.0  T
     SCC iter.                  ...        0 min,  9.615 sec
     gradient                   ...        0 min,  1.192 sec
 * total energy  :  -881.1902748 Eh     change       -0.5543189E-01 Eh
   gradient norm :     0.0741198 Eh/α   predicted    -0.5996812E-01 (   8.18%)
   displ. norm   :     0.8737172 α      lambda       -0.4475239E-01
   maximum displ.:     0.2827238 α      in ANC's #113, #109, #88, ...

........................................................................
.............................. CYCLE    9 ..............................
........................................................................
   1   -893.8386315 -0.893839E+03  0.240E-02    0.71       0.0  T
   2   -893.8386420 -0.105030E-04  0.264E-02    0.71       1.0  T
   3   -893.8388423 -0.200299E-03  0.135E-02    0.71       1.0  T
   4   -893.8387158  0.126501E-03  0.104E-02    0.71       1.0  T
   5   -893.8388433 -0.127518E-03  0.166E-03    0.71       2.8  T
   6   -893.8388457 -0.241512E-05  0.489E-04    0.71       9.5  T
   7   -893.8388460 -0.328065E-06  0.241E-04    0.71      19.4  T
   8   -893.8388461 -0.931312E-07  0.524E-05    0.71      89.1  T
   9   -893.8388461 -0.240868E-08  0.270E-05    0.71     172.8  T
     SCC iter.                  ...        0 min,  9.596 sec
     gradient                   ...        0 min,  1.183 sec
 * total energy  :  -881.2279105 Eh     change       -0.3763566E-01 Eh
   gradient norm :     0.0710484 Eh/α   predicted    -0.3945788E-01 (   4.84%)
   displ. norm   :     0.8370539 α      lambda       -0.3812085E-01
   maximum displ.:     0.2693714 α      in ANC's #113, #109, #88, ...

........................................................................
.............................. CYCLE   10 ..............................
........................................................................
   1   -893.9070991 -0.893907E+03  0.142E-02    0.70       0.0  T
   2   -893.9071248 -0.257381E-04  0.107E-02    0.70       1.0  T
   3   -893.9071870 -0.621754E-04  0.491E-03    0.70       1.0  T
   4   -893.9071914 -0.435498E-05  0.476E-03    0.70       1.0  T
   5   -893.9072076 -0.162617E-04  0.139E-03    0.70       3.4  T
   6   -893.9072091 -0.142194E-05  0.477E-04    0.70       9.8  T
   7   -893.9072094 -0.318217E-06  0.161E-04    0.70      29.0  T
   8   -893.9072094 -0.359134E-07  0.583E-05    0.70      80.2  T
     SCC iter.                  ...        0 min,  8.533 sec
     gradient                   ...        0 min,  1.172 sec
 * total energy  :  -881.2615826 Eh     change       -0.3367213E-01 Eh
   gradient norm :     0.0523423 Eh/α   predicted    -0.3241529E-01 (  -3.73%)
   displ. norm   :     0.9121043 α      lambda       -0.3508383E-01
   maximum displ.:     0.3037494 α      in ANC's #113, #109, #88, ...

........................................................................
.............................. CYCLE   11 ..............................
........................................................................
   1   -893.9716558 -0.893972E+03  0.140E-02    0.69       0.0  T
   2   -893.9717208 -0.649899E-04  0.104E-02    0.69       1.0  T
   3   -893.9717762 -0.554953E-04  0.453E-03    0.69       1.0  T
   4   -893.9717637  0.125151E-04  0.466E-03    0.69       1.0  T
   5   -893.9717840 -0.202477E-04  0.148E-03    0.69       3.1  T
   6   -893.9717849 -0.970303E-06  0.370E-04    0.69      12.6  T
   7   -893.9717851 -0.152017E-06  0.137E-04    0.69      34.2  T
   8   -893.9717851 -0.211920E-07  0.666E-05    0.69      70.2  T
     SCC iter.                  ...        0 min,  8.618 sec
     gradient                   ...        0 min,  1.184 sec
 * total energy  :  -881.2902779 Eh     change       -0.2869524E-01 Eh
   gradient norm :     0.0520714 Eh/α   predicted    -0.3213565E-01 (  11.99%)
   displ. norm   :     0.9134319 α      lambda       -0.3265849E-01
   maximum displ.:     0.2942069 α      in ANC's #113, #109, #88, ...

........................................................................
.............................. CYCLE   12 ..............................
........................................................................
   1   -894.0427820 -0.894043E+03  0.154E-02    0.68       0.0  T
   2   -894.0427925 -0.105365E-04  0.122E-02    0.68       1.0  T
   3   -894.0428485 -0.559507E-04  0.532E-03    0.68       1.0  T
   4   -894.0428443  0.419482E-05  0.475E-03    0.68       1.0  T
   5   -894.0428616 -0.173477E-04  0.104E-03    0.68       4.5  T
   6   -894.0428631 -0.145096E-05  0.357E-04    0.68      13.1  T
   7   -894.0428633 -0.184147E-06  0.959E-05    0.68      48.7  T
   8   -894.0428633 -0.110590E-07  0.427E-05    0.68     109.3  T
     SCC iter.                  ...        0 min,  8.671 sec
     gradient                   ...        0 min,  1.260 sec
 * total energy  :  -881.3172248 Eh     change       -0.2694695E-01 Eh
   gradient norm :     0.0412783 Eh/α   predicted    -0.2995368E-01 (  11.16%)
   displ. norm   :     0.8980824 α      lambda       -0.2691693E-01
   maximum displ.:     0.3029584 α      in ANC's #113, #109, #88, ...

........................................................................
.............................. CYCLE   13 ..............................
........................................................................
   1   -894.1045197 -0.894105E+03  0.886E-03    0.70       0.0  T
   2   -894.1045305 -0.108150E-04  0.591E-03    0.70       1.0  T
   3   -894.1045346 -0.404456E-05  0.325E-03    0.70       1.4  T
   4   -894.1045320  0.254873E-05  0.268E-03    0.70       1.7  T
   5   -894.1045402 -0.823526E-05  0.540E-04    0.70       8.6  T
   6   -894.1045406 -0.324430E-06  0.201E-04    0.70      23.3  T
   7   -894.1045406 -0.550365E-07  0.867E-05    0.70      53.9  T
   8   -894.1045406 -0.861928E-08  0.310E-05    0.70     150.6  T
     SCC iter.                  ...        0 min,  8.661 sec
     gradient                   ...        0 min,  1.215 sec
 * total energy  :  -881.3391629 Eh     change       -0.2193805E-01 Eh
   gradient norm :     0.0469278 Eh/α   predicted    -0.2431343E-01 (  10.83%)
   displ. norm   :     0.8833084 α      lambda       -0.2540666E-01
   maximum displ.:     0.2878293 α      in ANC's #109, #113, #88, ...

........................................................................
.............................. CYCLE   14 ..............................
........................................................................
   1   -894.1703501 -0.894170E+03  0.785E-03    0.70       0.0  T
   2   -894.1703588 -0.869076E-05  0.529E-03    0.70       1.0  T
   3   -894.1703635 -0.472356E-05  0.304E-03    0.70       1.5  T
   4   -894.1703641 -0.563445E-06  0.236E-03    0.70       2.0  T
   5   -894.1703700 -0.589786E-05  0.628E-04    0.70       7.4  T
   6   -894.1703704 -0.382634E-06  0.239E-04    0.70      19.5  T
   7   -894.1703704 -0.865679E-07  0.791E-05    0.70      59.0  T
   8   -894.1703705 -0.653552E-08  0.337E-05    0.70     138.6  T
     SCC iter.                  ...        0 min,  8.611 sec
     gradient                   ...        0 min,  1.174 sec
 * total energy  :  -881.3609798 Eh     change       -0.2181693E-01 Eh
   gradient norm :     0.0378522 Eh/α   predicted    -0.2261489E-01 (   3.66%)
   displ. norm   :     0.9082996 α      lambda       -0.2101167E-01
   maximum displ.:     0.3057775 α      in ANC's #109, #113, #65, ...

........................................................................
.............................. CYCLE   15 ..............................
........................................................................
   1   -894.2333831 -0.894233E+03  0.864E-03    0.70       0.0  T
   2   -894.2333924 -0.935474E-05  0.579E-03    0.70       1.0  T
   3   -894.2333999 -0.744468E-05  0.326E-03    0.70       1.4  T
   4   -894.2333997  0.122065E-06  0.275E-03    0.70       1.7  T
   5   -894.2334080 -0.829521E-05  0.710E-04    0.70       6.6  T
   6   -894.2334086 -0.524353E-06  0.178E-04    0.70      26.3  T
   7   -894.2334086 -0.345788E-07  0.910E-05    0.70      51.3  T
     SCC iter.                  ...        0 min,  7.441 sec
     gradient                   ...        0 min,  1.176 sec
 * total energy  :  -881.3799215 Eh     change       -0.1894170E-01 Eh
   gradient norm :     0.0339081 Eh/α   predicted    -0.1917326E-01 (   1.22%)
   displ. norm   :     0.9395442 α      lambda       -0.2021480E-01
   maximum displ.:     0.3081824 α      in ANC's #109, #113, #65, ...

........................................................................
.............................. CYCLE   16 ..............................
........................................................................
   1   -894.2983955 -0.894298E+03  0.856E-03    0.70       0.0  T
   2   -894.2983975 -0.199361E-05  0.722E-03    0.71       1.0  T
   3   -894.2984268 -0.292796E-04  0.315E-03    0.70       1.5  T
   4   -894.2984226  0.417622E-05  0.293E-03    0.70       1.6  T
   5   -894.2984314 -0.875390E-05  0.811E-04    0.70       5.8  T
   6   -894.2984320 -0.655196E-06  0.288E-04    0.70      16.3  T
   7   -894.2984322 -0.115966E-06  0.855E-05    0.70      54.6  T
   8   -894.2984322 -0.712430E-08  0.291E-05    0.70     160.5  T
     SCC iter.                  ...        0 min,  8.497 sec
     gradient                   ...        0 min,  1.188 sec
 * total energy  :  -881.3962833 Eh     change       -0.1636182E-01 Eh
   gradient norm :     0.0324753 Eh/α   predicted    -0.1902965E-01 (  16.31%)
   displ. norm   :     0.8857964 α      lambda       -0.1785898E-01
   maximum displ.:     0.2900061 α      in ANC's #109, #64, #113, ...

........................................................................
.............................. CYCLE   17 ..............................
........................................................................
   1   -894.3600403 -0.894360E+03  0.856E-03    0.72       0.0  T
   2   -894.3600482 -0.795434E-05  0.668E-03    0.72       1.0  T
   3   -894.3600693 -0.211303E-04  0.303E-03    0.72       1.5  T
   4   -894.3600644  0.495206E-05  0.291E-03    0.72       1.6  T
   5   -894.3600748 -0.104305E-04  0.648E-04    0.72       7.2  T
   6   -894.3600751 -0.268922E-06  0.301E-04    0.72      15.5  T
   7   -894.3600752 -0.120135E-06  0.849E-05    0.72      55.0  T
   8   -894.3600752 -0.716386E-08  0.382E-05    0.72     122.4  T
     SCC iter.                  ...        0 min,  8.576 sec
     gradient                   ...        0 min,  1.192 sec
 * total energy  :  -881.4106653 Eh     change       -0.1438202E-01 Eh
   gradient norm :     0.0281369 Eh/α   predicted    -0.1593590E-01 (  10.80%)
   displ. norm   :     0.8914942 α      lambda       -0.1484243E-01
   maximum displ.:     0.3002417 α      in ANC's #109, #65, #88, ...

........................................................................
.............................. CYCLE   18 ..............................
........................................................................
   1   -894.4082344 -0.894408E+03  0.775E-03    0.72       0.0  T
   2   -894.4082329  0.147885E-05  0.684E-03    0.72       1.0  T
   3   -894.4082572 -0.243158E-04  0.276E-03    0.72       1.7  T
   4   -894.4082511  0.618256E-05  0.264E-03    0.72       1.8  T
   5   -894.4082593 -0.827980E-05  0.557E-04    0.72       8.4  T
   6   -894.4082596 -0.216007E-06  0.204E-04    0.72      22.9  T
   7   -894.4082596 -0.574795E-07  0.775E-05    0.72      60.3  T
   8   -894.4082596 -0.693205E-08  0.236E-05    0.72     198.2  T
     SCC iter.                  ...        0 min,  8.478 sec
     gradient                   ...        0 min,  1.201 sec
 * total energy  :  -881.4224342 Eh     change       -0.1176882E-01 Eh
   gradient norm :     0.0265256 Eh/α   predicted    -0.1331931E-01 (  13.17%)
   displ. norm   :     0.8825403 α      lambda       -0.1327137E-01
   maximum displ.:     0.2948308 α      in ANC's #109, #64, #65, ...

........................................................................
.............................. CYCLE   19 ..............................
........................................................................
   1   -894.4492288 -0.894449E+03  0.790E-03    0.71       0.0  T
   2   -894.4492394 -0.105870E-04  0.590E-03    0.71       1.0  T
   3   -894.4492562 -0.167804E-04  0.273E-03    0.71       1.7  T
   4   -894.4492529  0.328055E-05  0.254E-03    0.71       1.8  T
   5   -894.4492602 -0.730618E-05  0.638E-04    0.71       7.3  T
   6   -894.4492606 -0.395147E-06  0.219E-04    0.71      21.4  T
   7   -894.4492607 -0.573648E-07  0.104E-04    0.71      45.0  T
   8   -894.4492607 -0.141055E-07  0.322E-05    0.71     145.1  T
     SCC iter.                  ...        0 min,  8.613 sec
     gradient                   ...        0 min,  1.195 sec
 * total energy  :  -881.4320328 Eh     change       -0.9598672E-02 Eh
   gradient norm :     0.0319995 Eh/α   predicted    -0.1180410E-01 (  22.98%)
   displ. norm   :     0.8255369 α      lambda       -0.1144342E-01
   maximum displ.:     0.2614880 α      in ANC's #109, #65, #64, ...

........................................................................
.............................. CYCLE   20 ..............................
........................................................................
   1   -894.4970056 -0.894497E+03  0.748E-03    0.71       0.0  T
   2   -894.4970126 -0.696912E-05  0.618E-03    0.71       1.0  T
   3   -894.4970306 -0.180641E-04  0.290E-03    0.71       1.6  T
   4   -894.4970234  0.717302E-05  0.290E-03    0.71       1.6  T
   5   -894.4970338 -0.103285E-04  0.674E-04    0.71       6.9  T
   6   -894.4970342 -0.374955E-06  0.207E-04    0.71      22.6  T
   7   -894.4970342 -0.438321E-07  0.716E-05    0.71      65.3  T
   8   -894.4970342 -0.639363E-08  0.305E-05    0.71     153.3  T
     SCC iter.                  ...        0 min,  8.596 sec
     gradient                   ...        0 min,  1.199 sec
 * total energy  :  -881.4406666 Eh     change       -0.8633735E-02 Eh
   gradient norm :     0.0251929 Eh/α   predicted    -0.9621125E-02 (  11.44%)
   displ. norm   :     0.8331752 α      lambda       -0.9108308E-02
   maximum displ.:     0.2978562 α      in ANC's #65, #109, #64, ...
 * RMSD in coord.:     0.6323441 α      energy gain  -0.1423022E+01 Eh

generating ANC from model Hessian ...
Using Lindh-Hessian (1995)
 Shifting diagonal of input Hessian by    1.0002418934494838E-002
 Lowest  eigenvalues of input Hessian
    0.010000    0.010001    0.010002    0.010002    0.010002    0.000000
    0.000000    0.000000    0.000000    0.000000    0.000000    0.010002
    0.010003    0.010003    0.010003    0.010004    0.010006    0.010006
 Highest eigenvalues
    2.870489    2.871687    2.947465    2.947479    2.980816    2.980824


........................................................................
.............................. CYCLE   21 ..............................
........................................................................
   1   -894.5415758 -0.894542E+03  0.665E-03    0.72       0.0  T
   2   -894.5415855 -0.961501E-05  0.606E-03    0.72       1.0  T
   3   -894.5416050 -0.195707E-04  0.240E-03    0.72       1.9  T
   4   -894.5415999  0.514484E-05  0.227E-03    0.72       2.1  T
   5   -894.5416059 -0.603131E-05  0.417E-04    0.72      11.2  T
   6   -894.5416060 -0.978121E-07  0.176E-04    0.72      26.5  T
   7   -894.5416060 -0.403810E-07  0.766E-05    0.72      61.0  T
     SCC iter.                  ...        0 min,  7.547 sec
     gradient                   ...        0 min,  1.203 sec
 * total energy  :  -881.4479953 Eh     change       -0.7328768E-02 Eh
   gradient norm :     0.0208532 Eh/α   predicted     0.0000000E+00 (-100.00%)
   displ. norm   :     0.5109675 α      lambda       -0.4987140E-02
   maximum displ.:     0.2366304 α      in ANC's #75, #98, #88, ...

........................................................................
.............................. CYCLE   22 ..............................
........................................................................
   1   -894.5650308 -0.894565E+03  0.270E-03    0.72       0.0  T
   2   -894.5650327 -0.188548E-05  0.155E-03    0.72       3.0  T
   3   -894.5650332 -0.532563E-06  0.926E-04    0.72       5.0  T
   4   -894.5650332  0.233026E-07  0.570E-04    0.72       8.2  T
   5   -894.5650336 -0.358320E-06  0.162E-04    0.72      28.8  T
   6   -894.5650336 -0.291159E-07  0.475E-05    0.72      98.3  T
     SCC iter.                  ...        0 min,  6.440 sec
     gradient                   ...        0 min,  1.213 sec
 * total energy  :  -881.4522780 Eh     change       -0.4282643E-02 Eh
   gradient norm :     0.0137981 Eh/α   predicted    -0.3144626E-02 ( -26.57%)
   displ. norm   :     0.8665100 α      lambda       -0.7430521E-02
   maximum displ.:     0.4114271 α      in ANC's #75, #110, #98, ...

........................................................................
.............................. CYCLE   23 ..............................
........................................................................
   1   -894.5976666 -0.894598E+03  0.418E-03    0.71       0.0  T
   2   -894.5976716 -0.500975E-05  0.242E-03    0.71       1.9  T
   3   -894.5976730 -0.138567E-05  0.137E-03    0.71       3.4  T
   4   -894.5976726  0.397530E-06  0.942E-04    0.71       5.0  T
   5   -894.5976735 -0.959533E-06  0.276E-04    0.71      16.9  T
   6   -894.5976736 -0.806502E-07  0.901E-05    0.71      51.9  T
   7   -894.5976736 -0.113042E-07  0.371E-05    0.71     125.8  T
     SCC iter.                  ...        0 min,  7.450 sec
     gradient                   ...        0 min,  1.190 sec
 * total energy  :  -881.4584624 Eh     change       -0.6184444E-02 Eh
   gradient norm :     0.0167935 Eh/α   predicted    -0.6504830E-02 (   5.18%)
   displ. norm   :     0.8729580 α      lambda       -0.6659637E-02
   maximum displ.:     0.4021863 α      in ANC's #75, #88, #110, ...

........................................................................
.............................. CYCLE   24 ..............................
........................................................................
   1   -894.6147190 -0.894615E+03  0.295E-03    0.71       0.0  T
   2   -894.6147212 -0.225648E-05  0.192E-03    0.71       2.4  T
   3   -894.6147229 -0.162541E-05  0.979E-04    0.71       4.8  T
   4   -894.6147228  0.690728E-07  0.707E-04    0.71       6.6  T
   5   -894.6147232 -0.379970E-06  0.240E-04    0.71      19.5  T
   6   -894.6147233 -0.938342E-07  0.840E-05    0.71      55.7  T
   7   -894.6147233 -0.879641E-08  0.352E-05    0.71     132.9  T
     SCC iter.                  ...        0 min,  7.470 sec
     gradient                   ...        0 min,  1.178 sec
 * total energy  :  -881.4640806 Eh     change       -0.5618226E-02 Eh
   gradient norm :     0.0192457 Eh/α   predicted    -0.5867326E-02 (   4.43%)
   displ. norm   :     0.8746315 α      lambda       -0.6143447E-02
   maximum displ.:     0.4151114 α      in ANC's #75, #88, #98, ...

........................................................................
.............................. CYCLE   25 ..............................
........................................................................
   1   -894.6221071 -0.894622E+03  0.326E-03    0.71       0.0  T
   2   -894.6221093 -0.213201E-05  0.259E-03    0.71       1.8  T
   3   -894.6221126 -0.337792E-05  0.101E-03    0.71       4.6  T
   4   -894.6221120  0.670259E-06  0.896E-04    0.71       5.2  T
   5   -894.6221129 -0.912826E-06  0.216E-04    0.71      21.7  T
   6   -894.6221129 -0.459813E-07  0.904E-05    0.71      51.7  T
   7   -894.6221129 -0.915747E-08  0.374E-05    0.71     125.1  T
     SCC iter.                  ...        0 min,  7.440 sec
     gradient                   ...        0 min,  1.194 sec
 * total energy  :  -881.4690336 Eh     change       -0.4952923E-02 Eh
   gradient norm :     0.0189479 Eh/α   predicted    -0.5421539E-02 (   9.46%)
   displ. norm   :     0.8532717 α      lambda       -0.5464461E-02
   maximum displ.:     0.4153339 α      in ANC's #75, #88, #63, ...

........................................................................
.............................. CYCLE   26 ..............................
........................................................................
   1   -894.6314750 -0.894631E+03  0.305E-03    0.72       0.0  T
   2   -894.6314776 -0.264116E-05  0.206E-03    0.72       2.3  T
   3   -894.6314793 -0.172562E-05  0.877E-04    0.72       5.3  T
   4   -894.6314792  0.177208E-06  0.608E-04    0.72       7.7  T
   5   -894.6314794 -0.264933E-06  0.226E-04    0.72      20.7  T
   6   -894.6314795 -0.802551E-07  0.802E-05    0.72      58.2  T
   7   -894.6314795 -0.690216E-08  0.310E-05    0.72     150.5  T
     SCC iter.                  ...        0 min,  7.430 sec
     gradient                   ...        0 min,  1.175 sec
 * total energy  :  -881.4734908 Eh     change       -0.4457266E-02 Eh
   gradient norm :     0.0140376 Eh/α   predicted    -0.4721495E-02 (   5.93%)
   displ. norm   :     0.8518751 α      lambda       -0.5052162E-02
   maximum displ.:     0.4103869 α      in ANC's #75, #88, #92, ...

........................................................................
.............................. CYCLE   27 ..............................
........................................................................
   1   -894.6479658 -0.894648E+03  0.281E-03    0.72       0.0  T
   2   -894.6479687 -0.287192E-05  0.160E-03    0.72       2.9  T
   3   -894.6479698 -0.107027E-05  0.845E-04    0.72       5.5  T
   4   -894.6479697  0.515290E-07  0.528E-04    0.72       8.9  T
   5   -894.6479700 -0.246152E-06  0.218E-04    0.72      21.4  T
   6   -894.6479700 -0.465621E-07  0.726E-05    0.72      64.3  T
   7   -894.6479700 -0.562159E-08  0.325E-05    0.72     143.7  T
     SCC iter.                  ...        0 min,  7.520 sec
     gradient                   ...        0 min,  1.180 sec
 * total energy  :  -881.4774056 Eh     change       -0.3914762E-02 Eh
   gradient norm :     0.0145480 Eh/α   predicted    -0.4359237E-02 (  11.35%)
   displ. norm   :     0.8322037 α      lambda       -0.4457902E-02
   maximum displ.:     0.4174615 α      in ANC's #75, #88, #92, ...

........................................................................
.............................. CYCLE   28 ..............................
........................................................................
   1   -894.6611464 -0.894661E+03  0.259E-03    0.72       0.0  T
   2   -894.6611488 -0.239115E-05  0.133E-03    0.72       3.5  T
   3   -894.6611494 -0.625552E-06  0.716E-04    0.72       6.5  T
   4   -894.6611494  0.120629E-07  0.447E-04    0.72      10.4  T
   5   -894.6611495 -0.116421E-06  0.186E-04    0.72      25.2  T
   6   -894.6611495 -0.463392E-07  0.651E-05    0.72      71.8  T
     SCC iter.                  ...        0 min,  6.459 sec
     gradient                   ...        0 min,  1.204 sec
 * total energy  :  -881.4810284 Eh     change       -0.3622789E-02 Eh
   gradient norm :     0.0114383 Eh/α   predicted    -0.3772643E-02 (   4.14%)
   displ. norm   :     0.8544242 α      lambda       -0.3970037E-02
   maximum displ.:     0.4170107 α      in ANC's #75, #88, #63, ...

........................................................................
.............................. CYCLE   29 ..............................
........................................................................
   1   -894.6683733 -0.894668E+03  0.223E-03    0.72       0.0  T
   2   -894.6683749 -0.156459E-05  0.125E-03    0.72       3.7  T
   3   -894.6683755 -0.665397E-06  0.692E-04    0.72       6.8  T
   4   -894.6683756 -0.661713E-07  0.435E-04    0.72      10.7  T
   5   -894.6683757 -0.108971E-06  0.192E-04    0.72      24.3  T
   6   -894.6683758 -0.503122E-07  0.545E-05    0.72      85.7  T
     SCC iter.                  ...        0 min,  6.502 sec
     gradient                   ...        0 min,  1.200 sec
 * total energy  :  -881.4843606 Eh     change       -0.3332188E-02 Eh
   gradient norm :     0.0109509 Eh/α   predicted    -0.3434170E-02 (   3.06%)
   displ. norm   :     0.8686549 α      lambda       -0.3721733E-02
   maximum displ.:     0.4163687 α      in ANC's #75, #88, #92, ...

........................................................................
.............................. CYCLE   30 ..............................
........................................................................
   1   -894.6729250 -0.894673E+03  0.249E-03    0.72       0.0  T
   2   -894.6729272 -0.224952E-05  0.143E-03    0.72       3.3  T
   3   -894.6729280 -0.785077E-06  0.775E-04    0.72       6.0  T
   4   -894.6729279  0.528385E-07  0.514E-04    0.72       9.1  T
   5   -894.6729281 -0.178743E-06  0.214E-04    0.72      21.8  T
   6   -894.6729282 -0.641352E-07  0.631E-05    0.72      74.0  T
   7   -894.6729282 -0.322689E-08  0.272E-05    0.72     171.9  T
     SCC iter.                  ...        0 min,  7.577 sec
     gradient                   ...        0 min,  1.210 sec
 * total energy  :  -881.4870940 Eh     change       -0.2733392E-02 Eh
   gradient norm :     0.0126836 Eh/α   predicted    -0.3265009E-02 (  19.45%)
   displ. norm   :     0.8057491 α      lambda       -0.3536576E-02
   maximum displ.:     0.3837822 α      in ANC's #75, #88, #92, ...

........................................................................
.............................. CYCLE   31 ..............................
........................................................................
   1   -894.6785278 -0.894679E+03  0.200E-03    0.73       0.0  T
   2   -894.6785292 -0.145284E-05  0.122E-03    0.73       3.8  T
   3   -894.6785298 -0.568682E-06  0.655E-04    0.73       7.1  T
   4   -894.6785298  0.347247E-07  0.442E-04    0.73      10.6  T
   5   -894.6785299 -0.132668E-06  0.177E-04    0.73      26.3  T
   6   -894.6785299 -0.422982E-07  0.545E-05    0.73      85.7  T
     SCC iter.                  ...        0 min,  6.388 sec
     gradient                   ...        0 min,  1.191 sec
 * total energy  :  -881.4900185 Eh     change       -0.2924504E-02 Eh
   gradient norm :     0.0083744 Eh/α   predicted    -0.2916315E-02 (  -0.28%)
   displ. norm   :     0.8726603 α      lambda       -0.2799302E-02
   maximum displ.:     0.4021684 α      in ANC's #75, #88, #92, ...

........................................................................
.............................. CYCLE   32 ..............................
........................................................................
   1   -894.6793821 -0.894679E+03  0.200E-03    0.73       0.0  T
   2   -894.6793834 -0.132783E-05  0.121E-03    0.73       3.9  T
   3   -894.6793842 -0.750161E-06  0.673E-04    0.73       6.9  T
   4   -894.6793843 -0.105955E-06  0.430E-04    0.73      10.9  T
   5   -894.6793844 -0.136643E-06  0.147E-04    0.73      31.8  T
   6   -894.6793844 -0.227351E-07  0.479E-05    0.73      97.5  T
     SCC iter.                  ...        0 min,  6.378 sec
     gradient                   ...        0 min,  1.187 sec
 * total energy  :  -881.4924674 Eh     change       -0.2448879E-02 Eh
   gradient norm :     0.0074968 Eh/α   predicted    -0.2465536E-02 (   0.68%)
   displ. norm   :     0.8870591 α      lambda       -0.2716250E-02
   maximum displ.:     0.3933885 α      in ANC's #75, #88, #92, ...

........................................................................
.............................. CYCLE   33 ..............................
........................................................................
   1   -894.6795775 -0.894680E+03  0.202E-03    0.73       0.0  T
   2   -894.6795790 -0.148672E-05  0.119E-03    0.73       3.9  T
   3   -894.6795796 -0.648222E-06  0.675E-04    0.73       6.9  T
   4   -894.6795797 -0.846624E-07  0.412E-04    0.73      11.3  T
   5   -894.6795798 -0.104757E-06  0.171E-04    0.73      27.3  T
   6   -894.6795799 -0.348159E-07  0.563E-05    0.73      83.0  T
     SCC iter.                  ...        0 min,  6.422 sec
     gradient                   ...        0 min,  1.175 sec
 * total energy  :  -881.4947081 Eh     change       -0.2240706E-02 Eh
   gradient norm :     0.0071317 Eh/α   predicted    -0.2426798E-02 (   8.31%)
   displ. norm   :     0.8551865 α      lambda       -0.2278371E-02
   maximum displ.:     0.3673652 α      in ANC's #88, #75, #92, ...

........................................................................
.............................. CYCLE   34 ..............................
........................................................................
   1   -894.6788660 -0.894679E+03  0.186E-03    0.73       0.0  T
   2   -894.6788671 -0.107866E-05  0.113E-03    0.73       4.2  T
   3   -894.6788678 -0.643277E-06  0.626E-04    0.73       7.5  T
   4   -894.6788679 -0.791098E-07  0.362E-04    0.73      12.9  T
   5   -894.6788679 -0.850052E-07  0.163E-04    0.73      28.7  T
   6   -894.6788680 -0.280527E-07  0.528E-05    0.73      88.5  T
     SCC iter.                  ...        0 min,  6.349 sec
     gradient                   ...        0 min,  1.188 sec
 * total energy  :  -881.4965757 Eh     change       -0.1867613E-02 Eh
   gradient norm :     0.0079373 Eh/α   predicted    -0.1972326E-02 (   5.61%)
   displ. norm   :     0.8366716 α      lambda       -0.2251649E-02
   maximum displ.:     0.3544975 α      in ANC's #88, #75, #92, ...

........................................................................
.............................. CYCLE   35 ..............................
........................................................................
   1   -894.6801340 -0.894680E+03  0.189E-03    0.73       0.0  T
   2   -894.6801353 -0.132554E-05  0.132E-03    0.73       3.5  T
   3   -894.6801364 -0.109919E-05  0.592E-04    0.73       7.9  T
   4   -894.6801365 -0.116886E-07  0.411E-04    0.73      11.4  T
   5   -894.6801366 -0.135724E-06  0.177E-04    0.73      26.3  T
   6   -894.6801366 -0.345092E-07  0.613E-05    0.73      76.2  T
     SCC iter.                  ...        0 min,  6.408 sec
     gradient                   ...        0 min,  1.171 sec
 * total energy  :  -881.4980927 Eh     change       -0.1517028E-02 Eh
   gradient norm :     0.0090855 Eh/α   predicted    -0.1913927E-02 (  26.16%)
   displ. norm   :     0.7565602 α      lambda       -0.1841607E-02
   maximum displ.:     0.3111178 α      in ANC's #88, #75, #92, ...

........................................................................
.............................. CYCLE   36 ..............................
........................................................................
   1   -894.6809928 -0.894681E+03  0.163E-03    0.73       0.0  T
   2   -894.6809938 -0.101583E-05  0.108E-03    0.73       4.3  T
   3   -894.6809944 -0.587853E-06  0.539E-04    0.73       8.7  T
   4   -894.6809944 -0.456077E-08  0.343E-04    0.73      13.6  T
   5   -894.6809945 -0.810411E-07  0.142E-04    0.73      32.8  T
   6   -894.6809945 -0.267981E-07  0.505E-05    0.73      92.5  T
     SCC iter.                  ...        0 min,  6.389 sec
     gradient                   ...        0 min,  1.208 sec
 * total energy  :  -881.4994657 Eh     change       -0.1372988E-02 Eh
   gradient norm :     0.0079681 Eh/α   predicted    -0.1447858E-02 (   5.45%)
   displ. norm   :     0.7645867 α      lambda       -0.1493770E-02
   maximum displ.:     0.3052010 α      in ANC's #88, #75, #40, ...

........................................................................
.............................. CYCLE   37 ..............................
........................................................................
   1   -894.6806224 -0.894681E+03  0.249E-03    0.73       0.0  T
   2   -894.6806264 -0.398674E-05  0.149E-03    0.73       3.1  T
   3   -894.6806274 -0.998327E-06  0.616E-04    0.73       7.6  T
   4   -894.6806273  0.754557E-07  0.454E-04    0.73      10.3  T
   5   -894.6806274 -0.112030E-06  0.183E-04    0.73      25.5  T
   6   -894.6806275 -0.343814E-07  0.663E-05    0.73      70.5  T
     SCC iter.                  ...        0 min,  6.426 sec
     gradient                   ...        0 min,  1.201 sec
 * total energy  :  -881.5005951 Eh     change       -0.1129444E-02 Eh
   gradient norm :     0.0077795 Eh/α   predicted    -0.1183508E-02 (   4.79%)
   displ. norm   :     0.7538725 α      lambda       -0.1178131E-02
   maximum displ.:     0.2792811 α      in ANC's #88, #40, #75, ...

........................................................................
.............................. CYCLE   38 ..............................
........................................................................
   1   -894.6840093 -0.894684E+03  0.247E-03    0.73       0.0  T
   2   -894.6840128 -0.351816E-05  0.147E-03    0.73       3.2  T
   3   -894.6840139 -0.112739E-05  0.621E-04    0.73       7.5  T
   4   -894.6840139  0.556133E-07  0.497E-04    0.73       9.4  T
   5   -894.6840141 -0.209868E-06  0.202E-04    0.73      23.2  T
   6   -894.6840141 -0.422168E-07  0.692E-05    0.73      67.5  T
   7   -894.6840141 -0.370073E-08  0.215E-05    0.73     217.5  T
     SCC iter.                  ...        0 min,  7.566 sec
     gradient                   ...        0 min,  1.210 sec
 * total energy  :  -881.5015508 Eh     change       -0.9556858E-03 Eh
   gradient norm :     0.0057361 Eh/α   predicted    -0.9238503E-03 (  -3.33%)
   displ. norm   :     0.7430460 α      lambda       -0.1093471E-02
   maximum displ.:     0.2851583 α      in ANC's #40, #29, #88, ...

........................................................................
.............................. CYCLE   39 ..............................
........................................................................
   1   -894.6933324 -0.894693E+03  0.230E-03    0.73       0.0  T
   2   -894.6933356 -0.317087E-05  0.130E-03    0.73       3.6  T
   3   -894.6933363 -0.679721E-06  0.546E-04    0.73       8.6  T
   4   -894.6933362  0.391771E-07  0.399E-04    0.73      11.7  T
   5   -894.6933363 -0.581636E-07  0.169E-04    0.73      27.6  T
   6   -894.6933363 -0.244667E-07  0.618E-05    0.73      75.6  T
     SCC iter.                  ...        0 min,  6.471 sec
     gradient                   ...        0 min,  1.207 sec
 * total energy  :  -881.5023797 Eh     change       -0.8289201E-03 Eh
   gradient norm :     0.0059050 Eh/α   predicted    -0.8486014E-03 (   2.37%)
   displ. norm   :     0.6958445 α      lambda       -0.8510003E-03
   maximum displ.:     0.2903085 α      in ANC's #40, #29, #43, ...

........................................................................
.............................. CYCLE   40 ..............................
........................................................................
   1   -894.7003503 -0.894700E+03  0.156E-03    0.73       0.0  T
   2   -894.7003514 -0.109938E-05  0.969E-04    0.73       4.8  T
   3   -894.7003518 -0.360065E-06  0.503E-04    0.73       9.3  T
   4   -894.7003517  0.570724E-07  0.432E-04    0.73      10.8  T
   5   -894.7003519 -0.187867E-06  0.132E-04    0.73      35.3  T
   6   -894.7003519 -0.146617E-07  0.409E-05    0.73     114.2  T
     SCC iter.                  ...        0 min,  6.495 sec
     gradient                   ...        0 min,  1.193 sec
 * total energy  :  -881.5031091 Eh     change       -0.7293909E-03 Eh
   gradient norm :     0.0056838 Eh/α   predicted    -0.6315287E-03 ( -13.42%)
   displ. norm   :     0.6996181 α      lambda       -0.8025894E-03
   maximum displ.:     0.3218435 α      in ANC's #29, #40, #43, ...

........................................................................
.............................. CYCLE   41 ..............................
........................................................................
   1   -894.7011286 -0.894701E+03  0.144E-03    0.73       0.0  T
   2   -894.7011294 -0.815098E-06  0.844E-04    0.73       5.5  T
   3   -894.7011298 -0.330254E-06  0.450E-04    0.73      10.4  T
   4   -894.7011298 -0.231441E-07  0.339E-04    0.73      13.8  T
   5   -894.7011299 -0.968655E-07  0.130E-04    0.73      36.0  T
   6   -894.7011299 -0.166149E-07  0.403E-05    0.73     115.9  T
     SCC iter.                  ...        0 min,  6.342 sec
     gradient                   ...        0 min,  1.183 sec
 * total energy  :  -881.5037397 Eh     change       -0.6306165E-03 Eh
   gradient norm :     0.0068018 Eh/α   predicted    -0.5977172E-03 (  -5.22%)
   displ. norm   :     0.7053086 α      lambda       -0.9736227E-03
   maximum displ.:     0.3469241 α      in ANC's #29, #40, #43, ...

........................................................................
.............................. CYCLE   42 ..............................
........................................................................
   1   -894.7003130 -0.894700E+03  0.157E-03    0.73       0.0  T
   2   -894.7003138 -0.839575E-06  0.938E-04    0.73       5.0  T
   3   -894.7003143 -0.460311E-06  0.463E-04    0.73      10.1  T
   4   -894.7003143 -0.262909E-07  0.324E-04    0.73      14.4  T
   5   -894.7003144 -0.589042E-07  0.137E-04    0.73      34.0  T
   6   -894.7003144 -0.225751E-07  0.453E-05    0.73     103.2  T
     SCC iter.                  ...        0 min,  6.422 sec
     gradient                   ...        0 min,  1.205 sec
 * total energy  :  -881.5043990 Eh     change       -0.6592905E-03 Eh
   gradient norm :     0.0077524 Eh/α   predicted    -0.7289817E-03 (  10.57%)
   displ. norm   :     0.6337682 α      lambda       -0.7687164E-03
   maximum displ.:     0.3249390 α      in ANC's #29, #40, #43, ...
 * RMSD in coord.:     0.7220779 α      energy gain  -0.6373247E-01 Eh

generating ANC from model Hessian ...
Using Lindh-Hessian (1995)
 Shifting diagonal of input Hessian by    1.0004342750812533E-002
 Lowest  eigenvalues of input Hessian
    0.010000    0.010001    0.010001    0.010002    0.010003    0.010004
    0.010004    0.010004    0.010004    0.000000    0.000000    0.000000
    0.000000    0.000000    0.000000    0.010004    0.010005    0.010006
 Highest eigenvalues
    2.957250    2.957297    2.961277    2.961399    2.968686    2.969097


........................................................................
.............................. CYCLE   43 ..............................
........................................................................
   1   -894.7059822 -0.894706E+03  0.212E-03    0.73       0.0  T
   2   -894.7059840 -0.186641E-05  0.109E-03    0.73       4.3  T
   3   -894.7059844 -0.430139E-06  0.557E-04    0.73       8.4  T
   4   -894.7059844  0.681596E-07  0.383E-04    0.73      12.2  T
   5   -894.7059845 -0.120382E-06  0.155E-04    0.73      30.2  T
   6   -894.7059845 -0.308067E-07  0.513E-05    0.73      91.2  T
     SCC iter.                  ...        0 min,  6.368 sec
     gradient                   ...        0 min,  1.181 sec
 * total energy  :  -881.5050399 Eh     change       -0.6408484E-03 Eh
   gradient norm :     0.0074277 Eh/α   predicted     0.0000000E+00 (-100.00%)
   displ. norm   :     0.1278527 α      lambda       -0.3085006E-03
   maximum displ.:     0.0568074 α      in ANC's #29, #40, #30, ...

........................................................................
.............................. CYCLE   44 ..............................
........................................................................
   1   -894.7039923 -0.894704E+03  0.127E-03    0.73       0.0  T
   2   -894.7039933 -0.917008E-06  0.759E-04    0.73       6.2  T
   3   -894.7039935 -0.208292E-06  0.353E-04    0.73      13.2  T
   4   -894.7039934  0.623223E-07  0.283E-04    0.73      16.5  T
   5   -894.7039935 -0.753216E-07  0.849E-05    0.73      55.0  T
   6   -894.7039935 -0.643615E-08  0.265E-05    0.73     176.3  T
     SCC iter.                  ...        0 min,  6.458 sec
     gradient                   ...        0 min,  1.200 sec
 * total energy  :  -881.5052090 Eh     change       -0.1691641E-03 Eh
   gradient norm :     0.0061539 Eh/α   predicted    -0.1567726E-03 (  -7.33%)
   displ. norm   :     0.3075058 α      lambda       -0.5512852E-03
   maximum displ.:     0.1381513 α      in ANC's #29, #40, #30, ...

........................................................................
.............................. CYCLE   45 ..............................
........................................................................
   1   -894.6995529 -0.894700E+03  0.270E-03    0.73       0.0  T
   2   -894.6995568 -0.399001E-05  0.162E-03    0.73       2.9  T
   3   -894.6995579 -0.109489E-05  0.763E-04    0.73       6.1  T
   4   -894.6995577  0.228316E-06  0.626E-04    0.73       7.5  T
   5   -894.6995581 -0.370232E-06  0.182E-04    0.73      25.7  T
   6   -894.6995581 -0.263897E-07  0.578E-05    0.73      80.9  T
     SCC iter.                  ...        0 min,  6.349 sec
     gradient                   ...        0 min,  1.203 sec
 * total energy  :  -881.5055306 Eh     change       -0.3215565E-03 Eh
   gradient norm :     0.0080677 Eh/α   predicted    -0.3017200E-03 (  -6.17%)
   displ. norm   :     0.4454139 α      lambda       -0.7327079E-03
   maximum displ.:     0.2010228 α      in ANC's #29, #40, #30, ...

........................................................................
.............................. CYCLE   46 ..............................
........................................................................
   1   -894.6950198 -0.894695E+03  0.242E-03    0.73       0.0  T
   2   -894.6950224 -0.255686E-05  0.143E-03    0.73       3.3  T
   3   -894.6950236 -0.120330E-05  0.722E-04    0.73       6.5  T
   4   -894.6950237 -0.180396E-06  0.490E-04    0.73       9.5  T
   5   -894.6950239 -0.137412E-06  0.185E-04    0.73      25.3  T
   6   -894.6950239 -0.286724E-07  0.634E-05    0.73      73.7  T
     SCC iter.                  ...        0 min,  6.479 sec
     gradient                   ...        0 min,  1.202 sec
 * total energy  :  -881.5057432 Eh     change       -0.2126067E-03 Eh
   gradient norm :     0.0142417 Eh/α   predicted    -0.4390390E-03 ( 106.50%)
   displ. norm   :     0.2506588 α      lambda       -0.6218399E-03
   maximum displ.:     0.1179084 α      in ANC's #29, #40, #30, ...

........................................................................
.............................. CYCLE   47 ..............................
........................................................................
   1   -894.6986100 -0.894699E+03  0.156E-03    0.73       0.0  T
   2   -894.6986111 -0.110581E-05  0.951E-04    0.73       4.9  T
   3   -894.6986114 -0.250294E-06  0.463E-04    0.73      10.1  T
   4   -894.6986113  0.130061E-06  0.340E-04    0.73      13.8  T
   5   -894.6986114 -0.139039E-06  0.110E-04    0.73      42.6  T
   6   -894.6986114 -0.147199E-07  0.326E-05    0.73     143.4  T
     SCC iter.                  ...        0 min,  6.502 sec
     gradient                   ...        0 min,  1.205 sec
 * total energy  :  -881.5061553 Eh     change       -0.4121334E-03 Eh
   gradient norm :     0.0088890 Eh/α   predicted    -0.3304561E-03 ( -19.82%)
   displ. norm   :     0.4126704 α      lambda       -0.8205741E-03
   maximum displ.:     0.1954403 α      in ANC's #29, #40, #30, ...

........................................................................
.............................. CYCLE   48 ..............................
........................................................................
   1   -894.7062314 -0.894706E+03  0.336E-03    0.73       0.0  T
   2   -894.7062375 -0.602662E-05  0.210E-03    0.73       2.2  T
   3   -894.7062388 -0.139011E-05  0.101E-03    0.73       4.6  T
   4   -894.7062380  0.877717E-06  0.846E-04    0.73       5.5  T
   5   -894.7062389 -0.977213E-06  0.224E-04    0.73      20.9  T
   6   -894.7062390 -0.500465E-07  0.621E-05    0.73      75.2  T
   7   -894.7062390 -0.325736E-08  0.261E-05    0.73     179.1  T
     SCC iter.                  ...        0 min,  7.565 sec
     gradient                   ...        0 min,  1.214 sec
 * total energy  :  -881.5061986 Eh     change       -0.4324317E-04 Eh
   gradient norm :     0.0123748 Eh/α   predicted    -0.4801591E-03 (1010.37%)
   displ. norm   :     0.2620260 α      lambda       -0.8515416E-03
   maximum displ.:     0.1250321 α      in ANC's #29, #40, #30, ...

........................................................................
.............................. CYCLE   49 ..............................
........................................................................
   1   -894.7080882 -0.894708E+03  0.786E-04    0.73       0.0  T
   2   -894.7080885 -0.222142E-06  0.520E-04    0.73       9.0  T
   3   -894.7080886 -0.127362E-06  0.221E-04    0.73      21.1  T
   4   -894.7080886  0.206034E-07  0.186E-04    0.73      25.2  T
   5   -894.7080886 -0.356312E-07  0.681E-05    0.73      68.6  T
     SCC iter.                  ...        0 min,  5.430 sec
     gradient                   ...        0 min,  1.210 sec
 * total energy  :  -881.5067209 Eh     change       -0.5223577E-03 Eh
   gradient norm :     0.0067660 Eh/α   predicted    -0.4550078E-03 ( -12.89%)
   displ. norm   :     0.4010206 α      lambda       -0.5803833E-03
   maximum displ.:     0.1957114 α      in ANC's #29, #40, #30, ...

........................................................................
.............................. CYCLE   50 ..............................
........................................................................
   1   -894.7077344 -0.894708E+03  0.116E-03    0.73       0.0  T
   2   -894.7077348 -0.448976E-06  0.718E-04    0.73       6.5  T
   3   -894.7077350 -0.209836E-06  0.365E-04    0.73      12.8  T
   4   -894.7077350  0.135612E-07  0.274E-04    0.73      17.0  T
   5   -894.7077351 -0.750357E-07  0.866E-05    0.73      53.9  T
   6   -894.7077351 -0.523698E-08  0.366E-05    0.73     127.6  T
     SCC iter.                  ...        0 min,  6.377 sec
     gradient                   ...        0 min,  1.185 sec
 * total energy  :  -881.5067631 Eh     change       -0.4212009E-04 Eh
   gradient norm :     0.0086240 Eh/α   predicted    -0.3368586E-03 ( 699.76%)
   displ. norm   :     0.3239623 α      lambda       -0.7855432E-03
   maximum displ.:     0.1612527 α      in ANC's #29, #40, #30, ...

........................................................................
.............................. CYCLE   51 ..............................
........................................................................
   1   -894.7104935 -0.894710E+03  0.708E-04    0.73       0.0  T
   2   -894.7104936 -0.112167E-06  0.505E-04    0.73       9.3  T
   3   -894.7104937 -0.113557E-06  0.251E-04    0.73      18.6  T
   4   -894.7104937 -0.855721E-09  0.190E-04    0.73      24.6  T
   5   -894.7104937 -0.334999E-07  0.606E-05    0.73      77.1  T
     SCC iter.                  ...        0 min,  5.290 sec
     gradient                   ...        0 min,  1.178 sec
 * total energy  :  -881.5072660 Eh     change       -0.5029260E-03 Eh
   gradient norm :     0.0051430 Eh/α   predicted    -0.4339933E-03 ( -13.71%)
   displ. norm   :     0.4669166 α      lambda       -0.5688498E-03
   maximum displ.:     0.2405271 α      in ANC's #29, #40, #30, ...

........................................................................
.............................. CYCLE   52 ..............................
........................................................................
   1   -894.7146449 -0.894715E+03  0.103E-03    0.73       0.0  T
   2   -894.7146453 -0.383044E-06  0.680E-04    0.73       6.9  T
   3   -894.7146456 -0.320835E-06  0.339E-04    0.73      13.8  T
   4   -894.7146457 -0.491254E-07  0.226E-04    0.73      20.6  T
   5   -894.7146457 -0.366489E-07  0.856E-05    0.73      54.6  T
   6   -894.7146457 -0.298712E-08  0.353E-05    0.73     132.2  T
     SCC iter.                  ...        0 min,  6.433 sec
     gradient                   ...        0 min,  1.201 sec
 * total energy  :  -881.5075488 Eh     change       -0.2827868E-03 Eh
   gradient norm :     0.0060918 Eh/α   predicted    -0.3464368E-03 (  22.51%)
   displ. norm   :     0.5084197 α      lambda       -0.5654595E-03
   maximum displ.:     0.2634551 α      in ANC's #29, #40, #30, ...

........................................................................
.............................. CYCLE   53 ..............................
........................................................................
   1   -894.7185730 -0.894719E+03  0.845E-04    0.73       0.0  T
   2   -894.7185733 -0.230912E-06  0.565E-04    0.73       8.3  T
   3   -894.7185735 -0.200410E-06  0.277E-04    0.73      16.8  T
   4   -894.7185735 -0.221182E-07  0.203E-04    0.73      23.0  T
   5   -894.7185735 -0.332325E-07  0.674E-05    0.73      69.3  T
   6   -894.7185735 -0.291902E-08  0.312E-05    0.73     149.5  T
     SCC iter.                  ...        0 min,  6.358 sec
     gradient                   ...        0 min,  1.200 sec
 * total energy  :  -881.5079770 Eh     change       -0.4282632E-03 Eh
   gradient norm :     0.0055122 Eh/α   predicted    -0.3558140E-03 ( -16.92%)
   displ. norm   :     0.6230882 α      lambda       -0.5798675E-03
   maximum displ.:     0.3287823 α      in ANC's #29, #40, #30, ...

........................................................................
.............................. CYCLE   54 ..............................
........................................................................
   1   -894.7212745 -0.894721E+03  0.112E-03    0.73       0.0  T
   2   -894.7212749 -0.461073E-06  0.706E-04    0.73       6.6  T
   3   -894.7212752 -0.277911E-06  0.343E-04    0.73      13.6  T
   4   -894.7212752 -0.101727E-07  0.253E-04    0.73      18.5  T
   5   -894.7212753 -0.543589E-07  0.810E-05    0.73      57.7  T
   6   -894.7212753 -0.658281E-08  0.314E-05    0.73     149.0  T
     SCC iter.                  ...        0 min,  6.393 sec
     gradient                   ...        0 min,  1.209 sec
 * total energy  :  -881.5084223 Eh     change       -0.4453059E-03 Eh
   gradient norm :     0.0048526 Eh/α   predicted    -0.4024967E-03 (  -9.61%)
   displ. norm   :     0.6922612 α      lambda       -0.5532681E-03
   maximum displ.:     0.3711519 α      in ANC's #29, #40, #30, ...

........................................................................
.............................. CYCLE   55 ..............................
........................................................................
   1   -894.7238457 -0.894724E+03  0.113E-03    0.73       0.0  T
   2   -894.7238463 -0.578185E-06  0.706E-04    0.73       6.6  T
   3   -894.7238466 -0.314149E-06  0.309E-04    0.73      15.1  T
   4   -894.7238466 -0.837645E-08  0.221E-04    0.73      21.2  T
   5   -894.7238466 -0.367820E-07  0.814E-05    0.73      57.4  T
   6   -894.7238466 -0.676982E-08  0.259E-05    0.73     180.6  T
     SCC iter.                  ...        0 min,  6.378 sec
     gradient                   ...        0 min,  1.213 sec
 * total energy  :  -881.5088243 Eh     change       -0.4019291E-03 Eh
   gradient norm :     0.0055070 Eh/α   predicted    -0.4092041E-03 (   1.81%)
   displ. norm   :     0.6710780 α      lambda       -0.5597172E-03
   maximum displ.:     0.3620332 α      in ANC's #29, #40, #30, ...

........................................................................
.............................. CYCLE   56 ..............................
........................................................................
   1   -894.7272541 -0.894727E+03  0.908E-04    0.73       0.0  T
   2   -894.7272544 -0.283084E-06  0.546E-04    0.73       8.6  T
   3   -894.7272546 -0.158124E-06  0.279E-04    0.73      16.8  T
   4   -894.7272546 -0.203056E-07  0.180E-04    0.73      25.9  T
   5   -894.7272546 -0.198402E-07  0.699E-05    0.73      66.9  T
     SCC iter.                  ...        0 min,  5.357 sec
     gradient                   ...        0 min,  1.213 sec
 * total energy  :  -881.5092683 Eh     change       -0.4440325E-03 Eh
   gradient norm :     0.0047694 Eh/α   predicted    -0.4058934E-03 (  -8.59%)
   displ. norm   :     0.6937335 α      lambda       -0.4920603E-03
   maximum displ.:     0.3803173 α      in ANC's #29, #40, #30, ...

........................................................................
.............................. CYCLE   57 ..............................
........................................................................
   1   -894.7309952 -0.894731E+03  0.122E-03    0.73       0.0  T
   2   -894.7309960 -0.767532E-06  0.720E-04    0.73       6.5  T
   3   -894.7309962 -0.258592E-06  0.301E-04    0.73      15.5  T
   4   -894.7309962  0.901287E-08  0.238E-04    0.73      19.6  T
   5   -894.7309963 -0.376041E-07  0.835E-05    0.73      55.9  T
   6   -894.7309963 -0.618172E-08  0.267E-05    0.73     175.3  T
     SCC iter.                  ...        0 min,  6.459 sec
     gradient                   ...        0 min,  1.193 sec
 * total energy  :  -881.5096635 Eh     change       -0.3952382E-03 Eh
   gradient norm :     0.0048753 Eh/α   predicted    -0.3644408E-03 (  -7.79%)
   displ. norm   :     0.7007808 α      lambda       -0.5119789E-03
   maximum displ.:     0.3892672 α      in ANC's #29, #40, #30, ...

........................................................................
.............................. CYCLE   58 ..............................
........................................................................
   1   -894.7355263 -0.894736E+03  0.155E-03    0.73       0.0  T
[...]
   220   6 C      224   7 N                                       1.3632261
   223   6 C      224   7 N                                       1.3686046
   223   6 C      225   6 C                                       1.4010428
   226   6 C      227   6 C                                       1.3981836
   227   6 C      228   6 C                                       1.3829706
   228   6 C      229   6 C                                       1.3919360
   230   7 N      231   8 O                                       1.2041879
   230   7 N      232   8 O                                       1.2041273
   229   6 C      233   6 C                                       1.3918801
   226   6 C      234   6 C                                       1.3982276
   233   6 C      234   6 C                                       1.3829806
   225   6 C      235   6 C                                       1.3963534
   235   6 C      236   6 C                                       1.4526545
   236   6 C      237   6 C                                       1.3487770
   235   6 C      238   7 N                                       1.3611351
   237   6 C      239   6 C                                       1.4496201
   238   7 N      239   6 C                                       1.3487044
   239   6 C      240   6 C                                       1.4097490
   240   6 C      241   6 C                                       1.4088008
   241   6 C      242   6 C                                       1.4186152
   242   6 C      243   6 C                                       1.3680509
   243   6 C      244   6 C                                       1.4218753
   241   6 C      245   7 N                                       1.3632456
   244   6 C      245   7 N                                       1.3687672
   244   6 C      246   6 C                                       1.4008938
   247   6 C      248   6 C                                       1.3981465
   248   6 C      249   6 C                                       1.3830396
   249   6 C      250   6 C                                       1.3918724
   251   7 N      252   8 O                                       1.2041265
   251   7 N      253   8 O                                       1.2041782
   250   6 C      254   6 C                                       1.3919407
   247   6 C      255   6 C                                       1.3982555
   254   6 C      255   6 C                                       1.3829163
   246   6 C      256   6 C                                       1.3965094
   256   6 C      257   6 C                                       1.4526842
   257   6 C      258   6 C                                       1.3487827
   219   6 C      259   6 C                                       1.4095281
   258   6 C      259   6 C                                       1.4494938
   256   6 C      260   7 N                                       1.3609599
   259   6 C      260   7 N                                       1.3487813
   221   6 C      261   1 H                                       1.0779142
   222   6 C      262   1 H                                       1.0776571
   224   7 N      263   1 H                                       1.0145162
   227   6 C      264   1 H                                       1.0837026
   228   6 C      265   1 H                                       1.0833619
   233   6 C      266   1 H                                       1.0833686
   234   6 C      267   1 H                                       1.0838012
   236   6 C      268   1 H                                       1.0778247
   237   6 C      269   1 H                                       1.0781060
   242   6 C      270   1 H                                       1.0779185
   243   6 C      271   1 H                                       1.0776716
   245   7 N      272   1 H                                       1.0145206
   248   6 C      273   1 H                                       1.0837997
   249   6 C      274   1 H                                       1.0833681
   254   6 C      275   1 H                                       1.0833630
   255   6 C      276   1 H                                       1.0837052
   257   6 C      277   1 H                                       1.0778108
   258   6 C      278   1 H                                       1.0781047
   279   6 C      280   6 C                                       1.4087822
   280   6 C      281   6 C                                       1.4185432
   281   6 C      282   6 C                                       1.3680623
   282   6 C      283   6 C                                       1.4218922
   280   6 C      284   7 N                                       1.3632587
   283   6 C      284   7 N                                       1.3686946
   283   6 C      285   6 C                                       1.4009769
   286   6 C      287   6 C                                       1.3982323
   287   6 C      288   6 C                                       1.3829268
   288   6 C      289   6 C                                       1.3919358
   290   7 N      291   8 O                                       1.2041740
   290   7 N      292   8 O                                       1.2041195
   289   6 C      293   6 C                                       1.3918702
   286   6 C      294   6 C                                       1.3981607
   293   6 C      294   6 C                                       1.3830389
   285   6 C      295   6 C                                       1.3964654
   295   6 C      296   6 C                                       1.4526931
   296   6 C      297   6 C                                       1.3487884
   295   6 C      298   7 N                                       1.3610407
   297   6 C      299   6 C                                       1.4495378
   298   7 N      299   6 C                                       1.3487915
   299   6 C      300   6 C                                       1.4096998
   300   6 C      301   6 C                                       1.4087746
   301   6 C      302   6 C                                       1.4185580
   302   6 C      303   6 C                                       1.3680584
   303   6 C      304   6 C                                       1.4218903
   301   6 C      305   7 N                                       1.3632611
   304   6 C      305   7 N                                       1.3687016
   304   6 C      306   6 C                                       1.4009496
   307   6 C      308   6 C                                       1.3981406
   308   6 C      309   6 C                                       1.3830493
   309   6 C      310   6 C                                       1.3918667
   311   7 N      312   8 O                                       1.2041199
   311   7 N      313   8 O                                       1.2041705
   310   6 C      314   6 C                                       1.3919324
   307   6 C      315   6 C                                       1.3982234
   314   6 C      315   6 C                                       1.3829253
   306   6 C      316   6 C                                       1.3964507
   316   6 C      317   6 C                                       1.4526950 (max)
   317   6 C      318   6 C                                       1.3487832
   279   6 C      319   6 C                                       1.4096753
   318   6 C      319   6 C                                       1.4495429
   316   6 C      320   7 N                                       1.3610315
   319   6 C      320   7 N                                       1.3487919
   281   6 C      321   1 H                                       1.0779201
   282   6 C      322   1 H                                       1.0776634
   284   7 N      323   1 H                                       1.0145188
   287   6 C      324   1 H                                       1.0837047
   288   6 C      325   1 H                                       1.0833611
   293   6 C      326   1 H                                       1.0833713
   294   6 C      327   1 H                                       1.0837999
   296   6 C      328   1 H                                       1.0778203
   297   6 C      329   1 H                                       1.0781005
   302   6 C      330   1 H                                       1.0779215
   303   6 C      331   1 H                                       1.0776670
   305   7 N      332   1 H                                       1.0145187
   308   6 C      333   1 H                                       1.0837983
   309   6 C      334   1 H                                       1.0833699
   314   6 C      335   1 H                                       1.0833593
   315   6 C      336   1 H                                       1.0837033
   317   6 C      337   1 H                                       1.0778211
   318   6 C      338   1 H                                       1.0781020
   339   6 C      340   6 C                                       1.4088042
   340   6 C      341   6 C                                       1.4186089
   341   6 C      342   6 C                                       1.3680569
   342   6 C      343   6 C                                       1.4218760
   340   6 C      344   7 N                                       1.3632388
   343   6 C      344   7 N                                       1.3687724
   343   6 C      345   6 C                                       1.4008777
   346   6 C      347   6 C                                       1.3982752
   347   6 C      348   6 C                                       1.3828942
   348   6 C      349   6 C                                       1.3919420
   350   7 N      351   8 O                                       1.2041803
   350   7 N      352   8 O                                       1.2041223
   349   6 C      353   6 C                                       1.3918716
   346   6 C      354   6 C                                       1.3981231
   353   6 C      354   6 C                                       1.3830599
   345   6 C      355   6 C                                       1.3965272
   355   6 C      356   6 C                                       1.4526855
   356   6 C      357   6 C                                       1.3487856
   355   6 C      358   7 N                                       1.3609430
   357   6 C      359   6 C                                       1.4494966
   358   7 N      359   6 C                                       1.3487943
   359   6 C      360   6 C                                       1.4095370
   360   6 C      361   6 C                                       1.4087207
   361   6 C      362   6 C                                       1.4185162
   362   6 C      363   6 C                                       1.3680568
   363   6 C      364   6 C                                       1.4218679
   361   6 C      365   7 N                                       1.3632313
   364   6 C      365   7 N                                       1.3686196
   364   6 C      366   6 C                                       1.4010362
   367   6 C      368   6 C                                       1.3982058
   368   6 C      369   6 C                                       1.3830082
   369   6 C      370   6 C                                       1.3918786
   371   7 N      372   8 O                                       1.2041350
   371   7 N      373   8 O                                       1.2041842
   370   6 C      374   6 C                                       1.3919388
   367   6 C      375   6 C                                       1.3982183
   374   6 C      375   6 C                                       1.3829378
   366   6 C      376   6 C                                       1.3963920
   376   6 C      377   6 C                                       1.4526650
   377   6 C      378   6 C                                       1.3487793
   339   6 C      379   6 C                                       1.4097427
   378   6 C      379   6 C                                       1.4496051
   376   6 C      380   7 N                                       1.3611139
   379   6 C      380   7 N                                       1.3487333
   341   6 C      381   1 H                                       1.0779196
   342   6 C      382   1 H                                       1.0776705
   344   7 N      383   1 H                                       1.0145228
   347   6 C      384   1 H                                       1.0837068
   348   6 C      385   1 H                                       1.0833620
   353   6 C      386   1 H                                       1.0833691
   354   6 C      387   1 H                                       1.0837977
   356   6 C      388   1 H                                       1.0778134
   357   6 C      389   1 H                                       1.0781019
   362   6 C      390   1 H                                       1.0779168
   363   6 C      391   1 H                                       1.0776554
   365   7 N      392   1 H                                       1.0145199
   368   6 C      393   1 H                                       1.0837998
   369   6 C      394   1 H                                       1.0833703
   374   6 C      395   1 H                                       1.0833592
   375   6 C      396   1 H                                       1.0837036
   377   6 C      397   1 H                                       1.0778255
   378   6 C      398   1 H                                       1.0781023
   399   6 C      400   6 C                                       1.4087397
   400   6 C      401   6 C                                       1.4188095
   401   6 C      402   6 C                                       1.3679925
   402   6 C      403   6 C                                       1.4218394
   400   6 C      404   7 N                                       1.3631180
   403   6 C      404   7 N                                       1.3688881
   403   6 C      405   6 C                                       1.4006156
   406   6 C      407   6 C                                       1.3983222
   407   6 C      408   6 C                                       1.3828832
   408   6 C      409   6 C                                       1.3919544
   410   7 N      411   8 O                                       1.2042305
   410   7 N      412   8 O                                       1.2041156
   409   6 C      413   6 C                                       1.3918817
   406   6 C      414   6 C                                       1.3981254
   413   6 C      414   6 C                                       1.3830515
   405   6 C      415   6 C                                       1.3966734
   415   6 C      416   6 C                                       1.4526411
   416   6 C      417   6 C                                       1.3487093
   415   6 C      418   7 N                                       1.3606963
   417   6 C      419   6 C                                       1.4495449
   418   7 N      419   6 C                                       1.3489210
   419   6 C      420   6 C                                       1.4090609
   420   6 C      421   6 C                                       1.4082414
   421   6 C      422   6 C                                       1.4185856
   422   6 C      423   6 C                                       1.3679948
   423   6 C      424   6 C                                       1.4218472
   421   6 C      425   7 N                                       1.3632367
   424   6 C      425   7 N                                       1.3684263
   424   6 C      426   6 C                                       1.4011231
   427   6 C      428   6 C                                       1.3983111
   428   6 C      429   6 C                                       1.3829436
   429   6 C      430   6 C                                       1.3919155
   431   7 N      432   8 O                                       1.2041913
   431   7 N      433   8 O                                       1.2042346
   430   6 C      434   6 C                                       1.3919627
   427   6 C      435   6 C                                       1.3982078
   434   6 C      435   6 C                                       1.3829508
   426   6 C      436   6 C                                       1.3962422
   436   6 C      437   6 C                                       1.4525606
   437   6 C      438   6 C                                       1.3487722
   399   6 C      439   6 C                                       1.4097868
   438   6 C      439   6 C                                       1.4497822
   436   6 C      440   7 N                                       1.3612485
   439   6 C      440   7 N                                       1.3485498
   401   6 C      441   1 H                                       1.0779192
   402   6 C      442   1 H                                       1.0776855
   404   7 N      443   1 H                                       1.0145305
   407   6 C      444   1 H                                       1.0837004
   408   6 C      445   1 H                                       1.0833639
   413   6 C      446   1 H                                       1.0833664
   414   6 C      447   1 H                                       1.0837997
   416   6 C      448   1 H                                       1.0777885
   417   6 C      449   1 H                                       1.0780769
   422   6 C      450   1 H                                       1.0779215
   423   6 C      451   1 H                                       1.0776499
   425   7 N      452   1 H                                       1.0145233
   428   6 C      453   1 H                                       1.0838036
   429   6 C      454   1 H                                       1.0833714
   434   6 C      455   1 H                                       1.0833594
   435   6 C      456   1 H                                       1.0837008
   437   6 C      457   1 H                                       1.0778381
   438   6 C      458   1 H                                       1.0781023

 * 5 distinct bonds (by element types)

   Z      Z             #   av. dist./Å        max./Å        min./Å
   1 H    6 C         114     1.0808177     1.0852616     1.0776499
   6 C    6 C         240     1.3875179     1.4526950     1.2240567
   1 H    7 N          14     1.0145530     1.0147587     1.0145080
   6 C    7 N          56     1.3603945     1.3692528     1.3484969
   7 N    8 O          28     1.2042333     1.2045044     1.2041156


optimized geometry written to: xtbopt.xyz


           -------------------------------------------------
          | TOTAL ENERGY             -881.513839269895 Eh   |
          | GRADIENT NORM               0.000480857076 Eh/α |
          | HOMO-LUMO GAP               0.728947092684 eV   |
           -------------------------------------------------

------------------------------------------------------------------------
 * finished run on 2022/07/30 at 10:03:24.961     
------------------------------------------------------------------------
 total:
 * wall-time:     0 d,  0 h, 16 min, 58.857 sec
 *  cpu-time:     0 d,  0 h, 16 min, 54.612 sec
 * ratio c/w:     0.996 speedup
 SCF:
 * wall-time:     0 d,  0 h,  0 min, 45.155 sec
 *  cpu-time:     0 d,  0 h,  0 min, 44.989 sec
 * ratio c/w:     0.996 speedup
 ANC optimizer:
 * wall-time:     0 d,  0 h, 16 min, 13.218 sec
 *  cpu-time:     0 d,  0 h, 16 min,  9.154 sec
 * ratio c/w:     0.996 speedup

