      -----------------------------------------------------------      
     |                   =====================                   |     
     |                           x T B                           |     
     |                   =====================                   |     
     |                         S. Grimme                         |     
     |          Mulliken Center for Theoretical Chemistry        |     
     |                    University of Bonn                     |     
      -----------------------------------------------------------      

   * xtb version 6.5.1 (b24c23e) compiled by 'conda@728c89f4b128' on 2022-07-12

   xtb is free software: you can redistribute it and/or modify it under
   the terms of the GNU Lesser General Public License as published by
   the Free Software Foundation, either version 3 of the License, or
   (at your option) any later version.
   
   xtb is distributed in the hope that it will be useful,
   but WITHOUT ANY WARRANTY; without even the implied warranty of
   MERCHANTABILITY or FITNESS FOR A PARTICULAR PURPOSE.  See the
   GNU Lesser General Public License for more details.
   
   Cite this work as:
   * C. Bannwarth, E. Caldeweyher, S. Ehlert, A. Hansen, P. Pracht,
     J. Seibert, S. Spicher, S. Grimme, WIREs Comput. Mol. Sci., 2020, 11,
     e01493. DOI: 10.1002/wcms.1493
   
   for GFN2-xTB:
   * C. Bannwarth, S. Ehlert and S. Grimme., J. Chem. Theory Comput., 2019,
     15, 1652-1671. DOI: 10.1021/acs.jctc.8b01176
   for GFN1-xTB:
   * S. Grimme, C. Bannwarth, P. Shushkov, J. Chem. Theory Comput., 2017,
     13, 1989-2009. DOI: 10.1021/acs.jctc.7b00118
   for GFN0-xTB:
   * P. Pracht, E. Caldeweyher, S. Ehlert, S. Grimme, ChemRxiv, 2019, preprint.
     DOI: 10.26434/chemrxiv.8326202.v1
   for GFN-FF:
   * S. Spicher and S. Grimme, Angew. Chem. Int. Ed., 2020, 59, 15665-15673.
     DOI: 10.1002/anie.202004239
   
   for ALPB and GBSA implicit solvation:
   * S. Ehlert, M. Stahn, S. Spicher, S. Grimme, J. Chem. Theory Comput.,
     2021, 17, 4250-4261. DOI: 10.1021/acs.jctc.1c00471
   
   for DFT-D4:
   * E. Caldeweyher, C. Bannwarth and S. Grimme, J. Chem. Phys., 2017,
     147, 034112. DOI: 10.1063/1.4993215
   * E. Caldeweyher, S. Ehlert, A. Hansen, H. Neugebauer, S. Spicher,
     C. Bannwarth and S. Grimme, J. Chem. Phys., 2019, 150, 154122.
     DOI: 10.1063/1.5090222
   * E. Caldeweyher, J.-M. Mewes, S. Ehlert and S. Grimme, Phys. Chem. Chem. Phys.
     2020, 22, 8499-8512. DOI: 10.1039/D0CP00502A
   
   for sTDA-xTB:
   * S. Grimme and C. Bannwarth, J. Chem. Phys., 2016, 145, 054103.
     DOI: 10.1063/1.4959605
   
   in the mass-spec context:
   * V. Asgeirsson, C. Bauer and S. Grimme, Chem. Sci., 2017, 8, 4879.
     DOI: 10.1039/c7sc00601b
   * J. Koopman and S. Grimme, ACS Omega 2019, 4, 12, 15120-15133.
     DOI: 10.1021/acsomega.9b02011
   
   for metadynamics refer to:
   * S. Grimme, J. Chem. Theory Comput., 2019, 155, 2847-2862
     DOI: 10.1021/acs.jctc.9b00143
   
   for SPH calculations refer to:
   * S. Spicher and S. Grimme, J. Chem. Theory Comput., 2021, 17, 1701-1714
     DOI: 10.1021/acs.jctc.0c01306
   
   with help from (in alphabetical order)
   P. Atkinson, C. Bannwarth, F. Bohle, G. Brandenburg, E. Caldeweyher
   M. Checinski, S. Dohm, S. Ehlert, S. Ehrlich, I. Gerasimov, C. Hölzer
   A. Katbashev, J. Koopman, C. Lavigne, S. Lehtola, F. März, M. Müller,
   F. Musil, H. Neugebauer, J. Pisarek, C. Plett, P. Pracht, F. Pultar,
   J. Seibert, P. Shushkov, S. Spicher, M. Stahn, M. Steiner, T. Strunk,
   J. Stückrath, T. Rose, and J. Unsleber
   
 * started run on 2022/07/29 at 19:30:41.819     

           -------------------------------------------------
          |                Calculation Setup                |
           -------------------------------------------------

          program call               : xtb Ph_C6_2.xyz --gfn 1 --opt -T 48
          hostname                   : cx3-14-14.cx3.hpc.ic.ac.uk
          coordinate file            : Ph_C6_2.xyz
          omp threads                :                     1

   ID    Z sym.   atoms
    1    6 C      1-5, 7-10, 12-28, 31-36, 58-62, 64-67, 69-85, 88-93, 115-120
    2    7 N      6, 11, 29, 30, 63, 68, 86, 87
    3    1 H      37-57, 94-114
########################################################################
[WARNING] Please study the warnings concerning your input carefully
-1- prog_main_parseArguments: Unknown option '-T' provided
########################################################################

           -------------------------------------------------
          |                 G F N 1 - x T B                 |
           -------------------------------------------------

        Reference                      10.1021/acs.jctc.7b00118
      * Hamiltonian:
        H0-scaling (s, p, d)           1.850000    2.250000    2.000000
        zeta-weighting                 0.000000
      * Dispersion:
        s8                             2.400000
        a1                             0.630000
        a2                             5.000000
        s9                             0.000000
      * Repulsion:
        kExp                           1.500000
        rExp                           1.000000
      * Coulomb:
        alpha                          2.000000
        third order                    atomic
        anisotropic                    false
      * Halogen bond correction:
        rad-scale                      1.300000
        damping                        0.440000


          ...................................................
          :                      SETUP                      :
          :.................................................:
          :  # basis functions                 396          :
          :  # atomic orbitals                 396          :
          :  # shells                          240          :
          :  # electrons                       362          :
          :  # halogen bonds                     0          :
          :  max. iterations                   250          :
          :  Hamiltonian                  GFN1-xTB          :
          :  restarted?                      false          :
          :  GBSA solvation                  false          :
          :  PC potential                    false          :
          :  electronic temp.          300.0000000     K    :
          :  accuracy                    1.0000000          :
          :  -> integral cutoff          0.2500000E+02      :
          :  -> integral neglect         0.1000000E-07      :
          :  -> SCF convergence          0.1000000E-05 Eh   :
          :  -> wf. convergence          0.2000000E-04 e    :
          :  Broyden damping             0.4000000          :
          ...................................................

 iter      E             dE          RMSdq      gap      omega  full diag
   1   -198.8074564 -0.198807E+03  0.104E+01    0.13       0.0  T
   2   -199.0180134 -0.210557E+00  0.624E+00    0.17       1.0  T
   3   -198.1556603  0.862353E+00  0.175E+00    0.17       1.0  T
   4   -198.8515679 -0.695908E+00  0.747E-01    0.29       1.0  T
   5   -198.9417470 -0.901791E-01  0.566E-01    0.18       1.0  T
   6   -198.9257137  0.160333E-01  0.566E-01    0.41       1.0  T
   7   -198.9608300 -0.351163E-01  0.496E-01    0.28       1.0  T
   8   -199.0761576 -0.115328E+00  0.182E-01    0.16       1.0  T
   9   -199.0908795 -0.147220E-01  0.366E-02    0.13       1.0  T
  10   -199.0891057  0.177385E-02  0.658E-02    0.14       1.0  T
  11   -199.0913249 -0.221922E-02  0.997E-03    0.13       1.0  T
  12   -199.0911676  0.157323E-03  0.181E-02    0.13       1.0  T
  13   -199.0912842 -0.116599E-03  0.113E-02    0.13       1.0  T
  14   -199.0913534 -0.692210E-04  0.104E-03    0.13       8.7  T
  15   -199.0913536 -0.182145E-06  0.685E-04    0.13      13.3  T
  16   -199.0913537 -0.131166E-06  0.421E-04    0.13      21.7  T
  17   -199.0913537 -0.356890E-07  0.320E-04    0.13      28.6  T
  18   -199.0913538 -0.484291E-07  0.107E-04    0.13      85.0  T
  19   -199.0913538 -0.497391E-08  0.406E-05    0.13     224.6  T

   *** convergence criteria satisfied after 19 iterations ***

         #    Occupation            Energy/Eh            Energy/eV
      -------------------------------------------------------------
         1        2.0000           -0.7986298             -21.7318
       ...           ...                  ...                  ...
       175        2.0000           -0.4093222             -11.1382
       176        2.0000           -0.4092204             -11.1355
       177        2.0000           -0.4059564             -11.0466
       178        2.0000           -0.4056904             -11.0394
       179        2.0000           -0.3839889             -10.4489
       180        2.0000           -0.3750775             -10.2064
       181        1.8577           -0.3641328              -9.9086 (HOMO)
       182        0.1423           -0.3592506              -9.7757 (LUMO)
       183                         -0.3386132              -9.2141
       184                         -0.3297395              -8.9727
       185                         -0.3089503              -8.4070
       186                         -0.3002116              -8.1692
       ...                                ...                  ...
       396                         17.1398503             466.3991
      -------------------------------------------------------------
                  HL-Gap            0.0048822 Eh            0.1329 eV
             Fermi-level           -0.3616917 Eh           -9.8421 eV

 SCC (total)                   0 d,  0 h,  0 min,  0.940 sec
 SCC setup                      ...        0 min,  0.004 sec (  0.412%)
 Dispersion                     ...        0 min,  0.003 sec (  0.284%)
 classical contributions        ...        0 min,  0.001 sec (  0.119%)
 integral evaluation            ...        0 min,  0.089 sec (  9.422%)
 iterations                     ...        0 min,  0.609 sec ( 64.845%)
 molecular gradient             ...        0 min,  0.227 sec ( 24.111%)
 printout                       ...        0 min,  0.008 sec (  0.805%)

         :::::::::::::::::::::::::::::::::::::::::::::::::::::
         ::                     SUMMARY                     ::
         :::::::::::::::::::::::::::::::::::::::::::::::::::::
         :: total energy            -192.905677951614 Eh    ::
         :: gradient norm              8.829306387321 Eh/a0 ::
         :: HOMO-LUMO gap              0.132851576591 eV    ::
         ::.................................................::
         :: SCC energy              -199.091353797060 Eh    ::
         :: -> electrostatic           0.129234803739 Eh    ::
         :: repulsion energy           6.282852800374 Eh    ::
         :: dispersion energy         -0.097176954927 Eh    ::
         :: halogen bond corr.         0.000000000000 Eh    ::
         :: add. restraining           0.000000000000 Eh    ::
         :: total charge               0.000000000000 e     ::
         :::::::::::::::::::::::::::::::::::::::::::::::::::::

      ----------------------------------------------------------- 
     |                   =====================                   |
     |                        A N C O P T                        |
     |                   =====================                   |
     |               Approximate Normal Coordinate               |
     |                Rational Function Optimizer                |
      ----------------------------------------------------------- 

          ...................................................
          :                      SETUP                      :
          :.................................................:
          :   optimization level            normal          :
          :   max. optcycles                   360          :
          :   ANC micro-cycles                  20          :
          :   degrees of freedom               354          :
          :.................................................:
          :   RF solver                   davidson          :
          :   write xtbopt.log                true          :
          :   linear?                        false          :
          :   energy convergence         0.5000000E-05 Eh   :
          :   grad. convergence          0.1000000E-02 Eh/α :
          :   maximium RF displ.         1.0000000          :
          :   Hlow (freq-cutoff)         0.1000000E-01      :
          :   Hmax (freq-cutoff)         5.0000000          :
          :   S6 in model hess.         20.0000000          :
          ...................................................

generating ANC from model Hessian ...
Using Lindh-Hessian (1995)
 Shifting diagonal of input Hessian by    1.0009959397124681E-002
 Lowest  eigenvalues of input Hessian
    0.010000    0.010005    0.000000    0.000000    0.000000    0.000000
    0.000000    0.000000    0.010021    0.010048    0.010079    0.010170
    0.010196    0.010403    0.010556    0.010616    0.010627    0.010630
 Highest eigenvalues
    2.695547    2.799166    4.605754    5.472793    5.493031    6.151537


........................................................................
.............................. CYCLE    1 ..............................
........................................................................
   1   -199.0913538 -0.199091E+03  0.683E-06    0.13       0.0  T
   2   -199.0913538  0.353344E-08  0.804E-05    0.13     113.5  T
   3   -199.0913538 -0.351696E-08  0.748E-06    0.13    1219.7  T
     SCC iter.                  ...        0 min,  0.100 sec
     gradient                   ...        0 min,  0.225 sec
 * total energy  :  -192.9056780 Eh     change       -0.8097913E-09 Eh
   gradient norm :     8.8293066 Eh/α   predicted     0.0000000E+00 (-100.00%)
   displ. norm   :     0.7696865 α      lambda       -0.6768435E+01
   maximum displ.:     0.5193798 α      in ANC's #354, #353, #349, ...

........................................................................
.............................. CYCLE    2 ..............................
........................................................................
   1   -199.2674269 -0.199267E+03  0.441E-01    0.52       0.0  T
   2   -199.2244302  0.429967E-01  0.461E-01    0.55       1.0  T
   3   -199.2586750 -0.342447E-01  0.343E-01    0.53       1.0  T
   4   -199.2996780 -0.410031E-01  0.527E-02    0.49       1.0  T
   5   -199.2999774 -0.299380E-03  0.275E-02    0.48       1.0  T
   6   -199.2999238  0.535830E-04  0.213E-02    0.48       1.0  T
   7   -199.2999443 -0.205271E-04  0.186E-02    0.48       1.0  T
   8   -199.3000396 -0.953069E-04  0.487E-03    0.48       1.9  T
   9   -199.3000459 -0.623435E-05  0.162E-03    0.48       5.6  T
  10   -199.3000467 -0.847927E-06  0.224E-04    0.48      40.8  T
  11   -199.3000467 -0.105953E-08  0.110E-04    0.48      83.0  T
  12   -199.3000467 -0.261156E-08  0.463E-05    0.48     197.3  T
     SCC iter.                  ...        0 min,  0.388 sec
     gradient                   ...        0 min,  0.241 sec
 * total energy  :  -195.3970627 Eh     change       -0.2491385E+01 Eh
   gradient norm :     1.0876919 Eh/α   predicted    -0.5389300E+01 ( 116.32%)
   displ. norm   :     0.5369318 α      lambda       -0.5461100E+00
   maximum displ.:     0.2391464 α      in ANC's #287, #295, #291, ...

........................................................................
.............................. CYCLE    3 ..............................
........................................................................
   1   -199.2183206 -0.199218E+03  0.103E-01    0.39       0.0  T
   2   -199.2196679 -0.134727E-02  0.868E-02    0.39       1.0  T
   3   -199.2200839 -0.416021E-03  0.473E-02    0.39       1.0  T
   4   -199.2197036  0.380321E-03  0.411E-02    0.39       1.0  T
   5   -199.2199287 -0.225166E-03  0.215E-02    0.39       1.0  T
   6   -199.2200141 -0.853735E-04  0.153E-02    0.39       1.0  T
   7   -199.2201077 -0.935618E-04  0.445E-03    0.39       2.1  T
   8   -199.2201170 -0.933276E-05  0.763E-04    0.39      12.0  T
   9   -199.2201172 -0.188882E-06  0.172E-04    0.39      53.1  T
  10   -199.2201172 -0.476885E-08  0.621E-05    0.39     147.0  T
     SCC iter.                  ...        0 min,  0.324 sec
     gradient                   ...        0 min,  0.225 sec
 * total energy  :  -195.6558724 Eh     change       -0.2588098E+00 Eh
   gradient norm :     0.5962006 Eh/α   predicted    -0.3517794E+00 (  35.92%)
   displ. norm   :     0.5043067 α      lambda       -0.1212790E+00
   maximum displ.:     0.2212531 α      in ANC's #77, #92, #62, ...

........................................................................
.............................. CYCLE    4 ..............................
........................................................................
   1   -199.2515394 -0.199252E+03  0.758E-02    0.49       0.0  T
   2   -199.2517706 -0.231219E-03  0.736E-02    0.47       1.0  T
   3   -199.2530173 -0.124668E-02  0.265E-02    0.48       1.0  T
   4   -199.2528473  0.169914E-03  0.316E-02    0.48       1.0  T
   5   -199.2531156 -0.268268E-03  0.108E-02    0.48       1.0  T
   6   -199.2531128  0.283432E-05  0.858E-03    0.48       1.1  T
   7   -199.2531420 -0.292297E-04  0.199E-03    0.48       4.6  T
   8   -199.2531434 -0.138691E-05  0.526E-04    0.48      17.4  T
   9   -199.2531435 -0.818930E-07  0.220E-04    0.48      41.5  T
  10   -199.2531435 -0.121680E-07  0.712E-05    0.48     128.2  T
  11   -199.2531435 -0.859671E-09  0.192E-05    0.48     475.5  T
     SCC iter.                  ...        0 min,  0.351 sec
     gradient                   ...        0 min,  0.225 sec
 * total energy  :  -195.7499559 Eh     change       -0.9408352E-01 Eh
   gradient norm :     0.4187802 Eh/α   predicted    -0.7606168E-01 ( -19.16%)
   displ. norm   :     0.5621233 α      lambda       -0.8294832E-01
   maximum displ.:     0.2830466 α      in ANC's #77, #62, #92, ...

........................................................................
.............................. CYCLE    5 ..............................
........................................................................
   1   -199.3030399 -0.199303E+03  0.792E-02    0.67       0.0  T
   2   -199.3035586 -0.518748E-03  0.717E-02    0.66       1.0  T
   3   -199.3047998 -0.124120E-02  0.222E-02    0.66       1.0  T
   4   -199.3046813  0.118527E-03  0.256E-02    0.66       1.0  T
   5   -199.3048784 -0.197106E-03  0.642E-03    0.66       1.4  T
   6   -199.3048827 -0.433589E-05  0.166E-03    0.66       5.5  T
   7   -199.3048831 -0.370339E-06  0.464E-04    0.66      19.7  T
   8   -199.3048831 -0.209101E-07  0.249E-04    0.66      36.6  T
   9   -199.3048831 -0.112685E-07  0.127E-04    0.66      71.8  T
  10   -199.3048831 -0.461318E-08  0.218E-05    0.66     419.4  T
     SCC iter.                  ...        0 min,  0.322 sec
     gradient                   ...        0 min,  0.240 sec
 * total energy  :  -195.8072611 Eh     change       -0.5730516E-01 Eh
   gradient norm :     0.2558495 Eh/α   predicted    -0.5457929E-01 (  -4.76%)
   displ. norm   :     0.5788510 α      lambda       -0.3572327E-01
   maximum displ.:     0.3179265 α      in ANC's #77, #62, #92, ...

........................................................................
.............................. CYCLE    6 ..............................
........................................................................
   1   -199.3364212 -0.199336E+03  0.373E-02    0.77       0.0  T
   2   -199.3364904 -0.692526E-04  0.333E-02    0.77       1.0  T
   3   -199.3367914 -0.300974E-03  0.939E-03    0.77       1.0  T
   4   -199.3367756  0.158302E-04  0.109E-02    0.77       1.0  T
   5   -199.3368075 -0.319644E-04  0.278E-03    0.77       3.3  T
   6   -199.3368081 -0.573962E-06  0.885E-04    0.77      10.3  T
   7   -199.3368083 -0.165245E-06  0.334E-04    0.77      27.3  T
   8   -199.3368083 -0.243830E-07  0.157E-04    0.77      58.2  T
   9   -199.3368083 -0.795103E-08  0.439E-05    0.77     207.7  T
     SCC iter.                  ...        0 min,  0.289 sec
     gradient                   ...        0 min,  0.227 sec
 * total energy  :  -195.8353850 Eh     change       -0.2812387E-01 Eh
   gradient norm :     0.1754733 Eh/α   predicted    -0.2384654E-01 ( -15.21%)
   displ. norm   :     0.6069789 α      lambda       -0.2645180E-01
   maximum displ.:     0.3097760 α      in ANC's #77, #62, #31, ...

........................................................................
.............................. CYCLE    7 ..............................
........................................................................
   1   -199.3567782 -0.199357E+03  0.350E-02    0.86       0.0  T
   2   -199.3568254 -0.472508E-04  0.261E-02    0.86       1.0  T
   3   -199.3569814 -0.155982E-03  0.781E-03    0.85       1.2  T
   4   -199.3569834 -0.195513E-05  0.781E-03    0.85       1.2  T
   5   -199.3569970 -0.136227E-04  0.238E-03    0.85       3.8  T
   6   -199.3569979 -0.887709E-06  0.514E-04    0.85      17.8  T
   7   -199.3569979 -0.513942E-07  0.311E-04    0.85      29.4  T
   8   -199.3569980 -0.361889E-07  0.972E-05    0.85      93.9  T
   9   -199.3569980 -0.178321E-08  0.268E-05    0.85     340.1  T
     SCC iter.                  ...        0 min,  0.292 sec
     gradient                   ...        0 min,  0.243 sec
 * total energy  :  -195.8558704 Eh     change       -0.2048537E-01 Eh
   gradient norm :     0.1047517 Eh/α   predicted    -0.1809865E-01 ( -11.65%)
   displ. norm   :     0.6187934 α      lambda       -0.1637643E-01
   maximum displ.:     0.2541263 α      in ANC's #77, #31, #20, ...

........................................................................
.............................. CYCLE    8 ..............................
........................................................................
   1   -199.3578596 -0.199358E+03  0.248E-02    0.92       0.0  T
   2   -199.3578862 -0.265928E-04  0.174E-02    0.92       1.0  T
   3   -199.3579301 -0.439321E-04  0.657E-03    0.92       1.4  T
   4   -199.3579268  0.332349E-05  0.548E-03    0.92       1.7  T
   5   -199.3579337 -0.688126E-05  0.189E-03    0.92       4.8  T
   6   -199.3579348 -0.115227E-05  0.364E-04    0.92      25.1  T
   7   -199.3579348 -0.875252E-08  0.214E-04    0.92      42.6  T
   8   -199.3579348 -0.175578E-07  0.607E-05    0.92     150.3  T
   9   -199.3579348 -0.108267E-08  0.191E-05    0.92     477.0  T
     SCC iter.                  ...        0 min,  0.294 sec
     gradient                   ...        0 min,  0.228 sec
 * total energy  :  -195.8684690 Eh     change       -0.1259867E-01 Eh
   gradient norm :     0.0554997 Eh/α   predicted    -0.1132355E-01 ( -10.12%)
   displ. norm   :     0.6385456 α      lambda       -0.9706174E-02
   maximum displ.:     0.2871624 α      in ANC's #20, #31, #26, ...

........................................................................
.............................. CYCLE    9 ..............................
........................................................................
   1   -199.3477692 -0.199348E+03  0.193E-02    0.97       0.0  T
   2   -199.3477940 -0.247502E-04  0.130E-02    0.97       1.0  T
   3   -199.3478135 -0.195150E-04  0.522E-03    0.97       1.7  T
   4   -199.3478110  0.243158E-05  0.350E-03    0.97       2.6  T
   5   -199.3478138 -0.277675E-05  0.136E-03    0.97       6.7  T
   6   -199.3478145 -0.708524E-06  0.277E-04    0.97      32.9  T
   7   -199.3478145 -0.113437E-07  0.953E-05    0.97      95.8  T
   8   -199.3478145 -0.144655E-08  0.523E-05    0.97     174.6  T
     SCC iter.                  ...        0 min,  0.259 sec
     gradient                   ...        0 min,  0.227 sec
 * total energy  :  -195.8760653 Eh     change       -0.7596295E-02 Eh
   gradient norm :     0.0256338 Eh/α   predicted    -0.6831910E-02 ( -10.06%)
   displ. norm   :     0.6720533 α      lambda       -0.6286229E-02
   maximum displ.:     0.3665270 α      in ANC's #20, #31, #26, ...

........................................................................
.............................. CYCLE   10 ..............................
........................................................................
   1   -199.3328877 -0.199333E+03  0.165E-02    1.00       0.0  T
   2   -199.3329084 -0.207495E-04  0.106E-02    1.00       1.0  T
   3   -199.3329252 -0.167795E-04  0.425E-03    1.00       2.1  T
   4   -199.3329240  0.123957E-05  0.317E-03    1.00       2.9  T
   5   -199.3329264 -0.246026E-05  0.122E-03    1.00       7.5  T
   6   -199.3329268 -0.403482E-06  0.213E-04    1.00      42.9  T
   7   -199.3329268 -0.887314E-08  0.713E-05    1.00     128.0  T
   8   -199.3329268 -0.135029E-08  0.329E-05    1.00     277.6  T
     SCC iter.                  ...        0 min,  0.259 sec
     gradient                   ...        0 min,  0.226 sec
 * total energy  :  -195.8811390 Eh     change       -0.5073716E-02 Eh
   gradient norm :     0.0186336 Eh/α   predicted    -0.4562740E-02 ( -10.07%)
   displ. norm   :     0.7022414 α      lambda       -0.4588236E-02
   maximum displ.:     0.4337130 α      in ANC's #20, #31, #26, ...

........................................................................
.............................. CYCLE   11 ..............................
........................................................................
   1   -199.3177094 -0.199318E+03  0.131E-02    1.02       0.0  T
   2   -199.3177188 -0.937378E-05  0.887E-03    1.02       1.0  T
   3   -199.3177347 -0.158465E-04  0.370E-03    1.02       2.5  T
   4   -199.3177352 -0.537749E-06  0.279E-03    1.02       3.3  T
   5   -199.3177371 -0.185720E-05  0.847E-04    1.02      10.8  T
   6   -199.3177372 -0.117840E-06  0.175E-04    1.02      52.2  T
   7   -199.3177372 -0.793008E-08  0.720E-05    1.02     126.8  T
     SCC iter.                  ...        0 min,  0.225 sec
     gradient                   ...        0 min,  0.243 sec
 * total energy  :  -195.8849539 Eh     change       -0.3814859E-02 Eh
   gradient norm :     0.0221900 Eh/α   predicted    -0.3425447E-02 ( -10.21%)
   displ. norm   :     0.6948305 α      lambda       -0.3572160E-02
   maximum displ.:     0.4489840 α      in ANC's #20, #8, #26, ...

........................................................................
.............................. CYCLE   12 ..............................
........................................................................
   1   -199.3071197 -0.199307E+03  0.907E-03    1.02       0.0  T
   2   -199.3071205 -0.797131E-06  0.691E-03    1.02       1.3  T
   3   -199.3071340 -0.135171E-04  0.284E-03    1.02       3.2  T
   4   -199.3071350 -0.103866E-05  0.189E-03    1.02       4.8  T
   5   -199.3071357 -0.645466E-06  0.475E-04    1.02      19.2  T
   6   -199.3071357 -0.345816E-07  0.157E-04    1.02      58.1  T
   7   -199.3071357 -0.699237E-08  0.721E-05    1.02     126.5  T
     SCC iter.                  ...        0 min,  0.227 sec
     gradient                   ...        0 min,  0.225 sec
 * total energy  :  -195.8880099 Eh     change       -0.3056013E-02 Eh
   gradient norm :     0.0234473 Eh/α   predicted    -0.2648384E-02 ( -13.34%)
   displ. norm   :     0.6971711 α      lambda       -0.3075942E-02
   maximum displ.:     0.4655665 α      in ANC's #20, #8, #26, ...

........................................................................
.............................. CYCLE   13 ..............................
........................................................................
   1   -199.2996732 -0.199300E+03  0.686E-03    1.02       0.0  T
   2   -199.2996721  0.105793E-05  0.572E-03    1.02       1.6  T
   3   -199.2996820 -0.993221E-05  0.248E-03    1.02       3.7  T
   4   -199.2996828 -0.738172E-06  0.139E-03    1.02       6.6  T
   5   -199.2996830 -0.270659E-06  0.308E-04    1.02      29.7  T
   6   -199.2996831 -0.127033E-07  0.160E-04    1.02      56.9  T
   7   -199.2996831 -0.621128E-08  0.730E-05    1.02     125.0  T
     SCC iter.                  ...        0 min,  0.228 sec
     gradient                   ...        0 min,  0.227 sec
 * total energy  :  -195.8906508 Eh     change       -0.2640868E-02 Eh
   gradient norm :     0.0179268 Eh/α   predicted    -0.2285502E-02 ( -13.46%)
   displ. norm   :     0.7167206 α      lambda       -0.2773772E-02
   maximum displ.:     0.4851129 α      in ANC's #20, #8, #26, ...

........................................................................
.............................. CYCLE   14 ..............................
........................................................................
   1   -199.3001684 -0.199300E+03  0.638E-03    1.01       0.0  T
   2   -199.3001705 -0.212044E-05  0.504E-03    1.01       1.8  T
   3   -199.3001764 -0.591018E-05  0.253E-03    1.01       3.6  T
   4   -199.3001769 -0.496565E-06  0.146E-03    1.01       6.2  T
   5   -199.3001773 -0.361105E-06  0.447E-04    1.01      20.4  T
   6   -199.3001773 -0.188112E-07  0.145E-04    1.01      63.1  T
   7   -199.3001773 -0.326276E-08  0.634E-05    1.01     144.0  T
     SCC iter.                  ...        0 min,  0.226 sec
     gradient                   ...        0 min,  0.226 sec
 * total energy  :  -195.8929434 Eh     change       -0.2292591E-02 Eh
   gradient norm :     0.0181796 Eh/α   predicted    -0.2099317E-02 (  -8.43%)
   displ. norm   :     0.7174315 α      lambda       -0.2423143E-02
   maximum displ.:     0.4914738 α      in ANC's #20, #8, #26, ...

........................................................................
.............................. CYCLE   15 ..............................
........................................................................
   1   -199.2997043 -0.199300E+03  0.585E-03    1.00       0.0  T
   2   -199.2997062 -0.191373E-05  0.412E-03    1.00       2.2  T
   3   -199.2997103 -0.408252E-05  0.211E-03    1.00       4.3  T
   4   -199.2997111 -0.750007E-06  0.116E-03    1.00       7.9  T
   5   -199.2997113 -0.196730E-06  0.500E-04    1.00      18.3  T
   6   -199.2997113 -0.281568E-07  0.139E-04    1.00      65.6  T
   7   -199.2997113 -0.467011E-08  0.615E-05    1.00     148.5  T
     SCC iter.                  ...        0 min,  0.227 sec
     gradient                   ...        0 min,  0.228 sec
 * total energy  :  -195.8949434 Eh     change       -0.2000027E-02 Eh
   gradient norm :     0.0109180 Eh/α   predicted    -0.1835185E-02 (  -8.24%)
   displ. norm   :     0.7086403 α      lambda       -0.1952162E-02
   maximum displ.:     0.4834120 α      in ANC's #20, #8, #10, ...

........................................................................
.............................. CYCLE   16 ..............................
........................................................................
   1   -199.3031154 -0.199303E+03  0.472E-03    1.00       0.0  T
   2   -199.3031163 -0.878255E-06  0.323E-03    1.00       2.8  T
   3   -199.3031191 -0.284977E-05  0.156E-03    1.00       5.9  T
   4   -199.3031196 -0.525419E-06  0.778E-04    1.00      11.7  T
   5   -199.3031197 -0.381731E-07  0.368E-04    1.00      24.8  T
   6   -199.3031197 -0.257239E-07  0.133E-04    1.00      68.5  T
   7   -199.3031197 -0.512196E-08  0.546E-05    1.00     167.2  T
     SCC iter.                  ...        0 min,  0.229 sec
     gradient                   ...        0 min,  0.240 sec
 * total energy  :  -195.8966448 Eh     change       -0.1701431E-02 Eh
   gradient norm :     0.0130124 Eh/α   predicted    -0.1466242E-02 ( -13.82%)
   displ. norm   :     0.7223838 α      lambda       -0.1772869E-02
   maximum displ.:     0.4794661 α      in ANC's #20, #8, #21, ...

........................................................................
.............................. CYCLE   17 ..............................
........................................................................
   1   -199.3064200 -0.199306E+03  0.444E-03    1.00       0.0  T
   2   -199.3064207 -0.650307E-06  0.238E-03    1.00       3.8  T
   3   -199.3064217 -0.101283E-05  0.158E-03    1.00       5.8  T
   4   -199.3064223 -0.593241E-06  0.680E-04    1.00      13.4  T
   5   -199.3064223 -0.302605E-07  0.221E-04    1.00      41.3  T
   6   -199.3064223 -0.108890E-07  0.681E-05    1.00     134.0  T
   7   -199.3064223 -0.345921E-09  0.281E-05    1.00     325.2  T
     SCC iter.                  ...        0 min,  0.229 sec
     gradient                   ...        0 min,  0.224 sec
 * total energy  :  -195.8981766 Eh     change       -0.1531790E-02 Eh
   gradient norm :     0.0134592 Eh/α   predicted    -0.1349014E-02 ( -11.93%)
   displ. norm   :     0.7353942 α      lambda       -0.1567420E-02
   maximum displ.:     0.4767302 α      in ANC's #20, #8, #21, ...

........................................................................
.............................. CYCLE   18 ..............................
........................................................................
   1   -199.3096559 -0.199310E+03  0.448E-03    1.00       0.0  T
   2   -199.3096569 -0.996137E-06  0.317E-03    1.00       2.9  T
   3   -199.3096589 -0.205316E-05  0.121E-03    1.00       7.5  T
   4   -199.3096590 -0.642483E-07  0.873E-04    1.00      10.5  T
   5   -199.3096591 -0.147865E-06  0.260E-04    1.00      35.0  T
   6   -199.3096592 -0.109295E-07  0.745E-05    1.00     122.6  T
   7   -199.3096592 -0.832074E-09  0.340E-05    1.00     268.3  T
     SCC iter.                  ...        0 min,  0.225 sec
     gradient                   ...        0 min,  0.225 sec
 * total energy  :  -195.8994937 Eh     change       -0.1317095E-02 Eh
   gradient norm :     0.0149264 Eh/α   predicted    -0.1207548E-02 (  -8.32%)
   displ. norm   :     0.7378400 α      lambda       -0.1297541E-02
   maximum displ.:     0.4581071 α      in ANC's #20, #8, #21, ...

........................................................................
.............................. CYCLE   19 ..............................
........................................................................
   1   -199.3080523 -0.199308E+03  0.394E-03    1.01       0.0  T
   2   -199.3080532 -0.818589E-06  0.189E-03    1.01       4.8  T
   3   -199.3080535 -0.311644E-06  0.132E-03    1.01       6.9  T
   4   -199.3080538 -0.344121E-06  0.730E-04    1.01      12.5  T
   5   -199.3080539 -0.783964E-07  0.212E-04    1.01      43.1  T
   6   -199.3080539 -0.102416E-07  0.585E-05    1.01     156.2  T
   7   -199.3080539 -0.285951E-09  0.300E-05    1.01     304.4  T
     SCC iter.                  ...        0 min,  0.225 sec
     gradient                   ...        0 min,  0.226 sec
 * total energy  :  -195.9005853 Eh     change       -0.1091597E-02 Eh
   gradient norm :     0.0116275 Eh/α   predicted    -0.1001971E-02 (  -8.21%)
   displ. norm   :     0.6983282 α      lambda       -0.1040667E-02
   maximum displ.:     0.4165542 α      in ANC's #8, #20, #21, ...

........................................................................
.............................. CYCLE   20 ..............................
........................................................................
   1   -199.3082579 -0.199308E+03  0.317E-03    1.01       0.0  T
   2   -199.3082586 -0.639110E-06  0.168E-03    1.01       5.4  T
   3   -199.3082588 -0.237849E-06  0.974E-04    1.01       9.4  T
   4   -199.3082588 -0.102070E-07  0.518E-04    1.01      17.6  T
   5   -199.3082589 -0.418210E-07  0.267E-04    1.01      34.2  T
   6   -199.3082589 -0.272009E-07  0.453E-05    1.01     201.4  T
   7   -199.3082589 -0.343817E-09  0.204E-05    1.01     447.1  T
     SCC iter.                  ...        0 min,  0.228 sec
     gradient                   ...        0 min,  0.224 sec
 * total energy  :  -195.9014681 Eh     change       -0.8828213E-03 Eh
   gradient norm :     0.0102282 Eh/α   predicted    -0.7740821E-03 ( -12.32%)
   displ. norm   :     0.6446587 α      lambda       -0.8706684E-03
   maximum displ.:     0.3971992 α      in ANC's #8, #20, #21, ...
 * RMSD in coord.:     0.8757985 α      energy gain  -0.2995790E+01 Eh

generating ANC from model Hessian ...
Using Lindh-Hessian (1995)
 Shifting diagonal of input Hessian by    1.0000165799028331E-002
 Lowest  eigenvalues of input Hessian
    0.010000    0.000000    0.000000    0.000000    0.000000    0.000000
    0.000000    0.010007    0.010009    0.010032    0.010050    0.010176
    0.010192    0.010390    0.010479    0.010611    0.010617    0.010639
 Highest eigenvalues
    2.195308    2.209758    2.210170    2.242148    2.662083    2.996209


........................................................................
.............................. CYCLE   21 ..............................
........................................................................
   1   -199.3054714 -0.199305E+03  0.311E-03    1.01       0.0  T
   2   -199.3054718 -0.417461E-06  0.173E-03    1.01       5.3  T
   3   -199.3054721 -0.265848E-06  0.117E-03    1.01       7.8  T
   4   -199.3054722 -0.107871E-06  0.603E-04    1.01      15.1  T
   5   -199.3054723 -0.102041E-06  0.167E-04    1.01      54.5  T
   6   -199.3054723 -0.496161E-08  0.433E-05    1.01     210.6  T
     SCC iter.                  ...        0 min,  0.196 sec
     gradient                   ...        0 min,  0.226 sec
 * total energy  :  -195.9021910 Eh     change       -0.7228534E-03 Eh
   gradient norm :     0.0080572 Eh/α   predicted     0.0000000E+00 (-100.00%)
   displ. norm   :     0.1272756 α      lambda       -0.2967048E-03
   maximum displ.:     0.0716935 α      in ANC's #9, #18, #22, ...

........................................................................
.............................. CYCLE   22 ..............................
........................................................................
   1   -199.3069018 -0.199307E+03  0.213E-03    1.01       0.0  T
   2   -199.3069020 -0.187047E-06  0.139E-03    1.01       6.6  T
   3   -199.3069021 -0.138059E-06  0.767E-04    1.01      11.9  T
   4   -199.3069022 -0.770123E-07  0.568E-04    1.01      16.1  T
   5   -199.3069022 -0.759281E-07  0.122E-04    1.01      75.1  T
   6   -199.3069023 -0.212790E-08  0.312E-05    1.01     292.9  T
     SCC iter.                  ...        0 min,  0.195 sec
     gradient                   ...        0 min,  0.224 sec
 * total energy  :  -195.9023480 Eh     change       -0.1570299E-03 Eh
   gradient norm :     0.0058249 Eh/α   predicted    -0.1507563E-03 (  -4.00%)
   displ. norm   :     0.3712576 α      lambda       -0.7875637E-03
   maximum displ.:     0.1982913 α      in ANC's #9, #18, #22, ...

........................................................................
.............................. CYCLE   23 ..............................
........................................................................
   1   -199.3113630 -0.199311E+03  0.560E-03    1.01       0.0  T
   2   -199.3113643 -0.134723E-05  0.367E-03    1.01       2.5  T
   3   -199.3113661 -0.178200E-05  0.188E-03    1.01       4.9  T
   4   -199.3113669 -0.745559E-06  0.142E-03    1.01       6.4  T
   5   -199.3113673 -0.394324E-06  0.281E-04    1.01      32.4  T
   6   -199.3113673 -0.109639E-07  0.931E-05    1.01      98.0  T
   7   -199.3113673 -0.253070E-08  0.379E-05    1.01     240.6  T
     SCC iter.                  ...        0 min,  0.230 sec
     gradient                   ...        0 min,  0.224 sec
 * total energy  :  -195.9026840 Eh     change       -0.3359895E-03 Eh
   gradient norm :     0.0099176 Eh/α   predicted    -0.4480597E-03 (  33.36%)
   displ. norm   :     0.2683924 α      lambda       -0.5411922E-03
   maximum displ.:     0.1395252 α      in ANC's #9, #18, #22, ...

........................................................................
.............................. CYCLE   24 ..............................
........................................................................
   1   -199.3087499 -0.199309E+03  0.170E-03    1.01       0.0  T
   2   -199.3087499 -0.895099E-07  0.139E-03    1.01       6.6  T
   3   -199.3087503 -0.393708E-06  0.586E-04    1.01      15.6  T
   4   -199.3087503  0.296745E-08  0.426E-04    1.01      21.4  T
   5   -199.3087504 -0.392167E-07  0.137E-04    1.01      66.5  T
   6   -199.3087504 -0.383670E-08  0.254E-05    1.01     359.9  T
     SCC iter.                  ...        0 min,  0.195 sec
     gradient                   ...        0 min,  0.224 sec
 * total energy  :  -195.9028627 Eh     change       -0.1787032E-03 Eh
   gradient norm :     0.0106416 Eh/α   predicted    -0.2900888E-03 (  62.33%)
   displ. norm   :     0.2681987 α      lambda       -0.7173580E-03
   maximum displ.:     0.1439998 α      in ANC's #22, #9, #18, ...

........................................................................
.............................. CYCLE   25 ..............................
........................................................................
   1   -199.3028235 -0.199303E+03  0.335E-03    1.01       0.0  T
   2   -199.3028238 -0.377124E-06  0.203E-03    1.01       4.5  T
   3   -199.3028239 -0.708141E-07  0.122E-03    1.01       7.5  T
   4   -199.3028240 -0.593483E-07  0.563E-04    1.01      16.2  T
   5   -199.3028241 -0.924587E-07  0.209E-04    1.01      43.8  T
   6   -199.3028241 -0.159050E-07  0.429E-05    1.01     212.6  T
   7   -199.3028241 -0.362434E-09  0.174E-05    1.01     524.0  T
     SCC iter.                  ...        0 min,  0.226 sec
     gradient                   ...        0 min,  0.226 sec
 * total energy  :  -195.9032647 Eh     change       -0.4020365E-03 Eh
   gradient norm :     0.0074948 Eh/α   predicted    -0.3844792E-03 (  -4.37%)
   displ. norm   :     0.2884835 α      lambda       -0.3743468E-03
   maximum displ.:     0.1588991 α      in ANC's #9, #22, #18, ...

........................................................................
.............................. CYCLE   26 ..............................
........................................................................
   1   -199.2999586 -0.199300E+03  0.180E-03    1.01       0.0  T
   2   -199.2999587 -0.175899E-06  0.997E-04    1.01       9.2  T
   3   -199.2999588 -0.568756E-07  0.591E-04    1.01      15.4  T
   4   -199.2999588 -0.181234E-07  0.323E-04    1.01      28.3  T
   5   -199.2999588 -0.137512E-07  0.134E-04    1.01      68.3  T
   6   -199.2999588 -0.685540E-08  0.319E-05    1.01     286.4  T
     SCC iter.                  ...        0 min,  0.196 sec
     gradient                   ...        0 min,  0.224 sec
 * total energy  :  -195.9035617 Eh     change       -0.2969703E-03 Eh
   gradient norm :     0.0057758 Eh/α   predicted    -0.2027514E-03 ( -31.73%)
   displ. norm   :     0.4614388 α      lambda       -0.4481905E-03
   maximum displ.:     0.2552971 α      in ANC's #9, #22, #18, ...

........................................................................
.............................. CYCLE   27 ..............................
........................................................................
   1   -199.2985927 -0.199299E+03  0.204E-03    1.01       0.0  T
   2   -199.2985932 -0.434396E-06  0.111E-03    1.01       8.2  T
   3   -199.2985933 -0.125958E-06  0.551E-04    1.01      16.6  T
   4   -199.2985933  0.450677E-08  0.345E-04    1.01      26.5  T
   5   -199.2985933 -0.109712E-07  0.162E-04    1.01      56.5  T
   6   -199.2985933 -0.894960E-08  0.385E-05    1.01     237.3  T
     SCC iter.                  ...        0 min,  0.198 sec
     gradient                   ...        0 min,  0.223 sec
 * total energy  :  -195.9039274 Eh     change       -0.3657395E-03 Eh
   gradient norm :     0.0047259 Eh/α   predicted    -0.2718133E-03 ( -25.68%)
   displ. norm   :     0.5469938 α      lambda       -0.4268626E-03
   maximum displ.:     0.3061643 α      in ANC's #9, #22, #18, ...

........................................................................
.............................. CYCLE   28 ..............................
........................................................................
   1   -199.2983318 -0.199298E+03  0.204E-03    1.01       0.0  T
   2   -199.2983322 -0.398923E-06  0.117E-03    1.01       7.8  T
   3   -199.2983323 -0.165895E-06  0.656E-04    1.01      13.9  T
   4   -199.2983323  0.639545E-09  0.410E-04    1.01      22.3  T
   5   -199.2983324 -0.453524E-07  0.157E-04    1.01      58.2  T
   6   -199.2983324 -0.531529E-08  0.362E-05    1.01     252.4  T
     SCC iter.                  ...        0 min,  0.195 sec
     gradient                   ...        0 min,  0.225 sec
 * total energy  :  -195.9042653 Eh     change       -0.3378193E-03 Eh
   gradient norm :     0.0044358 Eh/α   predicted    -0.2772911E-03 ( -17.92%)
   displ. norm   :     0.5107311 α      lambda       -0.3081100E-03
   maximum displ.:     0.2871523 α      in ANC's #22, #9, #18, ...

........................................................................
.............................. CYCLE   29 ..............................
........................................................................
   1   -199.3000133 -0.199300E+03  0.189E-03    1.01       0.0  T
   2   -199.3000135 -0.158965E-06  0.108E-03    1.01       8.5  T
   3   -199.3000136 -0.170344E-06  0.740E-04    1.01      12.3  T
   4   -199.3000137 -0.105381E-06  0.320E-04    1.01      28.6  T
   5   -199.3000137 -0.130348E-07  0.119E-04    1.01      76.5  T
   6   -199.3000138 -0.273803E-08  0.335E-05    1.01     272.6  T
     SCC iter.                  ...        0 min,  0.194 sec
     gradient                   ...        0 min,  0.224 sec
 * total energy  :  -195.9044944 Eh     change       -0.2291328E-03 Eh
   gradient norm :     0.0044683 Eh/α   predicted    -0.1942406E-03 ( -15.23%)
   displ. norm   :     0.3967777 α      lambda       -0.1762323E-03
   maximum displ.:     0.2250429 α      in ANC's #22, #9, #18, ...

........................................................................
.............................. CYCLE   30 ..............................
........................................................................
   1   -199.3025108 -0.199303E+03  0.177E-03    1.01       0.0  T
   2   -199.3025109 -0.119115E-06  0.928E-04    1.01       9.8  T
   3   -199.3025110 -0.115492E-06  0.725E-04    1.01      12.6  T
   4   -199.3025112 -0.139837E-06  0.269E-04    1.01      33.9  T
   5   -199.3025112 -0.178230E-08  0.944E-05    1.01      96.7  T
   6   -199.3025112 -0.223915E-08  0.346E-05    1.01     263.6  T
     SCC iter.                  ...        0 min,  0.193 sec
     gradient                   ...        0 min,  0.223 sec
 * total energy  :  -195.9046208 Eh     change       -0.1263990E-03 Eh
   gradient norm :     0.0036463 Eh/α   predicted    -0.1019935E-03 ( -19.31%)
   displ. norm   :     0.2934609 α      lambda       -0.1028430E-03
   maximum displ.:     0.1631833 α      in ANC's #22, #9, #18, ...

........................................................................
.............................. CYCLE   31 ..............................
........................................................................
   1   -199.3043875 -0.199304E+03  0.137E-03    1.01       0.0  T
   2   -199.3043877 -0.135402E-06  0.814E-04    1.01      11.2  T
   3   -199.3043878 -0.119631E-06  0.479E-04    1.01      19.0  T
   4   -199.3043878 -0.469925E-07  0.244E-04    1.01      37.4  T
   5   -199.3043878 -0.781966E-08  0.851E-05    1.01     107.3  T
   6   -199.3043878 -0.149282E-08  0.272E-05    1.01     335.4  T
     SCC iter.                  ...        0 min,  0.197 sec
     gradient                   ...        0 min,  0.227 sec
 * total energy  :  -195.9046968 Eh     change       -0.7604129E-04 Eh
   gradient norm :     0.0027472 Eh/α   predicted    -0.5585052E-04 ( -26.55%)
   displ. norm   :     0.2569675 α      lambda       -0.8721824E-04
   maximum displ.:     0.1310051 α      in ANC's #22, #9, #6, ...

........................................................................
.............................. CYCLE   32 ..............................
........................................................................
   1   -199.3055262 -0.199306E+03  0.116E-03    1.01       0.0  T
   2   -199.3055264 -0.155295E-06  0.721E-04    1.01      12.7  T
   3   -199.3055265 -0.670343E-07  0.367E-04    1.01      24.9  T
   4   -199.3055265 -0.191196E-08  0.273E-04    1.01      33.4  T
   5   -199.3055265 -0.178091E-07  0.792E-05    1.01     115.3  T
   6   -199.3055265 -0.143081E-08  0.173E-05    1.01     527.7  T
     SCC iter.                  ...        0 min,  0.197 sec
     gradient                   ...        0 min,  0.223 sec
 * total energy  :  -195.9047631 Eh     change       -0.6624393E-04 Eh
   gradient norm :     0.0025921 Eh/α   predicted    -0.4648975E-04 ( -29.82%)
   displ. norm   :     0.2637393 α      lambda       -0.8964476E-04
   maximum displ.:     0.1079977 α      in ANC's #22, #9, #11, ...

........................................................................
.............................. CYCLE   33 ..............................
........................................................................
   1   -199.3053119 -0.199305E+03  0.997E-04    1.01       0.0  T
   2   -199.3053120 -0.109530E-06  0.564E-04    1.01      16.2  T
   3   -199.3053120 -0.178294E-07  0.286E-04    1.01      31.9  T
   4   -199.3053120  0.362724E-08  0.171E-04    1.01      53.5  T
   5   -199.3053120 -0.370071E-08  0.695E-05    1.01     131.3  T
     SCC iter.                  ...        0 min,  0.161 sec
     gradient                   ...        0 min,  0.223 sec
 * total energy  :  -195.9048309 Eh     change       -0.6779090E-04 Eh
   gradient norm :     0.0030729 Eh/α   predicted    -0.4794159E-04 ( -29.28%)
   displ. norm   :     0.2354314 α      lambda       -0.8276507E-04
   maximum displ.:     0.1051474 α      in ANC's #11, #6, #20, ...

........................................................................
.............................. CYCLE   34 ..............................
........................................................................
   1   -199.3043791 -0.199304E+03  0.928E-04    1.01       0.0  T
   2   -199.3043791  0.715579E-08  0.607E-04    1.01      15.0  T
   3   -199.3043791 -0.816753E-07  0.392E-04    1.01      23.3  T
   4   -199.3043792 -0.373793E-07  0.149E-04    1.01      61.1  T
   5   -199.3043792 -0.102210E-08  0.546E-05    1.01     167.2  T
     SCC iter.                  ...        0 min,  0.163 sec
     gradient                   ...        0 min,  0.225 sec
 * total energy  :  -195.9048949 Eh     change       -0.6398957E-04 Eh
   gradient norm :     0.0031429 Eh/α   predicted    -0.4367962E-04 ( -31.74%)
   displ. norm   :     0.2339266 α      lambda       -0.8035737E-04
   maximum displ.:     0.1163368 α      in ANC's #11, #6, #18, ...

........................................................................
.............................. CYCLE   35 ..............................
........................................................................
   1   -199.3023377 -0.199302E+03  0.121E-03    1.01       0.0  T
   2   -199.3023376  0.727997E-07  0.106E-03    1.01       8.6  T
   3   -199.3023380 -0.389820E-06  0.409E-04    1.01      22.3  T
   4   -199.3023380 -0.189602E-07  0.219E-04    1.01      41.7  T
   5   -199.3023380 -0.563000E-08  0.610E-05    1.01     149.6  T
   6   -199.3023380 -0.692637E-09  0.182E-05    1.01     500.2  T
     SCC iter.                  ...        0 min,  0.195 sec
     gradient                   ...        0 min,  0.224 sec
 * total energy  :  -195.9049555 Eh     change       -0.6063698E-04 Eh
   gradient norm :     0.0023136 Eh/α   predicted    -0.4237952E-04 ( -30.11%)
   displ. norm   :     0.2000492 α      lambda       -0.6056259E-04
   maximum displ.:     0.1024562 α      in ANC's #11, #18, #6, ...

........................................................................
.............................. CYCLE   36 ..............................
........................................................................
   1   -199.3009735 -0.199301E+03  0.111E-03    1.01       0.0  T
   2   -199.3009734  0.707018E-07  0.118E-03    1.01       7.8  T
   3   -199.3009739 -0.461778E-06  0.370E-04    1.01      24.7  T
   4   -199.3009738  0.906309E-08  0.274E-04    1.01      33.3  T
   5   -199.3009739 -0.141697E-07  0.605E-05    1.01     150.9  T
   6   -199.3009739 -0.451223E-09  0.153E-05    1.01     598.1  T
     SCC iter.                  ...        0 min,  0.193 sec
     gradient                   ...        0 min,  0.240 sec
 * total energy  :  -195.9050003 Eh     change       -0.4477219E-04 Eh
   gradient norm :     0.0015568 Eh/α   predicted    -0.3149398E-04 ( -29.66%)
   displ. norm   :     0.2386441 α      lambda       -0.4269462E-04
   maximum displ.:     0.1282781 α      in ANC's #11, #6, #5, ...

........................................................................
.............................. CYCLE   37 ..............................
........................................................................
   1   -199.2988703 -0.199299E+03  0.135E-03    1.01       0.0  T
   2   -199.2988702  0.612196E-07  0.135E-03    1.01       6.8  T
   3   -199.2988707 -0.489139E-06  0.503E-04    1.01      18.1  T
   4   -199.2988707  0.246124E-07  0.387E-04    1.01      23.6  T
   5   -199.2988707 -0.338506E-07  0.741E-05    1.01     123.2  T
   6   -199.2988707 -0.869903E-09  0.144E-05    1.01     631.8  T
     SCC iter.                  ...        0 min,  0.197 sec
     gradient                   ...        0 min,  0.225 sec
 * total energy  :  -195.9050408 Eh     change       -0.4048310E-04 Eh
   gradient norm :     0.0024980 Eh/α   predicted    -0.2188895E-04 ( -45.93%)
   displ. norm   :     0.0883971 α      lambda       -0.2665740E-04
   maximum displ.:     0.0449470 α      in ANC's #11, #6, #5, ...

........................................................................
.............................. CYCLE   38 ..............................
........................................................................
   1   -199.3001172 -0.199300E+03  0.594E-04    1.01       0.0  T
   2   -199.3001172 -0.144287E-07  0.321E-04    1.01      28.4  T
   3   -199.3001172  0.271910E-09  0.197E-04    1.01      46.4  T
   4   -199.3001172  0.385427E-09  0.126E-04    1.01      72.5  T
     SCC iter.                  ...        0 min,  0.132 sec
     gradient                   ...        0 min,  0.227 sec
 * total energy  :  -195.9050627 Eh     change       -0.2192337E-04 Eh
   gradient norm :     0.0021780 Eh/α   predicted    -0.1343612E-04 ( -38.71%)
   displ. norm   :     0.2356042 α      lambda       -0.6078548E-04
   maximum displ.:     0.1157510 α      in ANC's #11, #6, #5, ...

........................................................................
.............................. CYCLE   39 ..............................
........................................................................
   1   -199.3002494 -0.199300E+03  0.102E-03    1.01       0.0  T
   2   -199.3002495 -0.104396E-06  0.549E-04    1.01      16.6  T
   3   -199.3002496 -0.442393E-07  0.343E-04    1.01      26.7  T
   4   -199.3002496 -0.164561E-07  0.182E-04    1.01      50.1  T
   5   -199.3002496 -0.488112E-08  0.706E-05    1.01     129.4  T
     SCC iter.                  ...        0 min,  0.160 sec
     gradient                   ...        0 min,  0.226 sec
 * total energy  :  -195.9051031 Eh     change       -0.4046183E-04 Eh
   gradient norm :     0.0020871 Eh/α   predicted    -0.3208267E-04 ( -20.71%)
   displ. norm   :     0.1601734 α      lambda       -0.2716476E-04
   maximum displ.:     0.0824055 α      in ANC's #11, #6, #5, ...

........................................................................
.............................. CYCLE   40 ..............................
........................................................................
   1   -199.3007715 -0.199301E+03  0.562E-04    1.01       0.0  T
   2   -199.3007715 -0.188491E-07  0.450E-04    1.01      20.3  T
   3   -199.3007716 -0.504948E-07  0.187E-04    1.01      48.9  T
   4   -199.3007716 -0.200174E-08  0.132E-04    1.01      68.9  T
     SCC iter.                  ...        0 min,  0.130 sec
     gradient                   ...        0 min,  0.225 sec
 * total energy  :  -195.9051251 Eh     change       -0.2194381E-04 Eh
   gradient norm :     0.0018063 Eh/α   predicted    -0.1393446E-04 ( -36.50%)
   displ. norm   :     0.3127595 α      lambda       -0.3719065E-04
   maximum displ.:     0.1649670 α      in ANC's #6, #11, #5, ...

........................................................................
.............................. CYCLE   41 ..............................
........................................................................
   1   -199.3016914 -0.199302E+03  0.101E-03    1.01       0.0  T
   2   -199.3016914 -0.108110E-08  0.916E-04    1.01      10.0  T
   3   -199.3016916 -0.222771E-06  0.319E-04    1.01      28.6  T
   4   -199.3016916  0.421880E-08  0.270E-04    1.01      33.8  T
   5   -199.3016916 -0.151804E-07  0.692E-05    1.01     131.9  T
   6   -199.3016916 -0.563404E-09  0.211E-05    1.01     431.7  T
     SCC iter.                  ...        0 min,  0.195 sec
     gradient                   ...        0 min,  0.224 sec
 * total energy  :  -195.9051649 Eh     change       -0.3983957E-04 Eh
   gradient norm :     0.0018607 Eh/α   predicted    -0.1940682E-04 ( -51.29%)
   displ. norm   :     0.2493236 α      lambda       -0.2680278E-04
   maximum displ.:     0.1342957 α      in ANC's #6, #11, #5, ...

........................................................................
.............................. CYCLE   42 ..............................
........................................................................
   1   -199.3017259 -0.199302E+03  0.692E-04    1.01       0.0  T
   2   -199.3017259 -0.297642E-07  0.371E-04    1.01      24.6  T
   3   -199.3017259 -0.103885E-07  0.205E-04    1.01      44.6  T
   4   -199.3017259 -0.706450E-09  0.142E-04    1.01      64.2  T
   5   -199.3017259 -0.402864E-08  0.486E-05    1.01     187.7  T
     SCC iter.                  ...        0 min,  0.162 sec
     gradient                   ...        0 min,  0.225 sec
 * total energy  :  -195.9051967 Eh     change       -0.3173135E-04 Eh
   gradient norm :     0.0017446 Eh/α   predicted    -0.1377358E-04 ( -56.59%)
   displ. norm   :     0.2937148 α      lambda       -0.3154796E-04
   maximum displ.:     0.1615238 α      in ANC's #6, #11, #5, ...
 * RMSD in coord.:     0.4389707 α      energy gain  -0.3728531E-02 Eh

generating ANC from model Hessian ...
Using Lindh-Hessian (1995)
 Shifting diagonal of input Hessian by    1.0002315679536524E-002
 Lowest  eigenvalues of input Hessian
    0.010000    0.000000    0.000000    0.000000    0.000000    0.000000
    0.000000    0.010006    0.010012    0.010028    0.010065    0.010168
    0.010190    0.010495    0.010564    0.010603    0.010604    0.010646
 Highest eigenvalues
    2.189037    2.212747    2.212984    2.233179    2.650975    2.984926


........................................................................
.............................. CYCLE   43 ..............................
........................................................................
   1   -199.3025421 -0.199303E+03  0.910E-04    1.01       0.0  T
   2   -199.3025422 -0.426384E-07  0.588E-04    1.01      15.5  T
   3   -199.3025422 -0.479562E-07  0.351E-04    1.01      26.0  T
   4   -199.3025422 -0.140105E-07  0.192E-04    1.01      47.5  T
   5   -199.3025423 -0.777152E-08  0.668E-05    1.01     136.6  T
     SCC iter.                  ...        0 min,  0.163 sec
     gradient                   ...        0 min,  0.241 sec
 * total energy  :  -195.9052286 Eh     change       -0.3196191E-04 Eh
   gradient norm :     0.0020295 Eh/α   predicted     0.0000000E+00 (-100.00%)
   displ. norm   :     0.0221006 α      lambda       -0.1357617E-04
   maximum displ.:     0.0075928 α      in ANC's #8, #20, #32, ...

........................................................................
.............................. CYCLE   44 ..............................
........................................................................
   1   -199.3021866 -0.199302E+03  0.476E-04    1.01       0.0  T
   2   -199.3021866 -0.896279E-09  0.329E-04    1.01      27.7  T
   3   -199.3021866 -0.694149E-08  0.198E-04    1.01      46.1  T
   4   -199.3021866 -0.876577E-08  0.988E-05    1.01      92.4  T
     SCC iter.                  ...        0 min,  0.131 sec
     gradient                   ...        0 min,  0.226 sec
 * total energy  :  -195.9052387 Eh     change       -0.1012736E-04 Eh
   gradient norm :     0.0008886 Eh/α   predicted    -0.6874950E-05 ( -32.12%)
   displ. norm   :     0.0719074 α      lambda       -0.1441184E-04
   maximum displ.:     0.0275458 α      in ANC's #20, #8, #6, ...

........................................................................
.............................. CYCLE   45 ..............................
........................................................................
   1   -199.3013493 -0.199301E+03  0.941E-04    1.01       0.0  T
   2   -199.3013493  0.830630E-08  0.729E-04    1.01      12.5  T
   3   -199.3013494 -0.105770E-06  0.350E-04    1.01      26.1  T
   4   -199.3013494 -0.165996E-07  0.213E-04    1.01      42.9  T
   5   -199.3013495 -0.881471E-08  0.590E-05    1.01     154.8  T
   6   -199.3013495 -0.875076E-09  0.148E-05    1.01     614.9  T
     SCC iter.                  ...        0 min,  0.191 sec
     gradient                   ...        0 min,  0.238 sec
 * total energy  :  -195.9052492 Eh     change       -0.1049187E-04 Eh
   gradient norm :     0.0016977 Eh/α   predicted    -0.7222697E-05 ( -31.16%)
   displ. norm   :     0.0706075 α      lambda       -0.1127702E-04
   maximum displ.:     0.0281079 α      in ANC's #8, #20, #6, ...

........................................................................
.............................. CYCLE   46 ..............................
........................................................................
   1   -199.3009381 -0.199301E+03  0.450E-04    1.01       0.0  T
   2   -199.3009381  0.117694E-09  0.363E-04    1.01      25.2  T
   3   -199.3009381 -0.403645E-07  0.134E-04    1.01      68.0  T
   4   -199.3009381 -0.239115E-08  0.918E-05    1.01      99.4  T
     SCC iter.                  ...        0 min,  0.132 sec
     gradient                   ...        0 min,  0.225 sec
 * total energy  :  -195.9052415 Eh     change        0.7708930E-05 Eh
   gradient norm :     0.0023797 Eh/α   predicted    -0.5657721E-05 (-173.39%)
   displ. norm   :     0.0244405 α      lambda       -0.2505840E-04
   maximum displ.:     0.0100171 α      in ANC's #14, #20, #8, ...

........................................................................
.............................. CYCLE   47 ..............................
........................................................................
   1   -199.3011678 -0.199301E+03  0.370E-04    1.01       0.0  T
   2   -199.3011678 -0.358025E-08  0.225E-04    1.01      40.5  T
   3   -199.3011678  0.280397E-08  0.139E-04    1.01      65.5  T
   4   -199.3011678 -0.372921E-08  0.770E-05    1.01     118.5  T
     SCC iter.                  ...        0 min,  0.131 sec
     gradient                   ...        0 min,  0.224 sec
 * total energy  :  -195.9052591 Eh     change       -0.1760481E-04 Eh
   gradient norm :     0.0011732 Eh/α   predicted    -0.1253799E-04 ( -28.78%)
   displ. norm   :     0.0611623 α      lambda       -0.1438690E-04
   maximum displ.:     0.0271089 α      in ANC's #6, #8, #20, ...

........................................................................
.............................. CYCLE   48 ..............................
........................................................................
   1   -199.3014476 -0.199301E+03  0.548E-04    1.01       0.0  T
   2   -199.3014476 -0.665889E-08  0.391E-04    1.01      23.3  T
   3   -199.3014477 -0.183430E-07  0.201E-04    1.01      45.5  T
   4   -199.3014477 -0.390546E-08  0.133E-04    1.01      68.7  T
   5   -199.3014477 -0.421019E-08  0.362E-05    1.01     252.1  T
     SCC iter.                  ...        0 min,  0.161 sec
     gradient                   ...        0 min,  0.226 sec
 * total energy  :  -195.9052663 Eh     change       -0.7135785E-05 Eh
   gradient norm :     0.0011075 Eh/α   predicted    -0.7206167E-05 (   0.99%)
   displ. norm   :     0.0512698 α      lambda       -0.7337657E-05
   maximum displ.:     0.0247917 α      in ANC's #8, #20, #6, ...

........................................................................
.............................. CYCLE   49 ..............................
........................................................................
   1   -199.3014350 -0.199301E+03  0.169E-04    1.01       0.0  T
   2   -199.3014350 -0.111305E-08  0.921E-05    1.01      99.1  T
   3   -199.3014350 -0.523244E-09  0.641E-05    1.01     142.4  T
     SCC iter.                  ...        0 min,  0.100 sec
     gradient                   ...        0 min,  0.226 sec
 * total energy  :  -195.9052735 Eh     change       -0.7202862E-05 Eh
   gradient norm :     0.0008232 Eh/α   predicted    -0.3675146E-05 ( -48.98%)
   displ. norm   :     0.0839419 α      lambda       -0.8894964E-05
   maximum displ.:     0.0406583 α      in ANC's #6, #8, #20, ...

........................................................................
.............................. CYCLE   50 ..............................
........................................................................
   1   -199.3015350 -0.199302E+03  0.373E-04    1.01       0.0  T
   2   -199.3015350 -0.235428E-08  0.227E-04    1.01      40.2  T
   3   -199.3015350 -0.726601E-09  0.160E-04    1.01      57.0  T
   4   -199.3015350 -0.637610E-08  0.703E-05    1.01     129.9  T
     SCC iter.                  ...        0 min,  0.131 sec
     gradient                   ...        0 min,  0.224 sec
 * total energy  :  -195.9052829 Eh     change       -0.9420403E-05 Eh
   gradient norm :     0.0004661 Eh/α   predicted    -0.4465750E-05 ( -52.59%)
   displ. norm   :     0.1314567 α      lambda       -0.7872079E-05
   maximum displ.:     0.0643966 α      in ANC's #6, #8, #20, ...

........................................................................
.............................. CYCLE   51 ..............................
........................................................................
   1   -199.3018263 -0.199302E+03  0.416E-04    1.01       0.0  T
   2   -199.3018263  0.471394E-08  0.355E-04    1.01      25.7  T
   3   -199.3018264 -0.374191E-07  0.122E-04    1.01      74.7  T
   4   -199.3018264 -0.166770E-08  0.892E-05    1.01     102.4  T
     SCC iter.                  ...        0 min,  0.132 sec
     gradient                   ...        0 min,  0.224 sec
 * total energy  :  -195.9052923 Eh     change       -0.9399145E-05 Eh
   gradient norm :     0.0005896 Eh/α   predicted    -0.3967761E-05 ( -57.79%)
   displ. norm   :     0.1467047 α      lambda       -0.7235546E-05
   maximum displ.:     0.0740512 α      in ANC's #6, #8, #4, ...

........................................................................
.............................. CYCLE   52 ..............................
........................................................................
   1   -199.3022343 -0.199302E+03  0.399E-04    1.01       0.0  T
   2   -199.3022343  0.341876E-08  0.340E-04    1.01      26.9  T
   3   -199.3022343 -0.333800E-07  0.124E-04    1.01      73.5  T
   4   -199.3022343 -0.154830E-08  0.899E-05    1.01     101.5  T
     SCC iter.                  ...        0 min,  0.130 sec
     gradient                   ...        0 min,  0.240 sec
 * total energy  :  -195.9053005 Eh     change       -0.8215450E-05 Eh
   gradient norm :     0.0004874 Eh/α   predicted    -0.3653176E-05 ( -55.53%)
   displ. norm   :     0.1054660 α      lambda       -0.4184203E-05
   maximum displ.:     0.0562173 α      in ANC's #6, #4, #8, ...

........................................................................
.............................. CYCLE   53 ..............................
........................................................................
   1   -199.3024752 -0.199302E+03  0.232E-04    1.01       0.0  T
   2   -199.3024752 -0.107892E-08  0.174E-04    1.01      52.4  T
   3   -199.3024752 -0.637368E-08  0.762E-05    1.01     119.8  T
     SCC iter.                  ...        0 min,  0.099 sec
     gradient                   ...        0 min,  0.225 sec
 * total energy  :  -195.9053053 Eh     change       -0.4848929E-05 Eh
   gradient norm :     0.0003895 Eh/α   predicted    -0.2107071E-05 ( -56.55%)
   displ. norm   :     0.0780574 α      lambda       -0.3106187E-05
   maximum displ.:     0.0445898 α      in ANC's #6, #4, #8, ...

   *** GEOMETRY OPTIMIZATION CONVERGED AFTER 53 ITERATIONS ***

------------------------------------------------------------------------
 total energy gain   :        -2.9996274 Eh    -1882.2946 kcal/mol
 total RMSD          :         1.0934498 a0        0.5786 Å
 total power (kW/mol):      -148.5947293 (step) -274.1403 (real)
------------------------------------------------------------------------

 ANCopt (total)                0 d,  0 h,  0 min, 28.728 sec
 optimizer setup                ...        0 min,  0.000 sec (  0.001%)
 model hessian                  ...        0 min,  0.119 sec (  0.415%)
 ANC generation                 ...        0 min,  0.056 sec (  0.195%)
 coordinate transformation      ...        0 min,  0.005 sec (  0.018%)
 single point calculation       ...        0 min, 28.494 sec ( 99.186%)
 optimization log               ...        0 min,  0.023 sec (  0.079%)
 hessian update                 ...        0 min,  0.005 sec (  0.019%)
 rational function              ...        0 min,  0.021 sec (  0.072%)

================
 final structure:
================
120
 xtb: 6.5.1 (b24c23e)
C            9.35239017508687       -0.08601328941797        0.05425704745149
C            9.96078165575817       -1.16486890822451        0.68271432260496
C            9.30909785978993       -2.26296974865834        1.31125715939451
C           10.27166788739033       -3.09109418554331        1.81634234397781
C           11.54261635003857       -2.52151262935019        1.51920613576916
N           11.30419343474865       -1.36757296421186        0.82799945446408
C           12.80506273115976       -3.03218473075463        1.84040228734360
C           14.02134179883336       -2.44644286789253        1.48330096234789
C           15.31796415674749       -2.96965439185778        1.87403534644665
C           16.24048197962349       -2.14037948439025        1.34349867550463
N           14.17811003794943       -1.31124858046357        0.74749400781995
C           15.50605990683079       -1.10695695138097        0.63969635697031
C           16.14469634195163       -0.05452879877956       -0.04803525251520
C           15.50933201999091        1.01170564981600       -0.71271747756518
C           16.15338750588865        2.06249411004831       -1.41788815542674
C           15.18692502810518        2.90068770448584       -1.90103143748677
C           13.92181225213424        2.39015207465272       -1.49831152557851
C           12.66092103967662        2.92630250486591       -1.78032309294816
C           12.63203298116233        4.20261462643847       -2.53566204961716
C           12.00759284748715        4.27454855865683       -3.78177214036529
C           11.98301174070393        5.46896893555848       -4.48584512869532
C           12.57671332406677        6.60572673546935       -3.95412678642570
C           13.19855122161369        6.54287179707552       -2.71453665932035
C           13.22932933648507        5.34912599671789       -2.00947501518393
C           11.44363451391992        2.34999015464290       -1.40260527134723
C           10.14129122677606        2.94316069892182       -1.66351714524355
C            9.22557758978089        2.09386387444551       -1.15555317673603
C            9.96751796089787        0.99009129117658       -0.57225449949721
N           11.29980614589234        1.18161730052677       -0.73300609742311
N           14.16865809025953        1.24291229346836       -0.79110689570569
C           12.83443735584183       -4.29329263553527        2.62249645306747
C           12.27926822837579       -4.34529850474049        3.90164226358785
C           12.31104426408014       -5.52371572022369        4.63226102032377
C           12.89070695804272       -6.66400745703909        4.09300306418167
C           13.44188231931524       -6.62103742168658        2.81949140224718
C           13.41709630307747       -5.44318612381146        2.08809514255306
H            8.26705637378065       -0.08911419736795        0.06445559951640
H            8.23967798271132       -2.39288044859112        1.35983326275376
H           10.12141776705592       -4.02002766175986        2.34220361340126
H           12.02885440162234       -0.75324285171545        0.47211018901529
H           15.47863567943723       -3.84463482645785        2.48277475136164
H           17.31495155479924       -2.19584268662052        1.41492374269580
H           17.22077801906973        2.15413489746404       -1.53846462839930
H           15.33361113820948        3.78920716642690       -2.49318005640209
H           11.55545423714805        3.38450851937866       -4.20498233095654
H           11.49890802481457        5.51198648424996       -5.45522359989117
H           12.55474496307375        7.53924586333180       -4.50489520495126
H           13.66108035304568        7.42848278377396       -2.29298867226911
H           13.70287512395196        5.30607113674422       -1.03484908802564
H            9.97529511037996        3.88706800160864       -2.15735538676282
H            8.15047446851885        2.18327919248722       -1.15117758327430
H           13.44719015216901        0.65269721850723       -0.39019650972372
H           11.83827680136713       -3.45197918212940        4.33004693474899
H           11.88260680281261       -5.55079671095800        5.62810411557596
H           12.91323815210060       -7.58493505330621        4.66456389369166
H           13.89317988478879       -7.50990688325800        2.39273143897107
H           13.83774997866145       -5.41385137508828        1.08914324860973
C           32.11091282776592        0.08322284710168       -0.05647932007810
C           31.50283714112126        1.11305212189208       -0.76270134354462
C           32.15482316596778        2.15055778450348       -1.48665258923767
C           31.19250318532932        2.96170252148071       -2.01905333979947
C           29.92143040817128        2.45001686547475       -1.63106693167468
N           30.15951176406498        1.33170427638867       -0.88347026825768
C           28.65907701641776        2.95886581074784       -1.95542818175132
C           27.44277774561745        2.38597706514957       -1.57818104112954
C           26.14623739056299        2.96291315163116       -1.88431811265142
C           25.22364763105122        2.12933515554757       -1.36069060993520
N           27.28590304528227        1.23583574456616       -0.86595024447328
C           25.95796581226778        1.05141203394268       -0.72697544482922
C           25.31909063806528       -0.01961089677793       -0.06875981820879
C           25.95407725575908       -1.07579800349980        0.61208701047536
C           25.30966029625212       -2.16111984799493        1.26252190732926
C           26.27590338709954       -2.95613875539761        1.81420217559653
C           27.54124670791584       -2.37510293658634        1.52322889534193
C           28.80205608691827       -2.85987766204217        1.88676629363716
C           28.83068690651932       -4.08734855964432        2.71917681155237
C           29.45304539997203       -5.24599048659181        2.25218012466007
C           29.47744995587101       -6.39202798911638        3.03255874339324
C           28.88568473975404       -6.39483543123645        4.28843857165902
C           28.26586731030539       -5.24597148464014        4.76083894112832
C           28.23522190666540       -4.09934524364386        3.98148419431717
C           30.01944453762251       -2.27335229204070        1.52544754882297
C           31.32186306277400       -2.76367776024708        1.94888631831704
C           32.23761066272774       -1.94231053886319        1.39696556321338
C           31.49563962109332       -0.94276557472364        0.64899571312269
N           30.16329932000317       -1.16899762120973        0.75482056077723
N           27.29473074645239       -1.24613335783362        0.78709906275896
C           28.62964081805120        4.20463485691413       -2.76179300865553
C           29.18321728151235        5.38395771634457       -2.26198191743381
C           29.15088158209374        6.54788916330485       -3.01545985028765
C           28.57242799353651        6.54673028641046       -4.27738368035731
C           28.02301940761200        5.37628754249075       -4.78303177356988
C           28.04819551858941        4.21194360318028       -4.03033696643526
H           33.19625716432201        0.09305683663767       -0.05556746059493
H           33.22426960748837        2.24958825047839       -1.58348443384989
H           31.34295253611562        3.83434251088082       -2.63378542116915
H           29.43457277932409        0.74768897054486       -0.48024683349369
H           25.98571414503507        3.88698187797379       -2.41563634677601
H           24.14919877454874        2.21789425624786       -1.38006193197682
H           24.24218514992391       -2.30851919463308        1.29466409464375
H           26.12894418497765       -3.87041050062097        2.36569323873011
H           29.90371013685464       -5.25003748114199        1.26597714462639
H           29.95992041287605       -7.28785828324610        2.65756782292008
H           28.90758091189766       -7.29096622365447        4.89815943926275
H           27.80482441861517       -5.24154516920239        5.74235456781304
H           27.76321762277161       -3.19879997952175        4.35861366145471
H           31.48786937965312       -3.61360667627077        2.59111296243850
H           33.31277914394083       -1.97738054183165        1.47846718034707
H           28.01648227610861       -0.63226009198560        0.42399283248242
H           29.62333581784070        5.39019343901656       -1.27088145042602
H           29.57794514419034        7.46036048957984       -2.61418832101695
H           28.54951368806989        7.45684604518993       -4.86599901468570
H           27.57270487821873        5.36961839338677       -5.76947298860629
H           27.62867369819554        3.29575924724269       -4.43076307969004
C           21.34616228535831       -0.05823885112863       -0.09237653426828
C           20.11760273574886       -0.05873226367886       -0.09294297476677
C           18.77372821984433       -0.05681507446906       -0.08543389255153
C           17.54968855722462       -0.05473156371785       -0.07225341604285
C           22.69005917502680       -0.05387970990697       -0.08797777912254
C           23.91406734005833       -0.04049911675759       -0.07859142821220

 Bond Distances (Angstroems)
 ---------------------------
[...]
     4   6 C    3.959 --     3 C    1.595     5 C    1.235    39 H    0.974
     5   6 C    3.896 --     7 C    1.303     4 C    1.235     6 N    1.177
     6   7 N    3.469 --     5 C    1.177     2 C    1.170    40 H    0.873
     7   6 C    3.939 --     8 C    1.337     5 C    1.303    31 C    1.027
     8   6 C    3.915 --     7 C    1.337    11 N    1.284     9 C    1.125
     9   6 C    3.966 --    10 C    1.710     8 C    1.125    41 H    0.974
    10   6 C    3.964 --     9 C    1.710    12 C    1.128    42 H    0.974
    11   7 N    3.022 --    12 C    1.346     8 C    1.284
    12   6 C    3.908 --    11 N    1.346    13 C    1.252    10 C    1.128
    13   6 C    3.937 --    12 C    1.252    14 C    1.251   118 C    1.193
    14   6 C    3.885 --    13 C    1.251    15 C    1.249    30 N    1.190
    15   6 C    3.959 --    16 C    1.583    14 C    1.249    43 H    0.975
    16   6 C    3.955 --    15 C    1.583    17 C    1.241    44 H    0.974
    17   6 C    3.898 --    18 C    1.310    16 C    1.241    30 N    1.165
    18   6 C    3.925 --    25 C    1.321    17 C    1.310    19 C    1.030
    19   6 C    3.988 --    24 C    1.394    20 C    1.394    18 C    1.030
                            22 C    0.108
    20   6 C    3.987 --    21 C    1.448    19 C    1.394    45 H    0.973
                            23 C    0.109
    21   6 C    3.995 --    20 C    1.448    22 C    1.437    46 H    0.973
                            24 C    0.109
    22   6 C    3.989 --    23 C    1.437    21 C    1.437    47 H    0.974
                            19 C    0.108
    23   6 C    3.995 --    24 C    1.448    22 C    1.437    48 H    0.973
                            20 C    0.109
    24   6 C    3.986 --    23 C    1.448    19 C    1.394    49 H    0.973
                            21 C    0.109
    25   6 C    3.929 --    18 C    1.321    29 N    1.317    26 C    1.118
    26   6 C    3.967 --    27 C    1.722    25 C    1.118    50 H    0.974
    27   6 C    3.966 --    26 C    1.722    28 C    1.117    51 H    0.976
    28   6 C    3.929 --     1 C    1.365    29 N    1.300    27 C    1.117
    29   7 N    3.012 --    25 C    1.317    28 C    1.300
    30   7 N    3.474 --    14 C    1.190    17 C    1.165    52 H    0.873
    31   6 C    3.989 --    32 C    1.396    36 C    1.395     7 C    1.027
                            34 C    0.108
    32   6 C    3.987 --    33 C    1.447    31 C    1.396    53 H    0.973
                            35 C    0.110
    33   6 C    3.995 --    32 C    1.447    34 C    1.438    54 H    0.973
                            36 C    0.110
    34   6 C    3.990 --    33 C    1.438    35 C    1.437    55 H    0.974
                            31 C    0.108
    35   6 C    3.995 --    36 C    1.448    34 C    1.437    56 H    0.973
                            32 C    0.110
    36   6 C    3.988 --    35 C    1.448    31 C    1.395    57 H    0.973
                            33 C    0.110
    37   1 H    1.002 --     1 C    0.971
    38   1 H    0.998 --     3 C    0.977
    39   1 H    1.005 --     4 C    0.974
    40   1 H    0.986 --     6 N    0.873
    41   1 H    1.005 --     9 C    0.974
    42   1 H    1.003 --    10 C    0.974
    43   1 H    1.002 --    15 C    0.975
    44   1 H    1.005 --    16 C    0.974
    45   1 H    1.005 --    20 C    0.973
    46   1 H    1.003 --    21 C    0.973
    47   1 H    1.003 --    22 C    0.974
    48   1 H    1.003 --    23 C    0.973
    49   1 H    1.005 --    24 C    0.973
    50   1 H    1.005 --    26 C    0.974
    51   1 H    0.998 --    27 C    0.976
    52   1 H    0.987 --    30 N    0.873
    53   1 H    1.005 --    32 C    0.973
    54   1 H    1.003 --    33 C    0.973
    55   1 H    1.003 --    34 C    0.974
    56   1 H    1.003 --    35 C    0.973
    57   1 H    1.005 --    36 C    0.973
    58   6 C    3.924 --    85 C    1.365    59 C    1.346    94 H    0.971
    59   6 C    3.903 --    58 C    1.346    60 C    1.230    63 N    1.170
    60   6 C    3.953 --    61 C    1.595    59 C    1.230    95 H    0.977
    61   6 C    3.959 --    60 C    1.595    62 C    1.235    96 H    0.974
    62   6 C    3.896 --    64 C    1.303    61 C    1.235    63 N    1.177
    63   7 N    3.469 --    62 C    1.177    59 C    1.170    97 H    0.873
    64   6 C    3.939 --    65 C    1.337    62 C    1.303    88 C    1.027
    65   6 C    3.915 --    64 C    1.337    68 N    1.284    66 C    1.125
    66   6 C    3.966 --    67 C    1.710    65 C    1.125    98 H    0.974
    67   6 C    3.964 --    66 C    1.710    69 C    1.128    99 H    0.974
    68   7 N    3.022 --    69 C    1.346    65 C    1.284
    69   6 C    3.908 --    68 N    1.346    70 C    1.252    67 C    1.128
    70   6 C    3.937 --    69 C    1.252    71 C    1.251   120 C    1.193
    71   6 C    3.885 --    70 C    1.251    72 C    1.249    87 N    1.190
    72   6 C    3.959 --    73 C    1.583    71 C    1.249   100 H    0.975
    73   6 C    3.955 --    72 C    1.583    74 C    1.241   101 H    0.974
    74   6 C    3.898 --    75 C    1.310    73 C    1.241    87 N    1.165
    75   6 C    3.925 --    82 C    1.321    74 C    1.310    76 C    1.030
    76   6 C    3.988 --    81 C    1.394    77 C    1.394    75 C    1.030
                            79 C    0.108
    77   6 C    3.987 --    78 C    1.448    76 C    1.394   102 H    0.973
                            80 C    0.109
    78   6 C    3.995 --    77 C    1.448    79 C    1.437   103 H    0.973
                            81 C    0.109
    79   6 C    3.989 --    80 C    1.437    78 C    1.437   104 H    0.974
                            76 C    0.108
    80   6 C    3.995 --    81 C    1.448    79 C    1.437   105 H    0.973
                            77 C    0.109
    81   6 C    3.986 --    80 C    1.448    76 C    1.394   106 H    0.973
                            78 C    0.109
    82   6 C    3.929 --    75 C    1.321    86 N    1.317    83 C    1.118
    83   6 C    3.967 --    84 C    1.722    82 C    1.118   107 H    0.974
    84   6 C    3.966 --    83 C    1.722    85 C    1.117   108 H    0.976
    85   6 C    3.929 --    58 C    1.365    86 N    1.300    84 C    1.117
    86   7 N    3.012 --    82 C    1.317    85 C    1.300
    87   7 N    3.474 --    71 C    1.190    74 C    1.165   109 H    0.873
    88   6 C    3.989 --    89 C    1.396    93 C    1.395    64 C    1.027
                            91 C    0.108
    89   6 C    3.987 --    90 C    1.447    88 C    1.396   110 H    0.973
                            92 C    0.110
    90   6 C    3.995 --    89 C    1.447    91 C    1.438   111 H    0.973
                            93 C    0.110
    91   6 C    3.990 --    90 C    1.438    92 C    1.437   112 H    0.974
                            88 C    0.108
    92   6 C    3.995 --    93 C    1.448    91 C    1.437   113 H    0.973
                            89 C    0.110
    93   6 C    3.988 --    92 C    1.448    88 C    1.395   114 H    0.973
                            90 C    0.110
    94   1 H    1.002 --    58 C    0.971
    95   1 H    0.998 --    60 C    0.977
    96   1 H    1.005 --    61 C    0.974
    97   1 H    0.986 --    63 N    0.873
    98   1 H    1.005 --    66 C    0.974
    99   1 H    1.003 --    67 C    0.974
   100   1 H    1.002 --    72 C    0.975
   101   1 H    1.005 --    73 C    0.974
   102   1 H    1.005 --    77 C    0.973
   103   1 H    1.003 --    78 C    0.973
   104   1 H    1.003 --    79 C    0.974
   105   1 H    1.003 --    80 C    0.973
   106   1 H    1.005 --    81 C    0.973
   107   1 H    1.005 --    83 C    0.974
   108   1 H    0.998 --    84 C    0.976
   109   1 H    0.987 --    87 N    0.873
   110   1 H    1.005 --    89 C    0.973
   111   1 H    1.003 --    90 C    0.973
   112   1 H    1.003 --    91 C    0.974
   113   1 H    1.003 --    92 C    0.973
   114   1 H    1.005 --    93 C    0.973
   115   6 C    3.925 --   116 C    2.366   119 C    1.337   118 C    0.190
   116   6 C    3.925 --   115 C    2.366   117 C    1.337   120 C    0.190
   117   6 C    3.932 --   118 C    2.446   116 C    1.337
   118   6 C    3.890 --   117 C    2.446    13 C    1.193   115 C    0.190
   119   6 C    3.932 --   120 C    2.446   115 C    1.337
   120   6 C    3.890 --   119 C    2.446    70 C    1.193   116 C    0.190
 ---------------------------------------------------------------------------

Topologies differ in total number of bonds
Writing topology from bond orders to xtbtopo.mol

 dipole moment from electron density (au)
     X       Y       Z   
   0.0001   0.0764   0.1206  total (Debye):    0.363

           -------------------------------------------------
          |                Geometry Summary                 |
           -------------------------------------------------

      molecular mass/u    :      995.1386502
   center of mass at/Å    :       20.7317160      -0.0046235      -0.0067619
  moments of inertia/u·Å² :        0.1699440E+05   0.6359719E+05   0.8003737E+05
rotational constants/cm⁻¹ :        0.9919523E-03   0.2650688E-03   0.2106220E-03

 * 123 selected distances

     #   Z          #   Z                                           value/Å
     1   6 C        2   6 C                                       1.3888947
     2   6 C        3   6 C                                       1.4232300
     3   6 C        4   6 C                                       1.3665440
     4   6 C        5   6 C                                       1.4240869
     2   6 C        6   7 N                                       1.3663646
     5   6 C        6   7 N                                       1.3660854
     5   6 C        7   6 C                                       1.3991870
     7   6 C        8   6 C                                       1.3964061
     8   6 C        9   6 C                                       1.4517760
     9   6 C       10   6 C                                       1.3491499
     8   6 C       11   7 N                                       1.3618570
    10   6 C       12   6 C                                       1.4500607
    11   7 N       12   6 C                                       1.3478897
    12   6 C       13   6 C                                       1.4101194
    13   6 C       14   6 C                                       1.4079583
    14   6 C       15   6 C                                       1.4199401
    15   6 C       16   6 C                                       1.3674963
    16   6 C       17   6 C                                       1.4224418
    17   6 C       18   6 C                                       1.3988691
    19   6 C       20   6 C                                       1.3956685
    20   6 C       21   6 C                                       1.3867096
    21   6 C       22   6 C                                       1.3883172
    22   6 C       23   6 C                                       1.3882425
    19   6 C       24   6 C                                       1.3957523
    23   6 C       24   6 C                                       1.3867547
    18   6 C       25   6 C                                       1.3987829
    26   6 C       27   6 C                                       1.3482820
     1   6 C       28   6 C                                       1.3888486
    27   6 C       28   6 C                                       1.4522490
    25   6 C       29   7 N                                       1.3543061
    28   6 C       29   7 N                                       1.3555499
    14   6 C       30   7 N                                       1.3627209
    17   6 C       30   7 N                                       1.3701207
    31   6 C       32   6 C                                       1.3953966
    32   6 C       33   6 C                                       1.3868962
    33   6 C       34   6 C                                       1.3881908
    34   6 C       35   6 C                                       1.3883346
    31   6 C       36   6 C                                       1.3954682
    35   6 C       36   6 C                                       1.3866827
     1   6 C       37   1 H                                       1.0853862
     3   6 C       38   1 H                                       1.0783763
     4   6 C       39   1 H                                       1.0779716
     6   7 N       40   1 H                                       1.0144912 (min)
     9   6 C       41   1 H                                       1.0779471
    10   6 C       42   1 H                                       1.0782684
    15   6 C       43   1 H                                       1.0780814
    16   6 C       44   1 H                                       1.0777866
    20   6 C       45   1 H                                       1.0843005
    21   6 C       46   1 H                                       1.0843900
    22   6 C       47   1 H                                       1.0841064
    23   6 C       48   1 H                                       1.0844090
    24   6 C       49   1 H                                       1.0844331
    26   6 C       50   1 H                                       1.0781429
    27   6 C       51   1 H                                       1.0788240
    30   7 N       52   1 H                                       1.0146917
    32   6 C       53   1 H                                       1.0844462
    33   6 C       54   1 H                                       1.0844334
    34   6 C       55   1 H                                       1.0841113
    35   6 C       56   1 H                                       1.0843813
    36   6 C       57   1 H                                       1.0843040
    58   6 C       59   6 C                                       1.3889040
    59   6 C       60   6 C                                       1.4232391
    60   6 C       61   6 C                                       1.3665528
    61   6 C       62   6 C                                       1.4240723
    59   6 C       63   7 N                                       1.3663518
    62   6 C       63   7 N                                       1.3660918
    62   6 C       64   6 C                                       1.3991690
    64   6 C       65   6 C                                       1.3963886
    65   6 C       66   6 C                                       1.4517550
    66   6 C       67   6 C                                       1.3491517
    65   6 C       68   7 N                                       1.3618766
    67   6 C       69   6 C                                       1.4500816
    68   7 N       69   6 C                                       1.3478664
    69   6 C       70   6 C                                       1.4101418
    70   6 C       71   6 C                                       1.4079389
    71   6 C       72   6 C                                       1.4199516
    72   6 C       73   6 C                                       1.3674912
    73   6 C       74   6 C                                       1.4224494
    74   6 C       75   6 C                                       1.3988590
    76   6 C       77   6 C                                       1.3956602
    77   6 C       78   6 C                                       1.3867187
    78   6 C       79   6 C                                       1.3883186
    79   6 C       80   6 C                                       1.3882451
    76   6 C       81   6 C                                       1.3957589
    80   6 C       81   6 C                                       1.3867534
    75   6 C       82   6 C                                       1.3987846
    83   6 C       84   6 C                                       1.3482784
    58   6 C       85   6 C                                       1.3888516
    84   6 C       85   6 C                                       1.4522639 (max)
    82   6 C       86   7 N                                       1.3543115
    85   6 C       86   7 N                                       1.3555482
    71   6 C       87   7 N                                       1.3627162
    74   6 C       87   7 N                                       1.3701204
    88   6 C       89   6 C                                       1.3953712
    89   6 C       90   6 C                                       1.3869071
    90   6 C       91   6 C                                       1.3881866
    91   6 C       92   6 C                                       1.3883322
    88   6 C       93   6 C                                       1.3954699
    92   6 C       93   6 C                                       1.3866797
    58   6 C       94   1 H                                       1.0853894
    60   6 C       95   1 H                                       1.0783781
    61   6 C       96   1 H                                       1.0779756
    63   7 N       97   1 H                                       1.0144948
    66   6 C       98   1 H                                       1.0779471
    67   6 C       99   1 H                                       1.0782664
    72   6 C      100   1 H                                       1.0780831
    73   6 C      101   1 H                                       1.0777905
    77   6 C      102   1 H                                       1.0843024
    78   6 C      103   1 H                                       1.0843929
    79   6 C      104   1 H                                       1.0841077
    80   6 C      105   1 H                                       1.0844138
    81   6 C      106   1 H                                       1.0844338
    83   6 C      107   1 H                                       1.0781431
    84   6 C      108   1 H                                       1.0788234
    87   7 N      109   1 H                                       1.0146980
    89   6 C      110   1 H                                       1.0844462
    90   6 C      111   1 H                                       1.0844382
    91   6 C      112   1 H                                       1.0841144
    92   6 C      113   1 H                                       1.0843865
    93   6 C      114   1 H                                       1.0843125
   115   6 C      116   6 C                                       1.2285599
   117   6 C      118   6 C                                       1.2241125
   119   6 C      120   6 C                                       1.2241174

 * 4 distinct bonds (by element types)

   Z      Z             #   av. dist./Å        max./Å        min./Å
   1 H    6 C          38     1.0817959     1.0853894     1.0777866
   6 C    6 C          65     1.3903116     1.4522639     1.2241125
   1 H    7 N           4     1.0145939     1.0146980     1.0144912
   6 C    7 N          16     1.3606111     1.3701207     1.3478664


optimized geometry written to: xtbopt.xyz


           -------------------------------------------------
          | TOTAL ENERGY             -195.905305350904 Eh   |
          | GRADIENT NORM               0.000389121190 Eh/α |
          | HOMO-LUMO GAP               1.008816328004 eV   |
           -------------------------------------------------

------------------------------------------------------------------------
 * finished run on 2022/07/29 at 19:31:12.029     
------------------------------------------------------------------------
 total:
 * wall-time:     0 d,  0 h,  0 min, 30.210 sec
 *  cpu-time:     0 d,  0 h,  0 min, 30.038 sec
 * ratio c/w:     0.994 speedup
 SCF:
 * wall-time:     0 d,  0 h,  0 min,  0.941 sec
 *  cpu-time:     0 d,  0 h,  0 min,  0.936 sec
 * ratio c/w:     0.994 speedup
 ANC optimizer:
 * wall-time:     0 d,  0 h,  0 min, 29.164 sec
 *  cpu-time:     0 d,  0 h,  0 min, 29.003 sec
 * ratio c/w:     0.994 speedup

