120
 energy: -192.905677952424 gnorm: 8.829306643353 xtb: 6.5.1 (b24c23e)
C            9.64125000000000       -0.01031500000000       -0.05039300000000
C           10.36974300000000       -1.26849300000000        0.51421100000000
C            9.76113300000000       -2.43301200000000        0.92392500000000
C           10.78292200000000       -3.28427400000000        1.41877200000000
C           11.98099100000000       -2.60687900000000        1.30092000000000
N           11.72238400000000       -1.39975000000000        0.70123200000000
C           13.40348000000000       -3.10899300000000        1.79045200000000
C           14.53331100000000       -2.43376600000000        1.44561000000000
C           15.83794900000000       -2.83000500000000        1.93480000000000
C           16.74031500000000       -1.97974600000000        1.45949800000000
N           14.72958800000000       -1.32750200000000        0.66114200000000
C           16.06114000000000       -1.00271100000000        0.63115100000000
C           16.72878500000000       -0.00020600000000        0.00005700000000
C           15.95113500000000        1.03266900000000       -0.92063800000000
C           16.49152500000000        1.76805600000000       -1.95760300000000
C           15.46673300000000        2.60168900000000       -2.47045400000000
C           14.32648800000000        2.34433300000000       -1.73977800000000
C           12.91718900000000        3.05005000000000       -1.92319100000000
C           12.88994300000000        4.38836500000000       -2.55606800000000
C           12.51726700000000        4.53354300000000       -3.89836600000000
C           12.50632300000000        5.79555400000000       -4.49530400000000
C           12.87108000000000        6.91999400000000       -3.75377100000000
C           13.24646400000000        6.78330900000000       -2.41657200000000
C           13.25674500000000        5.52087700000000       -1.82009800000000
C           11.79156100000000        2.42875600000000       -1.48397100000000
C           10.46968200000000        3.01751000000000       -1.60705000000000
C            9.58386600000000        2.16539300000000       -1.09962700000000
C           10.30548900000000        1.01062200000000       -0.62362300000000
N           11.62658100000000        1.21843500000000       -0.86967300000000
N           14.61715200000000        1.35036500000000       -0.83514600000000
C           13.44094500000000       -4.30082500000000        2.67130100000000
C           13.18858800000000       -4.17235600000000        4.04223800000000
C           13.21315300000000       -5.29527000000000        4.87147500000000
C           13.48921000000000       -6.55325800000000        4.33381300000000
C           13.74097100000000       -6.68957500000000        2.96790500000000
C           13.71598800000000       -5.56651900000000        2.13895100000000
H            8.56341500000000        0.03805300000000        0.04773400000000
H            8.70276900000000       -2.63976100000000        0.88685600000000
H           10.65573400000000       -4.27105000000000        1.83792500000000
H           12.42359700000000       -0.71035900000000        0.44145400000000
H           16.04902500000000       -3.66146500000000        2.58340300000000
H           17.79385000000000       -2.03005400000000        1.66486000000000
H           17.51344100000000        1.72212500000000       -2.30183400000000
H           15.55124600000000        3.31339700000000       -3.27785100000000
H           12.23303300000000        3.64969700000000       -4.46555000000000
H           12.21203700000000        5.89366700000000       -5.53520000000000
H           12.86228800000000        7.90155700000000       -4.21672800000000
H           13.53149600000000        7.65291700000000       -1.83313800000000
H           13.54777100000000        5.40357400000000       -0.77845600000000
H           10.24183400000000        3.97809000000000       -2.03277700000000
H            8.52036200000000        2.30971600000000       -1.04183000000000
H           13.93385600000000        0.88896500000000       -0.24020000000000
H           12.97626800000000       -3.18657300000000        4.45044700000000
H           13.01790600000000       -5.18098000000000        5.93288000000000
H           13.50986800000000       -7.42582500000000        4.97888800000000
H           13.95877200000000       -7.66409400000000        2.54294700000000
H           13.91393400000000       -5.65938800000000        1.07327700000000
C           31.82219600000000       -0.04151200000000       -0.03062200000000
C           31.09370300000000        1.00617100000000       -0.92736500000000
C           31.70231200000000        1.87380400000000       -1.80553600000000
C           30.68052300000000        2.68469600000000       -2.36408400000000
C           29.48245500000000        2.28894500000000       -1.80182600000000
N           29.74106200000000        1.23132800000000       -0.96622300000000
C           28.05996600000000        2.94597900000000       -2.04690900000000
C           26.93013400000000        2.34588600000000       -1.58351300000000
C           25.62549600000000        2.95741500000000       -1.73299800000000
C           24.72313000000000        2.16462600000000       -1.16701300000000
N           26.73385800000000        1.16423200000000       -0.91800400000000
C           25.40230499999999        0.99845900000000       -0.63709800000000
C           24.73466000000000       -0.00020600000000        0.00005700000000
C           25.51231100000000       -1.27372100000000        0.54104500000000
C           24.97192000000000       -2.52538300000000        0.76337900000000
C           25.99671200000000       -3.34502900000000        1.29830100000000
C           27.13695700000000       -2.57441400000000        1.37749600000000
C           28.54625700000000       -3.04154200000000        1.93737800000000
C           28.57350200000000       -4.18517500000000        2.87744500000000
C           28.94617900000000       -5.46099200000000        2.43570700000000
C           28.95712300000000       -6.53955100000000        3.32211400000000
C           28.59236500000000       -6.34900100000000        4.65550300000000
C           28.21698100000000       -5.08142100000000        5.10274400000000
C           28.20670000000000       -4.00310200000000        4.21575900000000
C           29.67188400000000       -2.37912800000000        1.56304300000000
C           30.99376400000000       -2.74176500000000        2.04291100000000
C           31.87958000000000       -1.91913600000000        1.48895800000000
C           31.15795600000000       -0.99571800000000        0.64790200000000
N           29.83686399999999       -1.30693600000000        0.73079000000000
N           26.84629300000000       -1.33203400000000        0.86483400000000
C           28.02250000000000        4.25132000000000       -2.74865200000000
C           28.27485700000000        5.43621700000000       -2.04722900000000
C           28.25029200000000        6.66546300000000       -2.70868300000000
C           27.97423600000000        6.71628500000000       -4.07580900000000
C           27.72247400000000        5.53928700000000       -4.78218200000000
C           27.74745800000000        4.31023500000000       -4.12047800000000
H           32.90003000000000        0.02657600000000        0.05500700000000
H           32.76067600000000        1.92854400000000       -2.00832300000000
H           30.80771100000000        3.48498600000000       -3.07749100000000
H           29.03984800000000        0.70211100000000       -0.45370400000000
H           25.41442000000000        3.89889400000000       -2.20800200000000
H           23.66959599999999        2.37181100000000       -1.12483900000000
H           23.95000500000000       -2.81706300000000        0.57489300000000
H           25.91220000000000       -4.37898400000000        1.59722400000000
H           29.23041200000000       -5.59658600000000        1.39431600000000
H           29.25140800000000       -7.52181300000000        2.96691100000000
H           28.60115700000000       -7.18667900000000        5.34549700000000
H           27.93194900000000       -4.92505300000000        6.13819700000000
H           27.91567400000000       -3.01106800000000        4.55435400000000
H           31.22161200000000       -3.53681700000000        2.72982300000000
H           32.94308300000000       -1.92848200000000        1.64414300000000
H           27.52958900000000       -0.59705300000000        0.70157000000000
H           28.48717700000000        5.38453300000000       -0.98152200000000
H           28.44553900000000        7.57650200000000       -2.15222200000000
H           27.95357700000000        7.67212300000000       -4.58949200000000
H           27.50467300000000        5.57101600000000       -5.84485300000000
H           27.54951100000000        3.38619200000000       -4.65939200000000
C           21.33564300000000        0.00110600000000        0.00848900000000
C           20.12670400000000       -0.01234900000000        0.00004200000000
C           18.70517500000000       -0.00353000000000       -0.01194100000000
C           17.49350500000000        0.00390900000000       -0.00107800000000
C           22.75224700000000       -0.00556900000000        0.00902200000000
C           23.97294300000000        0.00390900000000       -0.00107800000000
120
 energy: -195.397062664761 gnorm: 1.087692022768 xtb: 6.5.1 (b24c23e)
C            9.64401993726578       -0.01535281545493       -0.04807647158211
C           10.36815598155722       -1.26466521710572        0.51239084196345
C            9.76168740543549       -2.43428085071631        0.92473861417653
C           10.78176947420392       -3.28392531605570        1.41875747407147
C           11.98501561132233       -2.60800147228891        1.30197605487531
N           11.72237048662603       -1.39963371712856        0.70138248363205
C           13.39864795729835       -3.10684067515365        1.78852226215669
C           14.53444810781688       -2.43411355215834        1.44596845042191
C           15.83764425430073       -2.83129859514753        1.93566582962851
C           16.74157342995473       -1.97881070569475        1.45897414064330
N           14.72877969336546       -1.32699617015256        0.66080717890764
C           16.04431082855660       -1.01092911270287        0.63633893936416
C           16.52461341023609        0.00175324320721       -0.00215309219010
C           15.94423421794613        1.03348143122458       -0.92158819626049
C           16.49137761125198        1.76844074168633       -1.95752226317871
C           15.46749834186153        2.60153869263078       -2.47017224996739
C           14.32262115834605        2.34603903625940       -1.74024943714052
C           12.92197957688823        3.04752840353530       -1.92236345237146
C           12.89032484540931        4.38819475702861       -2.55622575446074
C           12.51723298035101        4.53380908093940       -3.89824603045925
C           12.50642416267181        5.79535500527223       -4.49476217048066
C           12.87108450764604        6.91963833816254       -3.75359522840734
C           13.24631583514137        6.78276749826189       -2.41674056289428
C           13.25678196394557        5.52098353299926       -1.82039096416474
C           11.79023869340905        2.42829886694510       -1.48346459422833
C           10.46944608256022        3.01865653315560       -1.60761469683704
C            9.58282177744865        2.16594011196235       -1.09976891638302
C           10.30619601961886        1.01197132842045       -0.62422257439464
N           11.62797970339309        1.21744781692902       -0.86927217269905
N           14.61644062176920        1.35122775249117       -0.83551256478477
C           13.44059325284511       -4.30085866179665        2.67115352708230
C           13.18856914282249       -4.17263072295168        4.04215789019661
C           13.21326420788764       -5.29518589773523        4.87090423353978
C           13.48920450055880       -6.55293167376443        4.33357457814047
C           13.74089327438033       -6.68900488481828        2.96800759609051
C           13.71599605887452       -5.56651874201008        2.13923112142942
H            8.56382205378666        0.03756669470349        0.04778599926234
H            8.70289566936979       -2.63985986659426        0.88690288208917
H           10.65567236304432       -4.27096082018528        1.83787070471945
H           12.42342927712583       -0.71050171830094        0.44152042649373
H           16.04883438962057       -3.66178629323456        2.58359948066124
H           17.79429383453083       -2.02965065829950        1.66465407103586
H           17.51338677656907        1.72211530223104       -2.30174771249908
H           15.55135314791163        3.31330878258523       -3.27774373400290
H           12.23310032622249        3.64990962210144       -4.46550186290687
H           12.21208213605788        5.89369312709661       -5.53509648475767
H           12.86229610604204        7.90147086214551       -4.21669116932700
H           13.53145438063683        7.65285013719367       -1.83322882923032
H           13.54773333548007        5.40365964424595       -0.77865028413653
H           10.24202352949741        3.97845630278013       -2.03299652025172
H            8.51999118782114        2.30960454570439       -1.04174520149002
H           13.93404410923970        0.88911113079708       -0.24036166189778
H           12.97629088224451       -3.18679165037347        4.45043114855177
H           13.01793344849873       -5.18102776091918        5.93277090184359
H           13.50985832347981       -7.42574711947292        4.97882745211926
H           13.95873816157347       -7.66400528077343        2.54302310068730
H           13.91388333983978       -5.65944310717546        1.07349027394569
C           31.81942751056260       -0.03726842827864       -0.03418699383471
C           31.09528820301748        1.00289268714436       -0.92468201802232
C           31.70175722763370        1.87508062902047       -1.80633571662770
C           30.68167468793860        2.68453447073706       -2.36377480312541
C           29.47842893268639        2.29038218523588       -1.80239220751492
N           29.74107686571304        1.23141245753209       -0.96605208454101
C           28.06480145500798        2.94331506458587       -2.04578645394286
C           26.92899045304435        2.34637208388880       -1.58367865051977
C           25.62581177761677        2.95875304936550       -1.73380046624601
C           24.72187934364770        2.16372875645372       -1.16637691079658
N           26.73467765571212        1.16371444389332       -0.91769824745281
C           25.41918889352791        1.00675328453497       -0.64240383767957
C           24.94162107728430       -0.00588693427319        0.00190306899543
C           25.51929784499700       -1.27497432359822        0.54137722096604
C           24.97205658906778       -2.52546982395749        0.76375933948122
C           25.99595500974574       -3.34470900225797        1.29828710915803
C           27.14081433089780       -2.57556917523316        1.37883548616814
C           28.54147615958321       -3.03971661589786        1.93545247253069
C           28.57311970421727       -4.18524487222436        2.87722392736657
C           28.94621293118061       -5.46099706627531        2.43599897149183
C           28.95702189928316       -6.53897606040959        3.32216536059867
C           28.59236049537828       -6.34869025686005        4.65525642702013
C           28.21712911273227       -5.08134223278665        5.10218247773215
C           28.20666299767142       -4.00341261952439        4.21573035995655
C           29.67320239372882       -2.37847879571124        1.56284730207406
C           30.99400095783020       -2.74276493481101        2.04370674527394
C           31.88062368519519       -1.91949880953007        1.48939281517442
C           31.15724801073400       -0.99683525896552        0.64886544559408
N           29.83546519449117       -1.30614955962404        0.73006644268390
N           26.84700381987334       -1.33273490432559        0.86545793068226
C           28.02285138269718        4.25120053617329       -2.74874565403479
C           28.27487587918454        5.43626157736079       -2.04751133793053
C           28.25018076299128        6.66491084663867       -2.70885075041917
C           27.97424147580720        6.71593009706274       -4.07561569461975
C           27.72255180670856        5.53913645506349       -4.78162254946357
C           27.74744984084486        4.31048808682390       -4.12035831607053
H           32.89962295613424        0.02683077614688        0.05458943156469
H           32.76054919461981        1.92862861542639       -2.00839240725548
H           30.80777260054525        3.48489897815735       -3.07743361243199
H           29.04001693525410        0.70223170814284       -0.45380447191126
H           25.41461081779140        3.89920857139112       -2.20820844847864
H           23.66915222656658        2.37145147326594       -1.12456118214570
H           23.95005811871287       -2.81697896623343        0.57492082231749
H           25.91209232562025       -4.37884866407244        1.59719003702984
H           29.23034470498590       -5.59663321960911        1.39452879835541
H           29.25136289255245       -7.52173063491102        2.96697881288496
H           28.60114888591005       -7.18660892365197        5.34543482343213
H           27.93199063001259       -4.92510663016042        6.13809780546879
H           27.91571166873288       -3.01128024755396        4.55434854265029
H           31.22142255995780       -3.53717195087212        2.73006061553893
H           32.94345388122965       -1.92835777631634        1.64407845439588
H           27.52940191493043       -0.59726114185057        0.70163267442998
H           28.48715413131086        5.38461200512597       -0.98172650124582
H           28.44551155579611        7.57642364755521       -2.15231173268724
H           27.95358668264679        7.67203491668518       -4.58944737609406
H           27.50470685424102        5.57104688085490       -5.84474021443522
H           27.54956167706593        3.38640836086087       -4.65935082046891
C           21.34258201744108        0.00118688005499        0.00836735211680
C           20.11966366349182       -0.01237760797014        0.00004694779369
C           18.73992381349663       -0.00297990821587       -0.01187435745937
C           17.68849471394632        0.00860967103395       -0.00362716657562
C           22.71868382560211       -0.00638891666777        0.00988322974609
C           23.77392048961207        0.00296180188242        0.00088792901328
120
 energy: -195.655872427468 gnorm: 0.596200678084 xtb: 6.5.1 (b24c23e)
C            9.66316848483426       -0.03907558270216       -0.03741067751232
C           10.36454649497168       -1.25126157767939        0.50582692197597
C            9.76553558559858       -2.43687710657114        0.92901051847671
C           10.77937001811500       -3.28059217602688        1.42044768892035
C           12.00027057385317       -2.61063259867307        1.30500509510060
N           11.72293906107563       -1.39881000834488        0.70280825389630
C           13.36959948832262       -3.09707473203372        1.77902011957906
C           14.52904937460061       -2.43734671087709        1.44776035863637
C           15.83709664671330       -2.83849905573659        1.94071405182876
C           16.74073438965358       -1.98102550978002        1.46095572421113
N           14.69497916449352       -1.33600196681209        0.66690965796537
C           15.99150608255336       -1.03261018842979        0.65314540733920
C           16.44887202940410        0.02496934887407       -0.02246650122975
C           15.91612807354568        1.02934405760279       -0.92197229736138
C           16.48540076985203        1.77304252738619       -1.95525476891978
C           15.46892992194369        2.60272258659870       -2.46656629358983
C           14.30276212494780        2.35485327088390       -1.74331946082440
C           12.94532726771608        3.03285210900241       -1.91694483664984
C           12.89710109319931        4.38250425573125       -2.55611037656763
C           12.51732397836909        4.53390239756101       -3.89592578717698
C           12.50671354022939        5.79383095058706       -4.49117531042334
C           12.87114531450706        6.91715007878262       -3.75239934528406
C           13.24518216912175        6.77919819170008       -2.41759793024280
C           13.25749574922633        5.51933027100902       -1.82240600327665
C           11.78925820120972        2.42489972719055       -1.47973639344688
C           10.46816019144621        3.02472163337327       -1.61081327353430
C            9.57823799940463        2.16914784331570       -1.10069624861833
C           10.31222126886330        1.01357946150303       -0.62393643960986
N           11.63608581701602        1.21254679586955       -0.86657287811198
N           14.60004301297236        1.35990624491849       -0.84028109517288
C           13.43307935408985       -4.29817982752312        2.66717690845261
C           13.18792825699023       -4.17352817494850        4.03987413271676
C           13.21419746029386       -5.29432366032471        4.86728593900190
C           13.48913501783934       -6.55066818118098        4.33191381064356
C           13.74078412677593       -6.68513521781153        2.96840837383543
C           13.71566600209768       -5.56457092567283        2.14047438797901
H            8.57461926261984        0.02800340933098        0.04940749319753
H            8.70544315895553       -2.64181888000258        0.88794770527448
H           10.65420410733229       -4.26942982354740        1.83697453100104
H           12.42283708790706       -0.71124514488283        0.44198882391917
H           16.04739572198665       -3.66714127197632        2.58706392630422
H           17.79719329750255       -2.02462767574080        1.66155612765457
H           17.51025059964629        1.72202675290562       -2.29987779810922
H           15.55363262892652        3.31192424365773       -3.27655466296998
H           12.23384636265684        3.65194693404533       -4.46514421886900
H           12.21281168566845        5.89366926206848       -5.53292913889464
H           12.86244496844531        7.89982205495692       -4.21596445312728
H           13.53072701911322        7.65114673061335       -1.83459491106438
H           13.54754575901544        5.40455259690773       -0.78066139614822
H           10.24407587170786        3.98375212347702       -2.03609770370882
H            8.51537393725662        2.30867366555481       -1.04092161518292
H           13.93044576485263        0.89171864022118       -0.24178880024626
H           12.97630196358251       -3.18898677405661        4.45023994864945
H           13.01842419435202       -5.18142535683074        5.93055686661233
H           13.50968288587025       -7.42426309128876        4.97769226691485
H           13.95819967320697       -7.66199886885499        2.54406101270504
H           13.91321532406502       -5.65998550060080        1.07551550638521
C           31.80028046886464       -0.01751027170392       -0.05107064821181
C           31.09889539745249        0.99124539312658       -0.91537040425023
C           31.69791039560025        1.88004553162641       -1.80685335077274
C           30.68406436385843        2.68464240858768       -2.36003839204548
C           29.46319023531615        2.29424397703626       -1.80348182104287
N           29.74051250430052        1.23235569229462       -0.96469666452458
C           28.09383796873254        2.93057171468718       -2.04101605375397
C           26.93446090922442        2.34939625210814       -1.58584992158033
C           25.62643462517326        2.96638600043003       -1.73811364839095
C           24.72296975802295        2.16648401903531       -1.16721396473571
N           26.76862977822669        1.17281369700403       -0.92354663734311
C           25.47219260084057        1.03083846373236       -0.65521039394617
C           25.01516180409889       -0.03502885999505        0.01155548556862
C           25.54632993452464       -1.27356265895979        0.53719294554107
C           24.97777012225647       -2.52556784644130        0.76914933278422
C           25.99445122133402       -3.34195357299245        1.30090725884549
C           27.16060777364452       -2.58202577453304        1.38546520480204
C           28.51808010777843       -3.02852896327967        1.92448233878566
C           28.56633519471002       -4.18270848801403        2.87212319746487
C           28.94612126213779       -5.45893674911210        2.43707515344185
C           28.95673342841653       -6.53508024345034        3.32231944101258
C           28.59229947219920       -6.34654551320858        4.65351783000521
C           28.21826265160722       -5.08059284993370        5.09859004138564
C           28.20594947150424       -4.00452787432404        4.21337508706997
C           29.67417856539355       -2.37363376838949        1.56135568919307
C           30.99528648022974       -2.74824271544821        2.04782482761525
C           31.88520961544964       -1.92170645393468        1.49190080860216
C           31.15123271953034       -0.99725798459056        0.65043848451244
N           29.82734771561061       -1.30162131088276        0.72679448691688
N           26.86305390620697       -1.34077846062906        0.87101880881917
C           28.03036509262895        4.24646968049798       -2.74802010005322
C           28.27551659605501        5.43458203312608       -2.04929517477541
C           28.24924710703933        6.66127194842409       -2.70961302356173
C           27.97431114474249        6.71346278831354       -4.07427570019675
C           27.72266137724348        5.53784754932949       -4.77795039360390
C           27.74778034720043        4.31078215908786       -4.11806461747897
H           32.88882705484559        0.03238007287051        0.04663983369422
H           32.75800257953036        1.93040981056826       -2.00971361441610
H           30.80923931536746        3.48343782533538       -3.07642950657418
H           29.04061113087968        0.70297524934750       -0.45427550439645
H           25.41604475661449        3.90461314554555       -2.21155531658821
H           23.66635284174530        2.36649667087261       -1.12132987796309
H           23.95310636134749       -2.81535981407306        0.57565610977089
H           25.90982635021815       -4.37718673134722        1.59644721585871
H           29.22959881806557       -5.59717833196729        1.39652590993014
H           29.25063385509856       -7.51975969559624        2.96788427359354
H           28.60099986173084       -7.18524716433180        5.34425583827809
H           27.93271725851942       -4.92561402524196        6.13597588277644
H           27.91589847041395       -3.01347927465025        4.55429857166659
H           31.21936868605399       -3.54223531403944        2.73352706445651
H           32.94807168753616       -1.92721522434223        1.64359206166538
H           27.53285910994355       -0.59968638085213        0.70332386099197
H           28.48714247496190        5.38537768090636       -0.98379173977147
H           28.44502018981257        7.57459265359939       -2.15361456277810
H           27.95376201011988        7.67037656179797       -4.58858856190414
H           27.50524572834714        5.57112991981129       -5.84248119113682
H           27.55023033569418        3.38847238581372       -4.65897491637943
C           21.31757569537936        0.00118525363865        0.00749675596965
C           20.14446831503371       -0.01216179785772        0.00152728811714
C           18.88128279419556        0.00061944807022       -0.01502524327156
C           17.64308346945613        0.03138474818898       -0.02111263748956
C           22.58135339162398       -0.01480852052761        0.01728466953972
C           23.81895995979289       -0.01572867688280        0.01335788095865
120
 energy: -195.749955948291 gnorm: 0.418780168886 xtb: 6.5.1 (b24c23e)
C            9.70529417325443       -0.07064762144172       -0.02402436606659
C           10.37046703321126       -1.24115489994489        0.50117965616539
C            9.77408769629836       -2.43683727591624        0.93861956936074
C           10.77726542882002       -3.27309706263971        1.42738476959390
C           12.01256758430112       -2.61117193722661        1.30806455475680
N           11.72841238813604       -1.39759042270486        0.70582049940284
C           13.32224975830260       -3.08730412255921        1.76801043666745
C           14.50676969865654       -2.44964686231555        1.45728661675242
C           15.82271187757788       -2.85168340719346        1.94913529265574
C           16.72296192341011       -1.98014924192944        1.46301518553367
N           14.64648557269796       -1.34492069364101        0.68181765824872
C           15.93846394293689       -1.04431844834739        0.66543335152492
C           16.41048040894128        0.04709453669744       -0.05430785988362
C           15.86580229773096        1.02957727520305       -0.92905452217306
C           16.46187212740128        1.78373756409813       -1.94891636708132
C           15.46176061785011        2.61452531755775       -2.45893539314164
C           14.27086634290177        2.37229852272805       -1.75307907819082
C           12.97008550685400        3.01378610283228       -1.91033474944020
C           12.91525052414538        4.36809941477449       -2.55643033650524
C           12.52043672777990        4.52908273566511       -3.89025847737706