378
 energy: -628.248924329139 gnorm: 4.034607166446 xtb: 6.5.1 (b24c23e)
C           54.88713400000000       -0.00885800000000       -0.05803800000000
C           55.61562700000000       -1.26703500000000        0.50656600000000
C           55.00701800000000       -2.43155500000000        0.91628000000000
C           56.02880600000000       -3.28281700000000        1.41112700000000
C           57.22687500000000       -2.60542200000000        1.29327500000000
N           56.96826800000000       -1.39829300000000        0.69358700000000
C           58.64936400000000       -3.10753600000000        1.78280700000000
C           59.77919600000000       -2.43230900000000        1.43796500000000
C           61.08383400000000       -2.82854800000000        1.92715600000000
C           61.98619899999999       -1.97828900000000        1.45185300000000
N           59.97547200000000       -1.32604500000000        0.65349700000000
C           61.30702400000000       -1.00125400000000        0.62350600000000
C           61.97466900000000        0.00125100000000       -0.00758800000000
C           61.19701900000000        1.03412600000000       -0.92828300000000
C           61.73741000000000        1.76951300000000       -1.96524800000000
C           60.71261800000000        2.60314700000000       -2.47809800000000
C           59.57237300000000        2.34579000000000       -1.74742300000000
C           58.16307299999999        3.05150700000000       -1.93083600000000
C           58.13582700000000        4.38982200000000       -2.56371300000000
C           57.76315100000000        4.53500000000000       -3.90601100000000
C           57.75220700000000        5.79701100000000       -4.50294900000000
C           58.11696500000000        6.92145100000000       -3.76141600000000
C           58.49234800000000        6.78476600000000       -2.42421700000000
C           58.50263000000000        5.52233400000000       -1.82774300000000
C           57.03744499999999        2.43021300000000       -1.49161600000000
C           55.71556600000000        3.01896700000000       -1.61469500000000
C           54.82975000000000        2.16685000000000       -1.10727100000000
C           55.55137299999999        1.01207900000000       -0.63126800000000
N           56.87246499999999        1.21989200000000       -0.87731800000000
N           59.86303699999999        1.35182200000000       -0.84279100000000
C           58.68682900000000       -4.29936700000000        2.66365700000000
C           58.43447300000000       -4.17089900000000        4.03459400000000
C           58.45903700000000       -5.29381200000000        4.86383000000000
C           58.73509399999999       -6.55180100000000        4.32616800000000
C           58.98685600000000       -6.68811800000000        2.96026000000000
C           58.96187200000000       -5.56506200000000        2.13130600000000
H           53.80929900000000        0.03951000000000        0.04008900000000
H           53.94865399999999       -2.63830400000000        0.87921200000000
H           55.90161900000000       -4.26959300000000        1.83028000000000
H           57.66948200000000       -0.70890200000000        0.43380900000000
H           61.29491000000000       -3.66000800000000        2.57575900000000
H           63.03973400000000       -2.02859700000000        1.65721500000000
H           62.75932499999999        1.72358200000000       -2.30947900000000
H           60.79713000000000        3.31485400000000       -3.28549600000000
H           57.47891700000000        3.65115400000000       -4.47319500000000
H           57.45792200000000        5.89512400000000       -5.54284400000000
H           58.10817299999999        7.90301400000000       -4.22437200000000
H           58.77738099999999        7.65437400000000       -1.84078300000000
H           58.79365600000000        5.40503100000000       -0.78610000000000
H           55.48771800000000        3.97954700000000       -2.04042200000000
H           53.76624700000000        2.31117300000000       -1.04947500000000
H           59.17974000000000        0.89042200000000       -0.24784500000000
H           58.22215200000000       -3.18511600000000        4.44280200000000
H           58.26379099999999       -5.17952300000000        5.92523500000000
H           58.75575300000000       -7.42436800000000        4.97124300000000
H           59.20465599999999       -7.66263700000000        2.53530300000000
H           59.15981800000000       -5.65793100000000        1.06563300000000
C          155.44192799999999       -0.04005500000000       -0.03826700000000
C          154.71343600000000        1.00762800000000       -0.93501000000000
C          155.32204500000000        1.87526200000000       -1.81318000000000
C          154.30025599999999        2.68615300000000       -2.37172900000000
C          153.10218800000001        2.29040200000000       -1.80947100000000
N          153.36079400000000        1.23278500000000       -0.97386800000000
C          151.67969900000000        2.94743600000000       -2.05455400000000
C          150.54986699999998        2.34734300000000       -1.59115800000000
C          149.24522899999997        2.95887200000000       -1.74064300000000
C          148.34286299999999        2.16608400000000       -1.17465800000000
N          150.35359099999999        1.16568900000000       -0.92564900000000
C          149.02203800000001        0.99991600000000       -0.64474300000000
C          148.35439299999999        0.00125100000000       -0.00758800000000
C          149.13204400000001       -1.27226400000000        0.53340000000000
C          148.59165299999998       -2.52392600000000        0.75573400000000
C          149.61644500000000       -3.34357200000000        1.29065600000000
C          150.75668999999999       -2.57295700000000        1.36985200000000
C          152.16598999999999       -3.04008500000000        1.92973300000000
C          152.19323499999999       -4.18371800000000        2.86980000000000
C          152.56591100000000       -5.45953500000000        2.42806200000000
C          152.57685599999996       -6.53809400000000        3.31446900000000
C          152.21209800000000       -6.34754400000000        4.64785800000000
C          151.83671400000000       -5.07996400000000        5.09509900000000
C          151.82643300000001       -4.00164500000000        4.20811400000000
C          153.29161699999997       -2.37767100000000        1.55539800000000
C          154.61349700000000       -2.74030800000000        2.03526700000000
C          155.49931199999997       -1.91767900000000        1.48131300000000
C          154.77768899999998       -0.99426100000000        0.64025700000000
N          153.45659699999999       -1.30547900000000        0.72314500000000
N          150.46602600000000       -1.33057700000000        0.85718900000000
C          151.64223299999998        4.25277700000000       -2.75629600000000
C          151.89458999999999        5.43767400000000       -2.05487400000000
C          151.87002499999997        6.66692000000000       -2.71632800000000
C          151.59396899999999        6.71774200000000       -4.08345400000000
C          151.34220700000000        5.54074500000000       -4.78982600000000
C          151.36718999999999        4.31169200000000       -4.12812300000000
H          156.51976299999998        0.02803300000000        0.04736200000000
H          156.38040899999996        1.93000100000000       -2.01596800000000
H          154.42744399999998        3.48644300000000       -3.08513600000000
H          152.65958100000000        0.70356800000000       -0.46134900000000
H          149.03415300000000        3.90035100000000       -2.21564600000000
H          147.28932899999998        2.37326800000000       -1.13248400000000
H          147.56973799999997       -2.81560600000000        0.56724800000000
H          149.53193300000001       -4.37752700000000        1.58957900000000
H          152.85014500000000       -5.59512900000000        1.38667100000000
H          152.87114099999999       -7.52035600000000        2.95926600000000
H          152.22089000000000       -7.18522200000000        5.33785200000000
H          151.55168200000000       -4.92359600000000        6.13055200000000
H          151.53540699999999       -3.00961100000000        4.54671000000000
H          154.84134499999996       -3.53536000000000        2.72217900000000
H          156.56281600000000       -1.92702500000000        1.63649800000000
H          151.14932199999998       -0.59559600000000        0.69392500000000
H          152.10691000000000        5.38599000000000       -0.98916700000000
H          152.06527199999996        7.57796000000000       -2.15986600000000
H          151.57330999999999        7.67358000000000       -4.59713700000000
H          151.12440599999999        5.57247300000000       -5.85249700000000
H          151.16924399999999        3.38764900000000       -4.66703700000000
C           64.45863300000001        0.01490900000000        0.00196600000000
C           65.91685900000000       -0.00692700000000       -0.01590800000000
C           67.05078700000000       -0.02768100000000       -0.01739800000000
C           68.41216900000001       -0.04027100000000       -0.01959000000000
C           69.68638799999999       -0.02996400000000       -0.02435500000000
C           70.87485000000000       -0.01116600000000       -0.03051100000000
C           72.22721100000000        0.01361800000000       -0.01464300000000
C           73.32747800000000        0.01490900000000        0.00196600000000
C           82.56554100000000        0.01490900000000        0.00196600000000
C           84.02376700000001       -0.00692700000000       -0.01590800000000
C           85.15769499999999       -0.02768100000000       -0.01739800000000
C           86.51907700000000       -0.04027100000000       -0.01959000000000
C           87.79329500000000       -0.02996400000000       -0.02435500000000
C           88.98175799999999       -0.01116600000000       -0.03051100000000
C           90.33411900000000        0.01361800000000       -0.01464300000000
C           91.43438600000000        0.01490900000000        0.00196600000000
C          100.67244800000000        0.01490900000000        0.00196600000000
C          102.13067500000000       -0.00692700000000       -0.01590800000000
C          103.26460299999998       -0.02768100000000       -0.01739800000000
C          104.62598400000000       -0.04027100000000       -0.01959000000000
C          105.90020299999999       -0.02996400000000       -0.02435500000000
C          107.08866599999999       -0.01116600000000       -0.03051100000000
C          108.44102599999999        0.01361800000000       -0.01464300000000
C          109.54129399999999        0.01490900000000        0.00196600000000
C          118.77935600000001        0.01490900000000        0.00196600000000
C          120.23758200000000       -0.00692700000000       -0.01590800000000
C          121.37150999999999       -0.02768100000000       -0.01739800000000
C          122.73289200000001       -0.04027100000000       -0.01959000000000
C          124.00711099999998       -0.02996400000000       -0.02435500000000
C          125.19557299999998       -0.01116600000000       -0.03051100000000
C          126.54793400000000        0.01361800000000       -0.01464300000000
C          127.64820200000000        0.01490900000000        0.00196600000000
C          136.88626399999998        0.01490900000000        0.00196600000000
C          138.34449000000001       -0.00692700000000       -0.01590800000000
C          139.47841800000000       -0.02768100000000       -0.01739800000000
C          140.83980000000000       -0.04027100000000       -0.01959000000000
C          142.11401900000001       -0.02996400000000       -0.02435500000000
C          143.30248100000000       -0.01116600000000       -0.03051100000000
C          144.65484200000000        0.01361800000000       -0.01464300000000
C          145.75510900000000        0.01490900000000        0.00196600000000
C           74.42720500000000       -0.00329900000000        0.00351100000000
C           75.22085599999998        1.10652400000000        0.80947000000000
C           74.71412999999998        1.93126600000000        1.79336400000000
C           75.75102900000000        2.81996500000000        2.17660400000000
C           76.86047099999999        2.50516300000000        1.42036000000000
N           76.54951899999999        1.41438800000000        0.64755900000000
C           78.25009700000000        3.26527500000000        1.42900400000000
C           79.38490499999999        2.61143400000000        1.06535100000000
C           80.67183600000000        3.27274900000000        0.99941200000000
C           81.57979800000000        2.38446300000000        0.60973300000000
N           79.59293599999999        1.31278000000000        0.69042300000000
C           80.91744400000000        1.11152700000000        0.40724600000000
C           81.58124200000000       -0.00329900000000        0.00351100000000
C           80.78760600000000       -1.35922200000000       -0.20336800000000
C           81.29437299999999       -2.63743300000000       -0.08340700000000
C           80.25747100000000       -3.53893100000000       -0.43548600000000
C           79.14798800000000       -2.78345400000000       -0.75197400000000
C           77.75833600000000       -3.33017600000000       -1.28004600000000
C           77.76746199999999       -4.60839500000000       -2.02987500000000
C           78.24552400000000       -4.64864900000000       -3.34476000000000
C           78.27052900000000       -5.85364100000000       -4.04977900000000
C           77.81974000000000       -7.02656300000000       -3.44275200000000
C           77.34479799999998       -6.99605900000000       -2.13106900000000
C           77.32074100000000       -5.79101100000000       -1.42647300000000
C           76.62353800000000       -2.60947600000000       -1.07913300000000
C           75.33660100000000       -3.03351200000000       -1.59087200000000
C           74.42864200000000       -2.12777900000000       -1.24366900000000
C           75.09100299999999       -1.08003400000000       -0.49295200000000
N           76.41551500000000       -1.42221500000000       -0.43300800000000
N           79.45892400000000       -1.46440500000000       -0.53485700000000
C           78.24085099999999        4.70154400000000        1.79400700000000
C           77.76258699999998        5.65426000000000        0.88698600000000
C           77.73726800000000        7.00692900000000        1.23242500000000
C           78.18794500000000        7.41470300000000        2.48862900000000
C           78.66311700000000        6.47118200000000        3.40021400000000
C           78.68749400000000        5.11876700000000        3.05443200000000
H           73.70569900000000        1.91307400000000        2.17774500000000
H           75.69042399999999        3.61360500000000        2.90607300000000
H           77.21062300000000        0.89177800000000        0.08022600000000
H           80.86647299999998        4.30782800000000        1.21652100000000
H           82.62423900000000        2.59525600000000        0.47002100000000
H           82.30283300000001       -2.89467900000000        0.20268500000000
H           80.31810199999998       -4.61617700000000       -0.47457200000000
H           78.59583900000000       -3.72942500000000       -3.80927400000000
H           78.64227099999999       -5.86925400000000       -5.06930400000000
H           77.83852200000000       -7.96273700000000       -3.99150100000000
H           76.99181599999999       -7.90375600000000       -1.65237500000000
H           76.95123900000000       -5.75499700000000       -0.40381400000000
H           75.14195700000000       -3.92234800000000       -2.16401600000000
H           73.38419999999999       -2.17950300000000       -1.49120900000000
H           78.79779800000000       -0.69391400000000       -0.57095400000000
H           77.41231999999998        5.32680000000000       -0.08951500000000
H           77.36534000000000        7.73453100000000        0.51819400000000
H           78.16888100000000        8.46631400000000        2.75630700000000
H           79.01599600000000        6.78048200000000        4.37871900000000
H           79.05712900000000        4.37444500000000        3.75658200000000
C           92.53411199999999       -0.00329900000000        0.00351100000000
C           93.32776399999999        1.10652400000000        0.80947000000000
C           92.82103799999999        1.93126600000000        1.79336400000000
C           93.85793700000001        2.81996500000000        2.17660400000000
C           94.96737899999998        2.50516300000000        1.42036000000000
N           94.65642699999998        1.41438800000000        0.64755900000000
C           96.35700400000000        3.26527500000000        1.42900400000000
C           97.49181299999998        2.61143400000000        1.06535100000000
C           98.77874400000000        3.27274900000000        0.99941200000000
C           99.68670500000000        2.38446300000000        0.60973300000000
N           97.69984400000000        1.31278000000000        0.69042300000000
C           99.02435199999999        1.11152700000000        0.40724600000000
C           99.68814999999999       -0.00329900000000        0.00351100000000
C           98.89451399999999       -1.35922200000000       -0.20336800000000
C           99.40128000000000       -2.63743300000000       -0.08340700000000
C           98.36437900000000       -3.53893100000000       -0.43548600000000
C           97.25489600000000       -2.78345400000000       -0.75197400000000
C           95.86524400000000       -3.33017600000000       -1.28004600000000
C           95.87437000000000       -4.60839500000000       -2.02987500000000
C           96.35243199999999       -4.64864900000000       -3.34476000000000
C           96.37743700000000       -5.85364100000000       -4.04977900000000
C           95.92664800000000       -7.02656300000000       -3.44275200000000
C           95.45170599999999       -6.99605900000000       -2.13106900000000
C           95.42764900000000       -5.79101100000000       -1.42647300000000
C           94.73044600000000       -2.60947600000000       -1.07913300000000
C           93.44350799999999       -3.03351200000000       -1.59087200000000
C           92.53555000000000       -2.12777900000000       -1.24366900000000
C           93.19791099999999       -1.08003400000000       -0.49295200000000
N           94.52242200000001       -1.42221500000000       -0.43300800000000
N           97.56583100000000       -1.46440500000000       -0.53485700000000
C           96.34775799999998        4.70154400000000        1.79400700000000
C           95.86949499999999        5.65426000000000        0.88698600000000
C           95.84417600000000        7.00692900000000        1.23242500000000
C           96.29485300000000        7.41470300000000        2.48862900000000
C           96.77002500000000        6.47118200000000        3.40021400000000
C           96.79440200000001        5.11876700000000        3.05443200000000
H           91.81260700000000        1.91307400000000        2.17774500000000
H           93.79733200000000        3.61360500000000        2.90607300000000
H           95.31753100000000        0.89177800000000        0.08022600000000
H           98.97338099999999        4.30782800000000        1.21652100000000
H          100.73114700000001        2.59525600000000        0.47002100000000
H          100.40974100000000       -2.89467900000000        0.20268500000000
H           98.42500999999999       -4.61617700000000       -0.47457200000000
H           96.70274600000000       -3.72942500000000       -3.80927400000000
H           96.74917900000000       -5.86925400000000       -5.06930400000000
H           95.94543000000000       -7.96273700000000       -3.99150100000000
H           95.09872399999999       -7.90375600000000       -1.65237500000000
H           95.05814700000001       -5.75499700000000       -0.40381400000000
H           93.24886500000000       -3.92234800000000       -2.16401600000000
H           91.49110799999998       -2.17950300000000       -1.49120900000000
H           96.90470600000000       -0.69391400000000       -0.57095400000000
H           95.51922799999998        5.32680000000000       -0.08951500000000
H           95.47224700000000        7.73453100000000        0.51819400000000
H           96.27578900000000        8.46631400000000        2.75630700000000
H           97.12290399999999        6.78048200000000        4.37871900000000
H           97.16403699999999        4.37444500000000        3.75658200000000
C          110.64102000000000       -0.00329900000000        0.00351100000000
C          111.43467199999999        1.10652400000000        0.80947000000000
C          110.92794599999999        1.93126600000000        1.79336400000000
C          111.96484500000000        2.81996500000000        2.17660400000000
C          113.07428599999999        2.50516300000000        1.42036000000000
N          112.76333499999998        1.41438800000000        0.64755900000000
C          114.46391199999999        3.26527500000000        1.42900400000000
C          115.59871999999999        2.61143400000000        1.06535100000000
C          116.88565100000000        3.27274900000000        0.99941200000000
C          117.79361299999999        2.38446300000000        0.60973300000000
N          115.80675200000000        1.31278000000000        0.69042300000000
C          117.13125999999998        1.11152700000000        0.40724600000000
C          117.79505800000000       -0.00329900000000        0.00351100000000
C          117.00142199999999       -1.35922200000000       -0.20336800000000
C          117.50818800000000       -2.63743300000000       -0.08340700000000
C          116.47128600000001       -3.53893100000000       -0.43548600000000
C          115.36180400000001       -2.78345400000000       -0.75197400000000
C          113.97215199999999       -3.33017600000000       -1.28004600000000
C          113.98127800000000       -4.60839500000000       -2.02987500000000
C          114.45934000000000       -4.64864900000000       -3.34476000000000
C          114.48434399999999       -5.85364100000000       -4.04977900000000
C          114.03355600000000       -7.02656300000000       -3.44275200000000
C          113.55861399999999       -6.99605900000000       -2.13106900000000
C          113.53455599999999       -5.79101100000000       -1.42647300000000
C          112.83735400000000       -2.60947600000000       -1.07913300000000
C          111.55041600000000       -3.03351200000000       -1.59087200000000
C          110.64245800000000       -2.12777900000000       -1.24366900000000
C          111.30481799999998       -1.08003400000000       -0.49295200000000
N          112.62933000000000       -1.42221500000000       -0.43300800000000
N          115.67273900000001       -1.46440500000000       -0.53485700000000
C          114.45466599999999        4.70154400000000        1.79400700000000
C          113.97640300000000        5.65426000000000        0.88698600000000
C          113.95108300000000        7.00692900000000        1.23242500000000
C          114.40176000000000        7.41470300000000        2.48862900000000
C          114.87693299999999        6.47118200000000        3.40021400000000
C          114.90130900000000        5.11876700000000        3.05443200000000
H          109.91951400000001        1.91307400000000        2.17774500000000
H          111.90424000000000        3.61360500000000        2.90607300000000
H          113.42443899999999        0.89177800000000        0.08022600000000
H          117.08028899999998        4.30782800000000        1.21652100000000
H          118.83805500000000        2.59525600000000        0.47002100000000
H          118.51664800000000       -2.89467900000000        0.20268500000000
H          116.53191699999999       -4.61617700000000       -0.47457200000000
H          114.80965399999999       -3.72942500000000       -3.80927400000000
H          114.85608700000000       -5.86925400000000       -5.06930400000000
H          114.05233800000001       -7.96273700000000       -3.99150100000000
H          113.20563199999998       -7.90375600000000       -1.65237500000000
H          113.16505500000000       -5.75499700000000       -0.40381400000000
H          111.35577299999999       -3.92234800000000       -2.16401600000000
H          109.59801599999999       -2.17950300000000       -1.49120900000000
H          115.01161399999999       -0.69391400000000       -0.57095400000000
H          113.62613600000000        5.32680000000000       -0.08951500000000
H          113.57915499999999        7.73453100000000        0.51819400000000
H          114.38269699999999        8.46631400000000        2.75630700000000
H          115.22981199999998        6.78048200000000        4.37871900000000
H          115.27094500000000        4.37444500000000        3.75658200000000
C          128.74792800000000       -0.00329900000000        0.00351100000000
C          129.54158000000001        1.10652400000000        0.80947000000000
C          129.03485400000000        1.93126600000000        1.79336400000000
C          130.07175300000000        2.81996500000000        2.17660400000000
C          131.18119400000000        2.50516300000000        1.42036000000000
N          130.87024299999999        1.41438800000000        0.64755900000000
C          132.57082000000000        3.26527500000000        1.42900400000000
C          133.70562799999999        2.61143400000000        1.06535100000000
C          134.99255900000000        3.27274900000000        0.99941200000000
C          135.90052100000000        2.38446300000000        0.60973300000000
N          133.91365900000000        1.31278000000000        0.69042300000000
C          135.23816700000000        1.11152700000000        0.40724600000000
C          135.90196599999999       -0.00329900000000        0.00351100000000
C          135.10832900000000       -1.35922200000000       -0.20336800000000
C          135.61509599999997       -2.63743300000000       -0.08340700000000
C          134.57819400000000       -3.53893100000000       -0.43548600000000
C          133.46871200000001       -2.78345400000000       -0.75197400000000
C          132.07906000000000       -3.33017600000000       -1.28004600000000
C          132.08818600000001       -4.60839500000000       -2.02987500000000
C          132.56624700000000       -4.64864900000000       -3.34476000000000
C          132.59125200000000       -5.85364100000000       -4.04977900000000
C          132.14046400000001       -7.02656300000000       -3.44275200000000
C          131.66552100000001       -6.99605900000000       -2.13106900000000
C          131.64146400000001       -5.79101100000000       -1.42647300000000
C          130.94426100000001       -2.60947600000000       -1.07913300000000
C          129.65732399999999       -3.03351200000000       -1.59087200000000
C          128.74936600000001       -2.12777900000000       -1.24366900000000
C          129.41172599999999       -1.08003400000000       -0.49295200000000
N          130.73623799999999       -1.42221500000000       -0.43300800000000
N          133.77964700000001       -1.46440500000000       -0.53485700000000
C          132.56157400000001        4.70154400000000        1.79400700000000
C          132.08331100000001        5.65426000000000        0.88698600000000
C          132.05799099999999        7.00692900000000        1.23242500000000
C          132.50866800000000        7.41470300000000        2.48862900000000
C          132.98384100000001        6.47118200000000        3.40021400000000
C          133.00821700000000        5.11876700000000        3.05443200000000
H          128.02642200000000        1.91307400000000        2.17774500000000
H          130.01114799999999        3.61360500000000        2.90607300000000
H          131.53134700000001        0.89177800000000        0.08022600000000
H          135.18719700000000        4.30782800000000        1.21652100000000
H          136.94496300000000        2.59525600000000        0.47002100000000
H          136.62355600000001       -2.89467900000000        0.20268500000000
H          134.63882500000000       -4.61617700000000       -0.47457200000000
H          132.91656200000000       -3.72942500000000       -3.80927400000000
H          132.96299500000001       -5.86925400000000       -5.06930400000000
H          132.15924500000000       -7.96273700000000       -3.99150100000000
H          131.31254000000001       -7.90375600000000       -1.65237500000000
H          131.27196300000000       -5.75499700000000       -0.40381400000000
H          129.46268100000000       -3.92234800000000       -2.16401600000000
H          127.70492299999998       -2.17950300000000       -1.49120900000000
H          133.11852200000001       -0.69391400000000       -0.57095400000000
H          131.73304300000001        5.32680000000000       -0.08951500000000
H          131.68606299999999        7.73453100000000        0.51819400000000
H          132.48960500000001        8.46631400000000        2.75630700000000
H          133.33671899999999        6.78048200000000        4.37871900000000
H          133.37785299999999        4.37444500000000        3.75658200000000
378
 energy: -629.975400387859 gnorm: 1.479281045890 xtb: 6.5.1 (b24c23e)
C           54.89331208162211       -0.01943601959160       -0.05320832201169
C           55.61256645059052       -1.25915253293635        0.50284789444538
C           55.00828239444071       -2.43411088661335        0.91809927467294
C           56.02634703464935       -3.28196870491766        1.41118558352963