334
 energy: -643.074037214904 gnorm: 0.000496670952 xtb: 6.5.1 (b24c23e)
C           51.59225310994672       -0.11820657773918       -0.06214516395287
C           52.21101760341764       -1.32453158317262        0.23851881721243
C           51.56927508674589       -2.56806256026145        0.49859837800619
C           52.53768837841368       -3.49402076906133        0.76485223267772
C           53.80236564607494       -2.84282998423213        0.68596839549633
N           53.55509223823912       -1.54147569112486        0.35562649673099
C           55.07088952011357       -3.40423841277218        0.87484411337757
C           55.11384613726038       -4.83550230135844        1.25379044114907
C           55.76825983652989       -5.76280253199409        0.43669584707637
C           55.80731245796851       -7.10102828648468        0.78273387217080
C           55.19014924429140       -7.51652977934908        1.95934509307534
N           55.22798247766700       -8.92048530996291        2.32775738616404
O           55.81013285991585       -9.67493211217133        1.59122732933343
O           54.67427326306233       -9.24463913509821        3.34707776995825
C           54.53608214191934       -6.60952584811813        2.78835038445313
C           54.49857575292937       -5.27426578117702        2.43045631449792
C           56.28211971714891       -2.72111216119791        0.73361389693998
C           57.58278455302373       -3.31069629294203        0.99754090458261
C           58.49514205750188       -2.34868017947096        0.74972508101862
N           56.42532171755023       -1.42103932057605        0.35786185064512
C           57.75043175835625       -1.17123920811202        0.34679400546559
C           58.37833977521250        0.04006804067168       -0.00811741340735
C           57.73337239400975        1.24134451971913       -0.35928555610845
C           58.36919842835102        2.45519472551729       -0.73147432463662
C           57.39578418963692        3.38416248876189       -0.97431404680427
C           56.13434024965566        2.76606094599590       -0.74923569570857
N           56.38997067527940        1.47002544236073       -0.38929795318683
C           54.86600632442025        3.33977201139999       -0.89652016813154
C           54.82113066217645        4.77304877186171       -1.26451144596823
C           54.18964294508074        5.18046459993579       -2.44415862102288
C           54.14361352425441        6.51798593467506       -2.79183307468588
C           54.73011191017338        7.45919684830840       -1.95026633746177
N           54.68238764601784        8.86519540101659       -2.30881689583410
O           54.12123421817773        9.16112587229100       -3.33263785017989
O           55.20659918437685        9.64979938865861       -1.56014116204578
C           55.36212356779090        7.07535047120300       -0.77078465524878
C           55.40738815751556        5.73467886768892       -0.43517028291322
C           53.65340239082919        2.66284686994795       -0.72235789457177
C           52.34273129394417        3.28697028168238       -0.82583296233731
C           51.43812913858801        2.31492760470547       -0.59533656942154
C           52.19449393839916        1.10183619303482       -0.33759270767622
N           53.52521337685669        1.35174418042438       -0.41260375151665
H           50.50732766837757       -0.14032210983387       -0.07782122847454
H           50.50241986716942       -2.72217988261391        0.47554583611471
H           52.39445366858827       -4.53903231234154        0.98669680320741
H           54.27476067916615       -0.84035529433565        0.21502405622222
H           56.23325192729411       -5.42898624332130       -0.48350827914392
H           56.30642780862809       -7.82745020873445        0.15275416975514
H           54.06816006726183       -6.95725972699999        3.70149164589252
H           54.00497906484382       -4.55664364758646        3.07546733102289
H           57.75317389452613       -4.31815128325091        1.34068595744565
H           59.56862523806625       -2.40232223585841        0.83339518933365
H           59.43614088105106        2.58958409330209       -0.80621971973735
H           57.53672063049993        4.40398694049212       -1.29298396915499
H           55.67228716572798        0.78269733102499       -0.18376915823815
H           53.74881639146179        4.43712092089921       -3.09802073902613
H           53.66206906768463        6.84192716374781       -3.70663729187498
H           55.80657606991862        7.82763354270257       -0.13028633997624
H           55.88328200934460        5.42563366168758        0.48823800239727
H           52.16373158706126        4.32984407381778       -1.03194676737723
H           50.36179559320066        2.38287088387820       -0.58372180065220
C          132.69838069484240        0.03540744391196       -0.13008593665761
C          132.08197948382474        1.22683974097151       -0.48925982029437
C          132.72607999136036        2.42603294908515       -0.90510169013036
C          131.75971857880654        3.36044645190997       -1.14822327477217
C          130.49397835168998        2.76425636376943       -0.87959020079085
N          130.73857126588345        1.47695115034044       -0.49648949039054
C          129.22684144545525        3.34611055237247       -1.00548566979388
C          129.18823634194331        4.77020089965420       -1.41122239660970
C          128.53805911417015        5.15291595959873       -2.58868744765483
C          128.50290420647494        6.48081917743868       -2.97300115994327
C          129.11976727843856        7.43665863083390       -2.17064156692540
N          129.08526788407127        8.83261579462212       -2.56861978629902
O          128.50699334326305        9.10775034238325       -3.58860323112664
O          129.63813531119496        9.62977647879430       -1.85473129707556
C          129.77023566074178        7.07734138554772       -0.99357285610088
C          129.80386793822086        5.74603396148305       -0.62100613070238
C          128.01393034122702        2.68983075902701       -0.77800871284091
C          126.71420138671962        3.33238940754739       -0.86088268720029
C          125.79989293367095        2.38165474367760       -0.57909545685013
N          127.86814270656829        1.38276057881348       -0.42834710419130
C          126.54248229955932        1.16492127393015       -0.31176220788054
C          125.91240867539682       -0.05220194180576        0.01834431484415
C          126.55497408012802       -1.26095406758169        0.34751298213672
C          125.91646480485291       -2.48852867826520        0.66641457110351
C          126.88802339564538       -3.41127418796199        0.93844978585212
C          128.15107626391250       -2.77109962655021        0.80113669837472
N          127.89808854162250       -1.47630595767625        0.43484925285651
C          129.41822150732949       -3.34304573226103        0.96435615851286
C          129.46003752642997       -4.75970355488694        1.39237683245920
C          130.07976340750517       -5.72247945469146        0.58906968795904
C          130.12214428078340       -7.04691290841130        0.98407365720186
C          129.54392899153459       -7.41304689644302        2.19638314184627
N          129.58754552507233       -8.80180631804436        2.61726834345913
O          130.13734442074687       -9.58832907309028        1.88937634148946
O          129.07084428806644       -9.08250481530022        3.66849475505887
C          128.92391008291534       -6.47045562884797        3.01188414588174
C          128.88213696201490       -5.14956403881745        2.60489990320852
C          130.63215382309843       -2.67916784849864        0.75329500681505
C          131.94198738096426       -3.27248019670025        0.97777733398996
C          132.84835899250297       -2.32503844580325        0.66609251396277
C          132.09401094218140       -1.15004101164704        0.26552365330661
N          130.76275345507264       -1.39737153986502        0.33940550546431
H          133.78320439557322        0.04259060520115       -0.16016250777294
H          133.79302137538878        2.54350546235418       -1.00659322191866
H          131.90487388559305        4.37116759614908       -1.49342022621532
H          130.01762114870957        0.80495426248004       -0.25584923832792
H          128.07324737065883        4.39778240108310       -3.21169059513182
H          128.00687831287334        6.78587999556389       -3.88655463590173
H          130.23830894792803        7.84084167271628       -0.38392598325814
H          130.29469326362525        5.45611651309215        0.30079069388169
H          126.54552086481699        4.37227604544507       -1.08874175928513
H          124.72634867934160        2.47187368203190       -0.53885790834495
H          124.84904940839182       -2.63848446488005        0.67819703827853
H          126.74475542554717       -4.44714155537585        1.19903333769100
H          128.61727702314406       -0.78527280677188        0.24784704261594
H          130.51410276261345       -5.42759806400994       -0.35899086041036
H          130.59443657480915       -7.80037398629347        0.36526472893070
H          128.48578451331940       -6.77988731675422        3.95316295015200
H          128.41546242263732       -4.40442203064972        3.23865106052145
H          132.11937346941659       -4.27256724693921        1.33898493111438
H          133.92476153591454       -2.38172305061995        0.70338429736896
C           59.78352526042700        0.06338700453229       -0.01495911517325
C           61.00821651955997        0.07601050890133       -0.02653094377073
C           62.35031970184363        0.08215680484702       -0.03868812862241
C           63.58119100796036        0.08004108246225       -0.05013493482384
C           64.91840673580866        0.07308771467234       -0.06225735716822
C           66.14931882589767        0.06147290006353       -0.07298580671989
C           67.49108108222995        0.04691887347845       -0.08324681332946
C           68.71596047765193        0.02889264042932       -0.08941115154825
C           78.38122746813031       -0.00324896184338        0.00077731651964
C           79.60623298772072        0.00119368434525        0.01626705590211
C           80.94767436330766        0.00655353099214        0.02709470688830
C           82.17884062729659        0.01067760986408        0.03197084613201
C           83.51561645575494        0.01433766770899        0.03297937354945
C           84.74675188677902        0.01496587729059        0.02822529857710
C           86.08820920672349        0.01320206065502        0.01984982076127
C           87.31328365377719        0.00617259247505        0.01045263530835
C           96.97726829011522        0.01329822942460        0.02034346781356
C           98.20230038567436        0.02307177244711        0.03053528342409
C           99.54376029669767        0.03115590859784        0.03619783837341
C          100.77493196653239        0.03716621978685        0.03875931025879
C          102.11171958931325        0.03926381587751        0.03686456377655
C          103.34289271573876        0.03598381583599        0.03196807672425
C          104.68432722362378        0.02669566495464        0.02121800692786
C          105.90930175014729        0.01086536406256        0.01137041642715
C          115.57453690571548       -0.12009018861350       -0.03965507026441
C          116.79946062226510       -0.12474150737673       -0.02684280293927
C          118.14137318006566       -0.12471746061197       -0.01507889337846
C          119.37225243875837       -0.12197956199647       -0.00354210792174
C          120.70955782406266       -0.11534322974666        0.00698075876730
C          121.94028138855153       -0.10492878325033        0.01850753999030
C          123.28243764820451       -0.09156868044503        0.02385258865400
C          124.50706968900961       -0.07343345990711        0.02564041376981
C           70.12012644086337        0.01342128505977       -0.09243404749706
C           70.75634568219917        1.00941408217917       -0.85872420540119
C           70.11616899381653        2.02913420532644       -1.60914897298044
C           71.08682101523175        2.76799454664292       -2.22849603891930
C           72.34848053371243        2.21405394992210       -1.87883019876776
N           72.09858892352818        1.16102321368902       -1.04120569474383
C           73.61370164965689        2.66142176474268       -2.28099535251731
C           73.63943411637020        3.79873821793790       -3.23079842509212
C           74.26180909069248        5.00010358702733       -2.87757713959088
C           74.29092610656939        6.06332046015805       -3.76136707069247
C           73.69647325791394        5.92295873658155       -5.01223508087895
N           73.72750477554037        7.03481759580355       -5.94599822052882
O           73.19660986256139        6.87926584074160       -7.01578005620457
O           74.28221643765013        8.04382691013131       -5.59325069532007
C           73.07270193649258        4.73540050223024       -5.38396310081937
C           73.04418101404038        3.68018607544548       -4.49052128369898
C           74.83527729558854        2.12810910232724       -1.86527146082053
C           76.12639058191141        2.58290318187842       -2.35080869649907
C           77.05602732052188        1.83922049258175       -1.71693055362040
N           75.00137257374266        1.11216783275896       -0.97473567555482
C           76.33130531039063        0.92488949401549       -0.85636182672551
C           76.97752358860649       -0.00842129181049       -0.02076406967596
C           76.34091175342083       -0.96095952100734        0.79853234010128
C           76.98027682585993       -1.89059110074727        1.65863808923260
C           76.00985968905653       -2.65003885131027        2.25276147758606
C           74.74924634645315       -2.21013494197219        1.76426879539935
N           74.99949055568577       -1.18032192109040        0.89815350723377
C           73.48469284349821       -2.70454555747709        2.10895863584039
C           73.46139027711112       -3.85843570926115        3.03852354085404
C           74.08025276062253       -5.06179178652530        2.68574536786990
C           74.06165509443834       -6.14193146031205        3.54911539950806
C           73.42321461907238       -6.01638761399744        4.77963488750151
N           73.40572561512634       -7.14584198001348        5.69246675036634
O           72.83718725670606       -7.00364561473821        6.74450364948449
O           73.96187972944165       -8.15475196281471        5.34152455092918
C           72.80272591428033       -4.82693405834810        5.15096557461910
C           72.82255412493561       -3.75452046176790        4.27805804360934
C           72.26333267708749       -2.20352870651015        1.65339905388798
C           70.97370313381066       -2.78169939525818        1.98790853818849
C           70.04375793690154       -2.02030433499015        1.37572214132861
C           70.76695233046736       -0.98811621537356        0.65934615351248
N           72.09670931259483       -1.13034638524865        0.83310481631287
H           69.04932692062573        2.17458616440724       -1.66006418531753
H           70.94285257342375        3.62740725898908       -2.86259601635915
H           72.81511594378712        0.58250504610642       -0.61554602979043
H           74.71070221319742        5.10056589452138       -1.89634627042702
H           74.76604658801716        6.99969163684246       -3.49463417124676
H           72.62141061423605        4.64996643241316       -6.36515454079781
H           72.57388511773559        2.74574074768818       -4.77385188118957
H           76.27952224177338        3.35506047860701       -3.08700783608728
H           78.12918921214018        1.87900428904873       -1.81172809833956
H           78.04630286608339       -1.95950791189016        1.80265295128075
H           76.15340827804384       -3.43772952427453        2.97407810444985
H           74.28353495725459       -0.65601917837102        0.40644401115433
H           74.56252979621254       -5.15174702917216        1.71932852628232
H           74.53282291695452       -7.08008406924607        3.28159450289561
H           72.31596813673607       -4.75377563543772        6.11605288936909
H           72.35453711778929       -2.81890185650601        4.56086774589723
H           70.82201328285934       -3.65877503356845        2.59570751252229
H           68.97139080726605       -2.13080701008018        1.38390825813587
C           88.71709600178023       -0.00126405867498       -0.00118619306817
C           89.34267281674923        0.99162703058721       -0.78025043414133
C           88.69165579112544        2.00366821784342       -1.53173615695818
C           89.65375599332455        2.74227727381377       -2.16451631021131
C           90.92075738890475        2.19591547593167       -1.82221008646139
N           90.68253671960963        1.14765208784820       -0.97512639525401
C           92.18050812884015        2.64616218284277       -2.23798290197465
C           92.19196434736206        3.77587940620084       -3.19704163143008
C           92.81176877205053        4.98327197498558       -2.86038082936669
C           92.82517204944733        6.03952515213684       -3.75291040342819
C           92.21722647061920        5.88617767812550       -4.99571278552454
N           92.23057235286123        6.99119562528203       -5.93808078588578
O           91.68853813080665        6.82420993429125       -7.00046728970442
O           92.78333428112411        8.00604767733258       -5.59940325501480
C           91.59611786048431        4.69227917921948       -5.35117371094326
C           91.58366922482503        3.64402793850870       -4.44924824850414
C           93.40785016427773        2.12164972783085       -1.82782226148269
C           94.69329905974381        2.58074750147267       -2.32404533957229
C           95.63099246705303        1.84526681281511       -1.69240533056882
N           93.58510398709849        1.11088128989540       -0.93353718532314
C           94.91678255638165        0.93073225625711       -0.82335793686949
C           95.57348568348641        0.00156687591080        0.00867909515605
C           94.94785258289279       -0.95507296167978        0.83181903823954
C           95.59865407603313       -1.88610585871305        1.68177330705364
C           94.63657240744108       -2.65088318028433        2.28271031491326
C           93.36985845733241       -2.21213619007499        1.80954397385811
N           93.60814131968637       -1.17869445486420        0.94446225502586
C           92.11022586460389       -2.70935315759426        2.16815250984354
C           92.09878478359038       -3.86807235525392        3.09202338795883
C           92.70898097668568       -5.07073264002503        2.72236929650395
C           92.69644496266778       -6.15767170653400        3.57728670120181
C           92.07342117494861       -6.03943694780925        4.81638934050764
N           92.05987669832609       -7.17702198279341        5.71918900761414
O           91.50556563178225       -7.04064667239691        6.77952873446123
O           92.60420369015389       -8.18653422003197        5.35186424500509
C           91.46365341075976       -4.85008472585683        5.20534838913224
C           91.47703733755320       -3.77087329673065        4.34071548790230
C           90.88296358329364       -2.20832759772398        1.72949604355208
C           89.59783052325118       -2.78624206394467        2.08135700398008
C           88.66004019642691       -2.02630846187084        1.47950142991484
C           89.37394814922342       -0.99584872679644        0.75133430700457
N           90.70552456030671       -1.13620535990001        0.90978583266013
H           87.62383261063775        2.14456796924105       -1.57404610130950
H           89.50054382985905        3.59694322034102       -2.80283460108044
H           91.40521452806759        0.57463480854669       -0.55244277047862
H           93.27067970254711        5.09423201266452       -1.88494199136341
H           93.29804240701969        6.98056931886351       -3.49892924818434
H           91.13399687002347        4.59669684486520       -6.32636654689928
H           91.11540774955222        2.70481380334699       -4.71990964168644
H           94.83761208780020        3.35008102092903       -3.06496148031622
H           96.70329694183623        1.89032299903533       -1.79429113226751
H           96.66630525005063       -1.95275888753149        1.81433253188031
H           94.78952887834927       -3.44145507133250        2.99893957213235
H           92.88559509255447       -0.65499213482796        0.46182872388718
H           93.17881928000257       -5.15488600202957        1.74932338329181
H           93.15992069053826       -7.09573098279791        3.29634531874478
H           90.98935201676825       -4.78258496645050        6.17702576392393
H           91.01654528026643       -2.83559387135892        4.63667416322866
H           89.45389269329343       -3.66195637415888        2.69297108225113
H           87.58789235267632       -2.13702314519940        1.50158022584608
C          107.31292846391700       -0.01195538579113       -0.00394929903147
C          107.94787558918115        0.97520320494826       -0.78254110624834
C          107.30693392346426        2.00083411304213       -1.52421081911625
C          108.27580827890669        2.73017140279587       -2.15726782425495
C          109.53699582005898        2.16362140261610       -1.82599653540729
N          109.28868313257809        1.11362066435791       -0.98389602708729
C          110.80040626153345        2.59761090984524       -2.24761746122544
C          110.82080300391316        3.73485926886578       -3.19764505294113
C          111.45955545166152        4.93083966010208       -2.85578895259085
C          111.47694075671247        5.99573504188657       -3.73796173466653
C          110.85407742341985        5.86252612035690       -4.97569387693227
N          110.86966835262739        6.97730742276148       -5.90643798978934
O          110.31207387731534        6.82859644462159       -6.96351027599278
O          111.43748195530723        7.98227420903240       -5.56322778235765
C          110.21531333115506        4.67969038344177       -5.33682798975561
C          110.19917562118884        3.62269331634556       -4.44525676458518
C          112.02280385529296        2.05124919767464       -1.85081028638523
C          113.31110840863609        2.49380538705953       -2.35459423949059
C          114.24246606573863        1.73964361510688       -1.73568008888757
N          112.19157833493745        1.03189761575751       -0.96491136402188
C          113.52142591420284        0.83049880201323       -0.86664880282516
C          114.17017689998107       -0.11352774902834       -0.04544348601882
C          113.53613990746479       -1.06423273524798        0.77801892701154
C          114.17893515924320       -2.00812627938345        1.61990495359970
C          113.20963732477171       -2.75537097817961        2.23116894605222
C          111.94606270843043       -2.29288833545488        1.77243177575325
N          112.19377721894031       -1.26430625514610        0.90428705691803
C          110.68144049399940       -2.76526649181196        2.14670363597881
C          110.65747205954395       -3.91757209535557        3.07841979683812
C          111.23753401410255       -5.13567335944743        2.71110980768515
C          111.21125047759432       -6.21574478190596        3.57445772924395
C          110.60509666016284       -6.07496658484155        4.81957214052882
N          110.57702917709042       -7.20527056358142        5.73103529472826
O          110.03833706173801       -7.04888021877622        6.79669468052500
O          111.09463225639385       -8.22932097250976        5.36521790535401
C          110.02557770035774       -4.86985340410723        5.20634777852382
C          110.05221920047774       -3.79776280576901        4.33329033570964
C          109.45874972985318       -2.24497962912587        1.71798901195678
C          108.16782311508545       -2.80179042072298        2.08271320853131
C          107.23690615953126       -2.03138241440274        1.48360259939784
C          107.96051950887168       -1.01434234325897        0.74614546713318
N          109.29101810109124       -1.17355840963442        0.89541730461242
H          106.24098315207912        2.15709201528685       -1.55933228237146
H          108.13092363284422        3.59132194594405       -2.78876591500131
H          110.00547201988992        0.52778723616739       -0.56882733685076
H          111.92956535604530        5.02649429875470       -1.88402015117041
H          111.96378487458114        6.92839801116833       -3.47949552836332
H          109.74208273599679        4.59955733882112       -6.30807935212874
H          109.71669220038861        2.69202036725192       -4.72040968373720
H          113.46104022384613        3.26581282420643       -3.09162088605879
H          115.31446283626470        1.76854801725187       -1.84632489414155
H          115.24656759733229       -2.09463118915321        1.74060100483635
H          113.35589549000161       -3.54926454806935        2.94512359241088
H          111.47575501906469       -0.72632962742949        0.43067427220952
H          111.69420174765531       -5.23722986544960        1.73347289161075
H          111.65096898230671       -7.16574669661249        3.29545013480159
H          109.56391037950110       -4.78490736738168        6.18272946933618
H          109.61491089354625       -2.85067889882470        4.62690657671409
H          108.01562442315047       -3.67222983703771        2.69983729037471
H          106.16343960373182       -2.12613678812708        1.51419622762433
