612
 energy: -979.836121789679 gnorm: 0.000793379289 xtb: 6.5.1 (b24c23e)
C          154.37442351626325        0.43624323305594       -0.04968768006197
C          155.01895574289225        0.79882473939980       -1.22561173121090
C          154.40294048871019        1.15181561890963       -2.45836420120092
C          155.39285625274010        1.41520954937568       -3.36361642665040
C          156.64554441069677        1.24235848963601       -2.70970507196572
N          156.36894825926737        0.86534491333756       -1.42568262950358
C          157.92570859551674        1.39882041901586       -3.25494919864411
C          158.00043443832737        1.85296359777576       -4.66284111877514
C          158.64791536138551        1.07878502847883       -5.62774641959594
C          158.71387316261456        1.48769935099668       -6.94870967693155
C          158.12938297589113        2.69582363302239       -7.33953813047587
N          158.21250863769509        3.18062673207567       -8.63692551139123
C          158.40434307836423        2.25083038853507       -9.74182822932727
C          157.49161964356057        3.48316020037669       -6.37316392871218
C          157.42364406340380        3.06327932654689       -5.05809869710303
C          159.12016767410137        1.15869975685821       -2.56946816797592
C          160.43454467117871        1.42684944918536       -3.12295155755261
C          161.32748890051727        1.08243338387034       -2.17181176274973
N          159.23761096135314        0.67826777188227       -1.30057020216856
C          160.55925276535302        0.60846018099335       -1.03785213501411
C          161.16119260797271        0.16804116049853        0.15867657409992
C          160.48793122541019       -0.21980234482597        1.33290343219493
C          161.09301682790030       -0.62754552796477        2.55007339606272
C          160.09861947198627       -0.88309871965658        3.45371225634712
C          158.85188106463346       -0.65442202992844        2.80991496614585
N          159.13911872096566       -0.25349022962167        1.53127743722299
C          157.57418753763244       -0.77468183377445        3.36979205710914
C          157.49957511556605       -1.22887896267901        4.77767788525380
C          156.89866617688318       -0.42939272471666        5.75199060740727
C          156.82982257307248       -0.83863167191736        7.07276754947978
C          157.36437842047744       -2.07275909778065        7.45379579395756
N          157.27431358269922       -2.55763543170109        8.75062123844378
C          157.13332326818048       -1.62449286386433        9.86037200000572
C          157.95535855960236       -2.88478885483559        6.47809539359312
C          158.02635943156770       -2.46485860353999        5.16320561174120
C          156.37919643707610       -0.49908386992391        2.69580214294548
C          155.05582885982258       -0.70268911620591        3.26404257642386
C          154.17087200415250       -0.36000468357398        2.30598710435133
C          154.95197614852282        0.04313099424626        1.15046625624740
N          156.27691809603104       -0.05439371013493        1.42068949235036
H          153.28972608468413        0.44924024702395       -0.08749413825195
H          153.33749965523231        1.18698968423487       -2.62164424149365
H          155.27034987695328        1.69164497211917       -4.39834369900252
H          157.07363121188772        0.65135499123197       -0.72792307124350
H          159.08921359863555        0.13049147287456       -5.34074923338264
H          159.22209654333227        0.86117229059860       -7.67141686246676
H          157.50575720662869        3.87760514695510       -8.83902886512073
H          157.66504739921015        1.44185600958210       -9.72123711997417
H          158.30229782260957        2.80852839307796      -10.67282360603502
H          159.40646833914383        1.82221552354384       -9.70018140481597
H          157.04986968539092        4.43061581326479       -6.66368176165883
H          156.93678752729548        3.69053311068155       -4.31921155320961
H          160.62726976510098        1.84596481517372       -4.09722209825988
H          162.40229692358355        1.15474529330713       -2.20561910298233
H          162.15565555669446       -0.70854926717891        2.70986220786113
H          160.21791584165052       -1.19138887015318        4.47955055532442
H          158.43890486630187       -0.00763275204765        0.83919142715162
H          156.49723850264365        0.53879666516434        5.47277757918420
H          156.35857752218109       -0.19206862719117        7.80285934010452
H          157.95208356767060       -3.28537460863207        8.94336033434656
H          156.15012719943633       -1.15322074023126        9.83000338317510
H          157.90647171726374       -0.84790663014393        9.83516890147496
H          157.22043674098848       -2.18948676326793       10.78846763253295
H          158.35785856184035       -3.85176979581212        6.76125492945471
H          158.47590644840506       -3.11112786545095        4.41713510323306
H          154.85479140756533       -1.07722501748690        4.25489604415099
H          153.09277846350983       -0.37871838241442        2.34425321278187
C          248.38967860543360        0.43571342145492       -0.18434013136123
C          247.79802709258885        0.84188411212419        1.00508387236934
C          248.46815336159759        1.21937997401894        2.20178994390004
C          247.51931039727864        1.52421353110154        3.13759482511774
C          246.23898627264134        1.35445772919521        2.53876667909356
N          246.45827846750655        0.93668164544530        1.25626596578301
C          244.98352057519497        1.54973912147733        3.12757607081481
C          244.96885727573633        2.03690334836573        4.52601192270840
C          244.33541999414200        1.29796108423181        5.52746140688210
C          244.32397433228547        1.73329992059422        6.84137987556705
C          244.95150430627544        2.93314055095443        7.18850291047972
N          244.92483978195335        3.44397292532695        8.47829386484458
C          244.74594863070226        2.53988946938604        9.60655719074251
C          245.57541598489442        3.68558381640246        6.18584684741303
C          245.58814755101474        3.23966580670479        4.87760839649756
C          243.75961306062138        1.31265771152238        2.49482836502573
C          242.47259952107655        1.62640397670212        3.08736600956278
C          241.53741958778224        1.26245632497270        2.18527677960922
N          243.58436979447228        0.78838558072132        1.25001668449453
C          242.25248806749710        0.73054053528952        1.04255735197237
C          241.59653290240942        0.24416726868817       -0.10714773543878
C          242.21787726252731       -0.20251920762916       -1.28955683227698
C          241.55987004376010       -0.65975247349634       -2.46076347703440
C          242.51387875109694       -0.95974171881595       -3.39380413809513
C          243.78779907626898       -0.71003661720161       -2.81419694637237
N          243.55679905548502       -0.25262816283949       -1.54311038506981
C          245.03954772790851       -0.86023141330414       -3.42317927003313
C          245.05044819772596       -1.37299388820249       -4.81284200982140
C          245.60694737348186       -0.61732494132657       -5.84657631215145
C          245.61388849232276       -1.08221786670163       -7.15061001718739
C          245.06024486468149       -2.32928512185048       -7.45417320184975
N          245.08834964463708       -2.86796144434588       -8.73249261104729
C          245.17346831493725       -1.98159387106607       -9.88546769000686
C          244.51460502855855       -3.09782796526360       -6.41875800544458
C          244.50515618528377       -2.62255934649972       -5.12097901919336
C          246.26397297478729       -0.56652125147336       -2.81272186698471
C          247.56050959301905       -0.79947403053297       -3.42921444405355
C          248.48772837101242       -0.43363628836178       -2.52090170094063
C          247.75920441630993        0.01367311461272       -1.34748619575087
N          246.42332686737362       -0.07970059647925       -1.55898186314505
H          249.47512678747756        0.43469720848968       -0.19036273169164
H          249.53969687330220        1.24132173456653        2.32187731043048
H          247.68754642846596        1.82727496420090        4.15835102314847
H          245.72324032424379        0.71323109766962        0.59366623687954
H          243.86155812252534        0.35578076966488        5.27417405494988
H          243.82475367692587        1.13378478030602        7.59266904341344
H          245.65640292680939        4.12506391413745        8.64308502405375
H          245.46403958777844        1.71216370077082        9.57799521038311
H          244.89178476776183        3.11188074185192       10.52298540652304
H          243.73268938937360        2.13612762399909        9.60507240608528
H          246.05013013387133        4.62677802334631        6.44288882484452
H          246.06419339170495        3.84097811543647        4.11061594666980
H          242.32512227694039        2.08676426431752        4.05085804416637
H          240.46613919455447        1.35573709474296        2.25715629613118
H          240.49117469884533       -0.74222726923546       -2.57158162536167
H          242.34978390846641       -1.31180433478663       -4.39914133756346
H          244.28677270252734        0.01817982954202       -0.89227045753230
H          246.02217125919714        0.36037696201446       -5.62736057443827
H          246.05175757574477       -0.46875176389821       -7.92847580493998
H          244.40188096939772       -3.60164961522797       -8.86146440613083
H          246.15684238790479       -1.51122258849318       -9.92382364639017
H          244.40240043873570       -1.20323353726799       -9.85371674433060
H          245.04013041334338       -2.58420205575257      -10.78385947519208
H          244.09809949592113       -4.07453337739118       -6.64184336151500
H          244.08959816642786       -3.23509536153528       -4.32823047070596
H          247.71674575344858       -1.20707105809463       -4.41508167860409
H          249.56307038393504       -0.46314574981380       -2.60387206166095
C          162.56940815333093        0.12254972782116        0.19977960601291
C          163.78593585873747        0.07331635836437        0.22039570154864
C          173.47861041108558       -0.11289222746232        0.21955560047129
C          174.69632234311237       -0.11503905050250        0.19464205785204
C          184.38934685308607       -0.04557209782522       -0.08938284881083
C          185.60694219884277       -0.02246095110074       -0.12267782703283
C          195.30847432813781        0.22249257043050       -0.24595403540952
C          196.52656052445124        0.25764655418670       -0.25870530491303
C          206.23522944269465        0.14556608117053       -0.28528279014110
C          207.45199458647141        0.07703966110735       -0.27226725766644
C          217.14751820853459       -0.22879336184598        0.13855288466559
C          218.36536139675647       -0.24938356818740        0.16685068091414
C          228.06852127558818       -0.20613713621394        0.23059129767890
C          229.28705427902312       -0.19387573770802        0.21533908320627
C          238.97164462551117        0.15444040167272       -0.06107988894234
C          240.18832266849802        0.20455580737315       -0.08808590159781
C          165.19407670017731        0.03666842405043        0.22710542762513
C          165.82310339114417        0.09575309422415        1.48547357118762
C          165.17904974150136        0.15834928386590        2.74711072664666
C          166.14529842610958        0.14746961025934        3.71605477570646
C          167.41098082216303        0.09534726068959        3.07251068521086
N          167.16533202180719        0.06573661292934        1.72526820247544
C          168.66867452387621        0.03850997000646        3.68730930662826
C          168.67814000059113        0.06782391292136        5.17019825518832
C          169.20120991919515       -1.00259274359240        5.90077369914609
C          169.19795506498474       -0.98385401992548        7.28271375949316
C          168.67485470217397        0.11291180727726        7.97827894895236
N          168.74305981383876        0.11035806804747        9.36461356530749
C          167.81102948996755        0.92712177564905       10.13062731039273
C          168.16643908118348        1.19357181502779        7.25245101948679
C          168.16343520464747        1.16147685719932        5.86800465555225
C          169.89374217965968       -0.04140305069427        3.02216915866849
C          171.17785929020613       -0.04115556750917        3.69862501812665
C          172.11881315113675       -0.08659369481090        2.73264287989968
N          170.07721302760496       -0.07886867055893        1.67309063131691
C          171.41070436940186       -0.10220350582850        1.46915276863464
C          172.07061135777053       -0.11643607544790        0.22409532738594
C          171.44247148116185       -0.11924118997933       -1.03693553764259
C          172.08590740235260       -0.05348907876703       -2.29887746499710
C          171.11861984174752       -0.06569921956873       -3.26700758775999
C          169.85480516855358       -0.14515556997045       -2.62300047862743
N          170.10079127177409       -0.16432686782016       -1.27575644395041
C          168.59478791506180       -0.18096870308107       -3.23530107782129
C          168.57956559780095       -0.22383077157650       -4.71578762553151
C          167.92639134002590        0.76846845329369       -5.44991679576379
C          167.90718933849192        0.74035575469891       -6.83362565628764
C          168.53251752079939       -0.30242613760793       -7.52338805529651
N          168.57968939989826       -0.35727398902776       -8.90889711603172
C          167.54646598497203        0.31074727737837       -9.68938395631758
C          169.19430492798421       -1.29675534801115       -6.79259010943912
C          169.21951506325624       -1.25379588143374       -5.41140988600468
C          167.36925248981291       -0.17394855006313       -2.56516767887285
C          166.08711409156399       -0.31248213492220       -3.23106346719969
C          165.14576783233713       -0.24495135158853       -2.26657114946770
C          165.85298875227338       -0.07252322725352       -1.01416294091708
N          167.18609999127034       -0.05141844179204       -1.22137548121660
H          164.11183146504237        0.19996531408720        2.89039901328358
H          165.99357729444060        0.16290040017963        4.78296006001628
H          167.88335482050695        0.01881269362461        1.00997133189419
H          169.59340161717313       -1.86663553338670        5.37569467378016
H          169.60026888890246       -1.82490498735879        7.83755971736268
H          168.83911306456318       -0.82278448724062        9.74720188212222
H          166.77275316986842        0.74194122258922        9.83200648117413
H          167.93270576427778        0.67786568178567       11.18478196781201
H          168.04053858630007        1.98455506032439        9.99362196295610
H          167.77467288729289        2.06528188290040        7.76204661249100
H          167.77510638008403        2.01122907395286        5.31680109953819
H          171.32099495817570        0.00521571610562        4.76599600232193
H          173.19108652180651       -0.10592558495195        2.84136951755421
H          173.15186684371693        0.01164706877447       -2.44277327046492
H          171.26727763209840       -0.00572195352200       -4.33274820284583
H          169.38293167064404       -0.19149868782310       -0.55943723170344
H          167.44488306376314        1.58752054295872       -4.92676614348224
H          167.40602166736255        1.53552952486786       -7.37183655279648
H          168.78226621615889       -1.28724818495579       -9.25586048189755
H          167.65360510498374        1.39282044393537       -9.60305340429575
H          167.67893877221405        0.02958754560302      -10.73419665240684
H          166.54202584383327        0.02051625929881       -9.36030807605795
H          169.68672853762470       -2.10765415082928       -7.31917817560908
H          169.71856554381230       -2.04269565838098       -4.85910151390486
H          165.94663966834705       -0.46547531116554       -4.28885013441652
H          164.07575561571366       -0.32508546682880       -2.36831116841142
C          176.10377697725298       -0.10610132964831        0.15858549270486
C          176.76158935350708        0.41714691554664        1.28858014361465
C          176.14795544128435        0.90645463265051        2.46951583869880
C          177.13807144132960        1.30225266348790        3.32711108124449
C          178.38702390527263        1.08168589417293        2.68653594838061
N          178.10885774461741        0.53907521491568        1.45995945065826
C          179.66113963353672        1.34854780957327        3.20464178569542
C          179.70968340802071        1.96618627486460        4.55120793006898
C          180.36131442980749        1.32117580597761        5.60632286195118
C          180.39429774020257        1.88516572179860        6.86753950592259
C          179.78094170722940        3.12025197523403        7.11088145915351
N          179.88511909645140        3.67232794273433        8.37967011205788
C          178.89521447961368        4.64579481089675        8.82198831916442
C          179.14586913782466        3.77939067217523        6.05453144344258
C          179.10640102557150        3.20084604675344        4.79721518238118
C          180.87089760557578        1.08646178615408        2.55800417145422
C          182.16451848837085        1.47631499435691        3.08752502043083
C          183.08336941241134        1.08008625323847        2.18210145625104
N          181.02535614914217        0.47939589013041        1.34859877766918
C          182.35138213580549        0.45199732137084        1.10147692780950
C          182.98278598652368       -0.07766325521146       -0.04259031201180
C          182.32468322570512       -0.62826227280240       -1.15986658041676
C          182.93817860909019       -1.14225325971837       -2.33012679505743
C          181.94828782854952       -1.55404688900123       -3.18046525190854
C          180.69925480409864       -1.31689817458559       -2.54638162121724
N          180.97734875671546       -0.75350983306649       -1.32912894175653
C          179.42505566300628       -1.57796895479071       -3.06758054256772
C          179.37643731133119       -2.21215190269086       -4.40660731012852
C          178.74463346858107       -1.57135248953014       -5.47398144347988
C          178.69622385096483       -2.15098378355159       -6.73028637752136
C          179.26968635116907       -3.40727706546180       -6.94597493157945
N          179.28874834960027       -4.01491177674056       -8.19360106576728
C          178.26190969455595       -3.67851922562152       -9.17097808699412
C          179.90883132492584       -4.05202323737205       -5.88003952218114
C          179.96342284833523       -3.46031672968800       -4.63210062717923
C          178.21456072829338       -1.29203285673612       -2.43276242660049
C          176.91797575486544       -1.65681528092008       -2.97331616853102
C          175.99900545227433       -1.24118114396758       -2.07680382364937
C          176.73424030565164       -0.63066853003798       -0.98804887107463
N          178.06126990888134       -0.68172508173661       -1.22479673460629
H          175.08447073976834        0.94442274457462        2.63858596079208
H          177.01391585091955        1.70191748516303        4.32025657487268
H          178.80945277221869        0.26326072151228        0.77995192410466
H          180.82552279460054        0.35582632477577        5.43658434657340
H          180.89553346667915        1.36915151874048        7.67981815109718
H          180.08635973558478        2.97921636851777        9.09054674453611
H          177.87373482571149        4.27387694437011        8.68196543937193
H          179.06549528104298        4.84211551961351        9.88058837123871
H          179.01592853613676        5.57904354782038        8.27041252948801
H          178.68292597807005        4.74678966208153        6.20621207402155
H          178.61889230101082        3.72784092604479        3.98405708520381
H          182.32621619599507        2.00337843952647        4.01384070816485
H          184.15307422078254        1.20914563855119        2.21306762910535
H          184.00153922720872       -1.18648503707168       -2.49758125488340
H          182.07293935144602       -1.97397675499809       -4.16511220407758
H          180.27679824085965       -0.46229961495704       -0.65551245604176
H          178.30289355431415       -0.59267884272237       -5.32088374770990
H          178.21304235694606       -1.61840563269993       -7.54025926216761
H          179.45131605668905       -5.01326853669631       -8.13674168680197
H          178.40345980418644       -2.65678696523682       -9.52547742825033
H          178.36626284667048       -4.35837261055434      -10.01656016213503
H          177.25540076334178       -3.77733141541802       -8.74839657958208
H          180.36064788198232       -5.02556988065774       -6.03907121445426
H          180.44471804983618       -3.98144061043783       -3.81163025490587
H          176.75325507830550       -2.18012967579582       -3.90128261730015
H          174.92700282854005       -1.34727925395799       -2.11785378637641
C          187.01365339200501        0.02022917082569       -0.14422315621932
C          187.65706000305286        0.12224281865475        1.10541215492995
C          187.03481178579722        0.10069796836316        2.37894755608395
C          188.01299384013109        0.22210146808194        3.32874363544824
C          189.26205751522465        0.32852373849840        2.66063054673014
N          188.99781035750379        0.24783538353061        1.31907144473285
C          190.52494460311311        0.48356160962633        3.24857003202921
C          190.55279567746075        0.63367836780578        4.72172111399543
C          191.28205843699604       -0.25791143474806        5.51431619246928
C          191.29807202066712       -0.13135683983831        6.89012789988256
C          190.58873020592904        0.89984817815684        7.51812750325311
N          190.67798761382952        1.01934180077457        8.89752766390928
C          189.62214827110122        1.70708555591747        9.62894305046650
C          189.87381273216837        1.80601886755482        6.72975587104480
C          189.85254427018251        1.66380234498377        5.35279491218698
C          191.74120106503162        0.50420582134238        2.56207011612743
C          193.01649753114057        0.78601108977451        3.19414297767179
C          193.95126431873649        0.69881204155363        2.22443519129654
N          191.92052553661321        0.27752186043201        1.23092773963433
C          193.24714314941193        0.36726522979677        1.00335281846452
C          193.90205132892271        0.17329765049803       -0.23087592326103
C          193.26145339372135       -0.05473842989635       -1.46498431644501
C          193.89160526842687       -0.23209337142196       -2.72250067122796
C          192.91399275335422       -0.35923781900373       -3.67137241900431
C          191.65537062200499       -0.27905191679705       -3.01728852366987
N          191.91619406878431       -0.10070555343728       -1.68432755773130
C          190.39027297840803       -0.31308531147628       -3.61817803606847
C          190.36567015560172       -0.47987017318974       -5.09220870466432
C          189.82556822384279        0.51248518567001       -5.91163853920758
C          189.79907392287731        0.36798535476392       -7.28839310285849
C          190.30235957934306       -0.79295807306562       -7.88193685106509
N          190.33955250291538       -0.97180795221373       -9.25787255660808
C          189.38274624320835       -0.26420958295161      -10.09867641931982
C          190.85163068995055       -1.78809859211977       -7.06452356778996
C          190.88513263287612       -1.63013216428825       -5.69163026158674
C          189.16933185760249       -0.20174273800567       -2.95059778420482
C          187.88044071077701       -0.28053361119820       -3.61330583664487
C          186.94600344358605       -0.18053883990125       -2.64517482314936
C          187.66288998029950       -0.05636843946083       -1.39291373290828
N          188.99487510864466       -0.06375056132641       -1.60670405370617
H          185.97595414535323       -0.01157772080435        2.54400653496401
H          187.88140180482867        0.22013530197055        4.39841942009337
H          189.70314291929151        0.26769773469303        0.59022443087725
H          191.82089652684400       -1.07260021310543        5.04309694175506
H          191.86060902612937       -0.83614895004640        7.49346533679933
H          190.95580255644282        0.15467243349942        9.34627412854302
H          188.63218655830238        1.31126944134979        9.37473896302335
H          189.80393567308138        1.56642387951767       10.69445988184641
H          189.64904458809806        2.77495667986540        9.40851553612249
H          189.33436892937127        2.62754239177636        7.18498793156757
H          189.30242345329242        2.38049268327203        4.75252620979366
H          193.15542443847929        1.04109179667440        4.23225786823188
H          195.01405398341123        0.86050552019279        2.30204191163907
H          194.95731899519294       -0.25442600132925       -2.87784534841546
H          193.05297558396967       -0.48564722886636       -4.73254900757094
H          191.20630896751672       -0.00153302843102       -0.96627281632133
H          189.43847606351093        1.42104177467210       -5.46329313988564
H          189.38752137606519        1.16469349373282       -7.89582544007579
H          190.43350663613325       -1.94571275587567       -9.52059542877049
H          189.60722745825629        0.80314907720591      -10.10371235646425
H          189.48089014900503       -0.64574306158441      -11.11498634618966
H          188.35361036646350       -0.41454197633105       -9.75278605427572
H          191.25013611639378       -2.69030568837004       -7.51660676853038
H          191.29690684596034       -2.41788147691051       -5.07016352791732
H          187.73001133087877       -0.40963370447873       -4.67286514207378
H          185.87295279675067       -0.19084630860652       -2.74586159891527
C          197.93329119621524        0.29767184467841       -0.25828145840611
C          198.56881510209277        0.13617653648284        0.98944957778031
C          197.93844045861420       -0.11760810946837        2.23324450264484
C          198.91147906300043       -0.18498398598289        3.19380846100121
C          200.16598580761794        0.02759638510936        2.56262065118711
N          199.90971503008612        0.20177412166455        1.22854576226989
C          201.42660743772186        0.04837516489951        3.17573781107125
C          201.44093433963911       -0.05227110070303        4.65308068909581
C          202.14218981162037       -1.07814868210208        5.29385337128973
C          202.14687154051541       -1.17830131978263        6.67199421149046
C          201.45368580872221       -0.24749514291091        7.45557014856091
N          201.53260412959503       -0.35547149752564        8.83646872242264
C          200.48439765778889        0.22729663664458        9.66369728407551
C          200.76480438224104        0.79029816269158        6.82126871035823
C          200.75465688182473        0.87535640745520        5.43964612325920
C          202.65024393373622        0.14756374488618        2.51005541232449
C          203.92847965115283        0.26251179486682        3.18697290262594
C          204.87108786331129        0.29207099548275        2.22129767181407
N          202.83627337828048        0.14340933635818        1.16046654374878
C          204.16821771889514        0.20589770341770        0.95826358818558
C          204.82915675381051        0.19948073405328       -0.28843501349095
C          204.19361391551004        0.26623722167409       -1.54393363317756
C          204.82880046050030        0.32870590977067       -2.80958371897852
C          203.85771619624475        0.46418855684302       -3.76397756191248
C          202.59700231834523        0.46940822350877       -3.10889531401988
N          202.85061262184851        0.34363698760640       -1.76865357372741
C          201.33893195995267        0.62763626233637       -3.70482479379631
C          201.32468161213802        0.78515120776818       -5.18012169645938
C          200.83821108977708        1.95441739175501       -5.76673013988847
C          200.82313924634661        2.11238591942293       -7.14235522336160
C          201.28357400179485        1.08596830197765       -7.97179800101390
N          201.33242977001825        1.20801311207816       -9.35369989334689
C          200.41547022806662        2.11972081179761      -10.02571216582454
C          201.77792762807243       -0.08648732591628       -7.38771041409927
C          201.80021850614483       -0.23087833094859       -6.01317370627372