124
 energy: -214.299235532769 gnorm: 1.117107525369 xtb: 6.5.1 (b24c23e)
C           11.90434400000000        0.16613700000000        0.26148200000000
C           12.63778900000000        1.33880500000000       -0.45921500000000
C           12.04082200000000        2.46652000000000       -0.97465700000000
C           13.06506500000000        3.23580200000000       -1.58591400000000
C           14.25276300000000        2.54674700000000       -1.42913500000000
N           13.98640700000000        1.41604800000000       -0.69813200000000
C           15.66625600000000        2.95877800000000       -2.00347000000000
C           15.69544700000000        4.01714300000000       -2.97015900000000
C           15.70560400000000        4.90400800000000       -3.78101600000000
C           15.71576100000000        5.95549700000000       -4.74737400000000
C           14.91728400000000        5.86740900000000       -5.88229600000000
C           14.96169600000000        6.91191400000000       -6.78917100000000
N           15.73353500000000        8.01236800000000       -6.63842600000000
C           16.49718200000000        8.06246600000000       -5.52307800000000
C           16.52378600000000        7.07097200000000       -4.55768800000000
C           16.79434800000000        2.30526000000000       -1.62061500000000
C           18.09009600000000        2.64085000000000       -2.17571900000000
C           18.99713300000000        1.83122800000000       -1.64168200000000
N           17.00097500000000        1.27840300000000       -0.73690600000000
C           18.33045000000000        0.94466800000000       -0.70806100000000
C           19.00466400000000       -0.00020400000000        0.00005600000000
C           18.23570200000000       -0.93157700000000        1.02885400000000
C           18.78597300000000       -1.57172100000000        2.12196400000000
C           17.75855400000000       -2.33366000000000        2.73248000000000
C           16.60781700000000       -2.13001000000000        2.00074300000000
N           16.89659500000000       -1.23568500000000        0.99711400000000
C           15.19537700000000       -2.78191300000000        2.27745500000000
C           15.16438200000000       -4.02240700000000        2.99178300000000
C           15.14901500000000       -5.06656000000000        3.58604900000000
C           15.12554800000000       -6.31142500000000        4.28576400000000
C           16.16576900000000       -6.65144800000000        5.14339300000000
C           16.09557000000000       -7.86958100000000        5.79703400000000
N           15.07759500000000       -8.74834200000000        5.65271100000000
C           14.08467900000000       -8.38404500000000        4.80951800000000
C           14.06192400000000       -7.18982300000000        4.11029500000000
C           14.06784800000000       -2.17489400000000        1.83018000000000
C           12.74124500000000       -2.71262100000000        2.07671000000000
C           11.85003400000000       -1.89194100000000        1.52804700000000
C           12.57234800000000       -0.80997500000000        0.90456100000000
N           13.89924900000000       -1.02477300000000        1.11048700000000
H           10.82206800000000        0.13907100000000        0.21709400000000
H           10.98837200000000        2.70145400000000       -0.92946200000000
H           12.94464700000000        4.17638800000000       -2.10190200000000
H           14.67839400000000        0.73932300000000       -0.38476200000000
H           14.27979600000000        5.00681500000000       -6.05334600000000
H           14.35710400000000        6.88941800000000       -7.69033500000000
H           17.11018400000000        8.95245700000000       -5.42068000000000
H           17.15622800000000        7.16229400000000       -3.68123900000000
H           18.29192500000000        3.40611900000000       -2.90364200000000
H           20.04638300000000        1.85142600000000       -1.87344800000000
H           19.81488200000000       -1.50724000000000        2.44196000000000
H           17.84793200000000       -2.96051400000000        3.60657800000000
H           16.21085100000000       -0.81931700000000        0.37260000000000
H           17.00739000000000       -5.98467700000000        5.29599000000000
H           16.88337400000000       -8.18038100000000        6.47631000000000
H           13.27750500000000       -9.10259900000000        4.70509500000000
H           13.23968200000000       -6.94804200000000        3.44533700000000
H           12.51466700000000       -3.61363800000000        2.61715200000000
H           10.78147800000000       -2.00881700000000        1.54005500000000
C           34.80766200000000        0.24156500000000        0.19386300000000
C           34.07421700000000       -0.60248200000000        1.28112500000000
C           34.67118400000000       -1.23760100000000        2.34604000000000
C           33.64694100000000       -1.92895500000000        3.04422500000000
C           32.45924300000000       -1.69811100000000        2.37632600000000
N           32.72559900000000       -0.84838700000000        1.33190500000000
C           31.04575000000000       -2.31388000000000        2.72339900000000
C           31.01655900000000       -3.39001600000000        3.67026400000000
C           31.00640200000000       -4.29258200000000        4.46360800000000
C           30.99624499999999       -5.36764200000000        5.40367400000000
C           31.79472200000000       -6.48623400000000        5.19258600000000
C           31.75031000000000       -7.50140400000000        6.13218400000000
N           30.97847100000000       -7.47132700000000        7.24250600000000
C           30.21482400000000       -6.36805700000000        7.41370000000000
C           30.18822000000000       -5.30048900000000        6.53316700000000
C           29.91765800000000       -1.86217100000000        2.11543400000000
C           28.62191000000000       -2.45050200000000        2.38861300000000
C           27.71487300000000       -1.83152000000000        1.64192400000000
N           29.71103099999999       -0.87195000000000        1.19085800000000
C           28.38155600000000       -0.80695300000000        0.86224500000000
C           27.70734200000000       -0.00020400000000        0.00005600000000
C           28.47630400000000        1.12385100000000       -0.81381100000000
C           27.92603300000000        2.28013900000000       -1.33117900000000
C           28.95345200000000        2.96995700000000       -2.02214400000000
C           30.10418900000000        2.22040300000000       -1.89934500000000
N           29.81541100000000        1.12539900000000       -1.11956700000000
C           31.51662899999999        2.56642300000000       -2.51725900000000
C           31.54762400000000        3.41152100000000       -3.67263700000000
C           31.56299100000000        4.11590000000000       -4.64590800000000
C           31.58645800000000        4.94694800000000       -5.80722300000000
C           30.54623700000000        5.83649000000000       -6.05188300000000
C           30.61643600000000        6.61882800000000       -7.19163800000000
N           31.63441100000000        6.57100500000000       -8.08088600000000
C           32.62732700000000        5.69317100000000       -7.81052500000000
C           32.65008200000000        4.86812500000000       -6.69950000000000
C           32.64415800000000        2.05573700000000       -1.96252700000000
C           33.97076100000000        2.35932800000000       -2.47022800000000
C           34.86197199999999        1.72460300000000       -1.71413800000000
C           34.13965800000000        0.98706200000000       -0.70645900000000
N           32.81275700000000        1.21514300000000       -0.89756800000000
H           35.88993800000000        0.20038600000000        0.16212600000000
H           35.72363400000000       -1.21824500000000        2.58449700000000
H           33.76735900000000       -2.54425000000000        3.92306300000000
H           32.03361200000000       -0.46322500000000        0.69330700000000
H           32.43221000000000       -6.56260200000000        4.31848800000000
H           32.35490200000000       -8.39476600000000        6.01174000000000
H           29.60182200000000       -6.36313300000000        8.30954800000000
H           29.55577800000000       -4.43918600000000        6.71933800000000
H           28.42008100000000       -3.25739200000000        3.07011000000000
H           26.66562300000000       -2.06410700000000        1.63677700000000
H           26.89712400000000        2.59121600000000       -1.23225400000000
H           28.86407400000000        3.90708800000000       -2.55013900000000
H           30.50115500000000        0.45927700000000       -0.77364400000000
H           29.70461600000000        5.91561000000000       -5.37246400000000
H           29.82863200000000        7.32789600000000       -7.42666000000000
H           33.43450100000000        5.66757500000000       -8.53617600000000
H           33.47232400000000        4.18080200000000       -6.53152800000000
H           34.19733900000000        2.99462600000000       -3.30707100000000
H           35.93052800000000        1.74926100000000       -1.82901300000000
C           23.95996100000000        0.00121100000000        0.00846000000000
C           22.75102200000000       -0.01224400000000        0.00001300000000
C           21.32949300000000       -0.00342500000000       -0.01197000000000
C           20.11782300000000        0.00401400000000       -0.00110700000000
C           25.37656500000000       -0.00546400000000        0.00899300000000
C           26.59726100000000        0.00401400000000       -0.00110700000000
124
 energy: -214.576904598619 gnorm: 0.326205987369 xtb: 6.5.1 (b24c23e)
C           11.92570206947814        0.19010329778038        0.24642607650207
C           12.63369281390400        1.32544190799128       -0.45023676557662
C           12.04455830471281        2.46863354140090       -0.97923390026534
C           13.06223984713285        3.23233966974357       -1.58712027384625
C           14.26680522447120        2.54883780429769       -1.43258825747802
N           13.98683677964602        1.41474990394981       -0.69989110824589
C           15.63732486603477        2.95066042459217       -1.99240452848382
C           15.68559226901869        4.00608493525994       -2.95655530547792
C           15.70560280052603        4.90171628893648       -3.77933816966485
C           15.71600966118758        5.95053047658975       -4.74289622205362
C           14.91773388867895        5.87003953397020       -5.88323739680459
C           14.96379882393650        6.91553986845383       -6.78920323374400
N           15.73353698918192        8.00481055050066       -6.63151028845859
C           16.49507107692291        8.06290392560920       -5.52664594584123
C           16.52352496483916        7.07219619853971       -4.56026121514499
C           16.79485037565725        2.30452058479235       -1.62035352919250
C           18.08983849048657        2.64780053979446       -2.18209941413786
C           18.99858859437238        1.83156182059905       -1.64246293508799
N           16.98004904600917        1.27738519266516       -0.73726733579460
C           18.28651673053561        0.95866675355303       -0.72239150357417
C           18.90765248666357       -0.01192088003941        0.02281290897250
C           18.22065096963211       -0.92683723343950        1.02779011370184
C           18.78193818091909       -1.57626456670919        2.12030480403853
C           17.76041084932023       -2.33475265918661        2.72919287511591
C           16.59159586465450       -2.13535349029442        2.00451788069497
N           16.88888265221398       -1.24062531201990        0.99899714998177
C           15.22228266355329       -2.77098970267933        2.27128884050397
C           15.17332330913112       -4.00565611052799        2.98422870624367
C           15.14931984777117       -5.06404215699668        3.58622057080751
C           15.12556362006257       -6.30504597293741        4.28179093126716
C           16.16515657469323       -6.65422752264273        5.14395286409408
C           16.09285207824339       -7.87247299124976        5.79695134965196
N           15.07777725613857       -8.73951862998363        5.64765763283534
C           14.08723316680465       -8.38558351739018        4.81206134178529
C           14.06228229679463       -7.19185223791451        4.11223232161822
C           14.06352747347338       -2.17078292706517        1.82418952633035
C           12.73903123120881       -2.71873384164098        2.08060543028647
C           11.84395649386954       -1.89498300583887        1.52980291244337
C           12.57839277939623       -0.81192856566469        0.90451090808077
N           13.90942270670929       -1.02096835617544        1.10689643313994
H           10.83432014943885        0.14942096794059        0.21315104644423
H           10.99124459812417        2.70344880086227       -0.93102971619679
H           12.94313591473765        4.17479622992829       -2.10089171155138
H           14.67781108933942        0.74029155562347       -0.38560331328572
H           14.28065755299480        5.00873675353847       -6.05378052745659
H           14.35774970520354        6.89052389804643       -7.69042836265558
H           17.10952160606762        8.95264796638518       -5.42174707323895
H           17.15535858226773        7.16294916753584       -3.68312447470838
H           18.28965480719495        3.41167347297280       -2.90800062281776
H           20.05042491061016        1.84624432508653       -1.86967097627315
H           19.81227473781064       -1.50795356864022        2.44073785928696
H           17.85007287467344       -2.95954168934788        3.60501951864054
H           16.20969548123745       -0.82117610046967        0.37385013621414
H           17.00628335037851       -5.98641311492058        5.29635475152570
H           16.88249951465852       -8.18124607072247        6.47634484402000
H           13.27833270998030       -9.10312814280133        4.70593497152830
H           13.24063745098501       -6.94932505348746        3.44674588020827
H           12.51712379391846       -3.61926593259496        2.62075284987784
H           10.77609384143412       -2.00772150385645        1.53915739110985
C           34.78630820495017        0.22399487240445        0.21604091760954
C           34.07831161870921       -0.59210729159079        1.26882593271353
C           34.66744739353142       -1.24237642022406        2.34763993880401
C           33.64975818856225       -1.92977863938675        3.04065325482866
C           32.44520751981342       -1.70176985905833        2.37803432946506
N           32.72517266234806       -0.84999541628479        1.33042161786280
C           31.07465699543199       -2.30198864319596        2.71652023422288
C           31.02640914960335       -3.37529365076903        3.66074685992899
C           31.00640525645350       -4.29066260286099        4.46151006634133
C           30.99599682708560       -5.36265012459754        5.39922489408240
C           31.79427175787625       -6.48745561058236        5.19509762302127
C           31.74820675095213       -7.50183094543529        6.13578445431380
N           30.97846891757701       -7.46362871879184        7.23574554595185
C           30.21693521452923       -6.37165132671321        7.41374699112245
C           30.18848138767328       -5.30317924882643        6.53410364253888
C           29.91714049448345       -1.86184740872792        2.11473995854049
C           28.62219882596166       -2.45762072189170        2.39481462158511
C           27.71345430584811       -1.83240809306710        1.64200380605621
N           29.73182859523942       -0.87197981559609        1.18989839453468
C           28.42552110349222       -0.82267379017416        0.87476294568091
C           27.80373997118964        0.02518563497599       -0.00755924081708
C           28.49151898473811        1.12259118743712       -0.80924921596493
C           27.93008837088051        2.27900359157572       -1.33596132826560
C           28.95164216447723        2.96683412580158       -2.02362523750788
C           30.12043539846231        2.22478158525774       -1.90428207972955
N           29.82320257281272        1.12788455405971       -1.12429309071056
C           31.48975144200924        2.55911533756162       -2.50708608988228
C           31.53869173517155        3.40218656020564       -3.65681175139227
C           31.56268590778113        4.11579766474928       -4.64339121035491
C           31.58644221739763        4.94230497219659       -5.80131375486139
C           30.54684869502082        5.83734941379333       -6.05458530424082
C           30.61915361127742        6.61906059670776       -7.19452168326005
N           31.63422883446168        6.56502152042910       -8.07266538252308
C           32.62477304025837        5.69586666257110       -7.81177769651334
C           32.64972416753732        4.87027193756941       -6.70130661911115
C           32.64848252525421        2.04934200878969       -1.95909554526617
C           33.97297815656250        2.36386541540870       -2.47588091992074
C           34.86805033411436        1.72668011530609       -1.71697174800209
C           34.13361589708222        0.98722514298021       -0.70840564810281
N           32.80258126800128        1.21115858411552       -0.89417498021514
H           35.87768766360382        0.19534015501685        0.17198343424012
H           35.72076093082639       -1.22001997859579        2.58630821878561
H           33.76886817159788       -2.54307368373149        3.92159110209216
H           32.03419909443178       -0.46416574268223        0.69417687184316
H           32.43134851065041       -6.56324306445796        4.32035077141060
H           32.35425629432687       -8.39497890040733        6.01282913401289
H           29.60248438302613       -6.36421448102716        8.30962150592581
H           29.55664746434626       -4.44113135062558        6.71978408228323
H           28.42235305927048       -3.26232887207780        3.07515505487406
H           26.66157788711308       -2.05975523380706        1.63200980319681
H           26.89973960879583        2.59007268680354       -1.23309383950622
H           28.86193906575414        3.90544493642158       -2.54935581822626
H           30.50231993383080        0.46074147917382       -0.77535054048331
H           29.70572254212006        5.91616164891717       -5.37415016351038
H           29.82950644561990        7.32802486696639       -7.42751616850774
H           33.43367335190580        5.66846752742186       -8.53661064890979
H           33.47136864022971        4.18234216336032       -6.53265017930671
H           34.19488336647899        2.99881785395936       -3.31227378252046
H           35.93591263571716        1.74824954111708       -1.82802172854184
C           23.96741350527905        0.00061602444640        0.00924940569297
C           22.74398309522244       -0.01242319027551       -0.00166302855992
C           21.40129412933708       -0.00821731015144       -0.01048020140710
C           20.19531282887575       -0.01047933184252        0.01205071601632
C           25.30861203808774       -0.00205860067973        0.00485186137453
C           26.51577909989911        0.01426820093307       -0.01673508472594
124
 energy: -214.653655227000 gnorm: 0.144422467608 xtb: 6.5.1 (b24c23e)
C           11.97310389734853        0.22309622431808        0.22609096649290
C           12.63913805399305        1.31278212495310       -0.44267038074177
C           12.05372514602842        2.46775911666276       -0.98941942985918
C           13.05881171562370        3.22289997589907       -1.59237214416948
C           14.28086326901826        2.54669153157638       -1.43566981991660
N           13.99279923381582        1.41223090339336       -0.70232658160298
C           15.59220268388230        2.93505683529223       -1.97485231034234
C           15.65727566536518        3.99511873189341       -2.93160029230544
C           15.69701684685174        4.88725460841500       -3.76323314691211
C           15.71675247087064        5.93585930147392       -4.73115405245198
C           14.91933881751395        5.87007236438526       -5.87930291317191
C           14.96618902872359        6.91637435256085       -6.78574281992906
N           15.73369785339987        7.99478914254093       -6.62237759582775
C           16.49271706725875        8.05938439516527       -5.52757702903528
C           16.52245179652569        7.06743035470307       -4.56096375188061
C           16.78395083854384        2.30042792131781       -1.62198430938869
C           18.08150262304702        2.65254422154368       -2.18699614586566
C           18.99272671724095        1.82742510541444       -1.64123094865467
N           16.95081028909891        1.26847494407061       -0.74603899313498
C           18.25467637358556        0.95849305402125       -0.72699194007926
C           18.85532161457276       -0.02398149891100        0.06889055803653
C           18.20268520649692       -0.91248173921247        1.02228936757049
C           18.77126786160165       -1.58619296118279        2.11191144430815
C           17.76233003614977       -2.34052607552261        2.71743139204031
C           16.57148338022505       -2.13934709969098        2.00624195077838
N           16.87292124935815       -1.24196718816236        1.00228282740498
C           15.25845739476379       -2.75230914337001        2.25701921294068
C           15.19845847864880       -3.97761702838520        2.98096082868015
C           15.15654591572347       -5.04253351519924        3.57927605774099
C           15.12616809493758       -6.28755478497356        4.27137681740133
C           16.16283316060577       -6.65313716706385        5.14001801695879
C           16.08955182687967       -7.87162444870027        5.79387410997533
N           15.07784007620290       -8.72759350411027        5.64058622099815
C           14.09036438026747       -8.38243729686503        4.81240779186045
C           14.06447392810212       -7.18759526123529        4.11244652496178
C           14.06594199141466       -2.16854929146876        1.81156095628684
C           12.74218020201099       -2.72391135926156        2.08293726668165
C           11.84294582476086       -1.89402901722640        1.52863868221568
C           12.59408878066794       -0.81230519228375        0.89916753622895
N           13.92636071868812       -1.02118898195435        1.09750655971075
H           10.87826099572898        0.18546944671043        0.20194864919398
H           11.00113909089138        2.70687962142814       -0.93568009369032
H           12.93922144058973        4.16905969959824       -2.09923808663939
H           14.68279934420445        0.74025291129316       -0.38665170882247
H           14.28163176589748        5.01135850370000       -6.05375175811639
H           14.35993255908793        6.89152044607815       -7.68796969952385
H           17.10715790693807        8.95026310428483       -5.42259681602242
H           17.15397155907007        7.16295267339579       -3.68548039355499
H           18.27808176127455        3.42178857194819       -2.91283215951781
H           20.04999084346952        1.83295457935101       -1.85714903489125
H           19.80079558646009       -1.51166532527832        2.43527756432486
H           17.85560377928948       -2.95854589984024        3.59801795127237
H           16.19804393761340       -0.82340505175412        0.37583095217660
H           17.00454010662798       -5.98852669866763        5.29635005148892
H           16.87936949774718       -8.18075692371361        6.47439792701118
H           13.28119753308898       -9.10111760263614        4.70671745725059
H           13.24181154487096       -6.94993775855034        3.44844498674018
H           12.52743152434387       -3.62751878796477        2.62700371554992
H           10.77091958210919       -2.00004519737930        1.53533371712347
C           34.73890544989027        0.20018047391438        0.24662178882076
C           34.07287047354528       -0.58320985533331        1.25705303862838
C           34.65828538924652       -1.25241465385391        2.34565620064646
C           33.65319617203846       -1.93397341529826        3.03069366190168
C           32.43115227766748       -1.70458859494900        2.37556760525078
N           32.71921130079472       -0.85214075858411        1.32764764801787
C           31.11980467378346       -2.28282097083255        2.70290635120697
C           31.05471973608636       -3.34931960759255        3.65250112533640
C           31.01498242601172       -4.27308597778653        4.44885976931950
C           30.99525520760020       -5.34937647207703        5.38591077743012
C           31.79266627784124       -6.48354839680638        5.19555446500446
C           31.74581637778489       -7.49848263128255        6.13698596597546
N           30.97830818356253       -7.45346087908827        7.22677433994416
C           30.21929012454830       -6.37219376590956        7.41014156714319
C           30.18955594282026       -5.30335860886145        6.52928404670918
C           29.92809276627056       -1.86280494886176        2.11051605274929
C           28.63059415937219       -2.46296960136694        2.39874906373420
C           27.71952401991376       -1.83085095422895        1.63752411806972
N           29.76117839720765       -0.87862594915717        1.18104658514207
C           28.45756293908955       -0.82634906036913        0.87449397618887
C           27.85596378487054        0.07407694243731       -0.01239632032315
C           28.50905156206349        1.11620890959687       -0.79490219555075
C           27.94049716801684        2.27197644031830       -1.34697843471942
C           28.94963741686731        2.95585525273858       -2.03080018878434
C           30.14042409128334        2.22697609975895       -1.90800177598566
N           29.83888184217785        1.13167151957140       -1.12473635469149
C           31.45351828903085        2.54284987833821       -2.49007722777036
C           31.51354451794839        3.39584839327413       -3.62931584566730
C           31.55546680602386        4.10654096427492       -4.62276895872033
C           31.58583678898584        4.93004193588739       -5.78506348816487
C           30.54917183830114        5.83331304273140       -6.05393431532630
C           30.62245304838111        6.61590286036305       -7.19401869113339
N           31.63416436763200        6.55668741899426       -8.06158742720202
C           32.62163959633416        5.69586148824085       -7.80861933904242
C           32.64753013291227        4.87001455284821       -6.69705774062326
C           32.64604218602424        2.03653228590070       -1.95825145519449
C           33.96981191091615        2.36674182871369       -2.48077771469643
C           34.86905218647316        1.72541429799382       -1.71615756875083
C           34.11791451461983        0.98195018983541       -0.70936787309478
N           32.78564142452851        1.20183846117887       -0.89542063320162
H           35.83374710178256        0.18027261495495        0.20659246073379
H           35.71087039064241       -1.22502478555767        2.58920662150071
H           33.77278950517044       -2.54080898577371        3.91606371304256
H           32.02921136862511       -0.46520450475108        0.69402013593338
H           32.43037293455439       -6.56350358430100        4.32295535339535
H           32.35207205377558       -8.39264576147618        6.01408250324442
H           29.60484981790229       -6.36479963808785        8.30715458668758
H           29.55803536510372       -4.44347432505348        6.71952734392998
H           28.43393512850644       -3.26819087390753        3.08449327158603
H           26.66215661707401       -2.04585589339258        1.61992989979201
H           26.91104406731993        2.58528829325884       -1.23751749012442
H           28.85644221478707        3.89845082466517       -2.54928654610014
H           30.51369159800963        0.46311325836717       -0.77711799456298
H           29.70746558954157        5.91638169937485       -5.37625666776285
H           29.83263596259964        7.32603043999915       -7.42724763060733
H           33.43080587942121        5.66901860963220       -8.53453444221850
H           33.47019228520833        4.18409066047339       -6.53308154727405
H           34.18456436298828        3.00592171679220       -3.31980369449206
H           35.94108006368988        1.74360693628725       -1.82081720889082
C           23.97010031959566       -0.00011188932132        0.00820626960682
C           22.74061846992571       -0.01491715048977       -0.00790981140527
C           21.42196262329755       -0.01877665818188       -0.00219076437100
C           20.19652067458102       -0.03183540328969        0.04469520069817
C           25.28939228392479        0.00771347037348       -0.00590003522482
C           26.51483568438905        0.03811582790966       -0.03797683104972
124
 energy: -214.681178245635 gnorm: 0.055724822885 xtb: 6.5.1 (b24c23e)
C           12.02431067242440        0.24890642591493        0.21121274257643
C           12.65732583386207        1.30596189384022       -0.44015793528331
C           12.06533032768211        2.46628619428370       -1.00389188889700
C           13.05348388342160        3.21322627854092       -1.60243927097247
C           14.29172978853522        2.54338429965695       -1.43983029540037
N           14.00828114912221        1.41415139946877       -0.70217648371065
C           15.55264147699590        2.92059722918853       -1.96135246218290
C           15.62231139720297        3.99049468516562       -2.90652497058794