284
 energy: -457.287237299458 gnorm: 2.624812628301 xtb: 6.5.1 (b24c23e)
C           47.43093799999999        1.17983900000000       -0.17638100000000
C           48.33054000000000        1.56919200000000       -1.38563800000000
C           48.24151199999999        2.72113800000000       -2.14175000000000
C           49.32870699999999        2.69797500000000       -3.05510800000000
C           50.00728700000000        1.51021300000000       -2.85550700000000
N           49.43718399999999        0.86594200000000       -1.78320500000000
C           51.29939000000000        0.98640600000000       -3.61887300000000
C           51.17133600000000        0.66245900000000       -5.06777000000000
C           51.47417900000000       -0.62481000000000       -5.53444900000000
C           51.24092400000000       -0.99996900000000       -6.86135100000000
C           50.62575400000000       -0.11842000000000       -7.74660300000000
N           50.27928899999999       -0.50505600000000       -9.06506600000000
C           49.40681200000000       -1.67127100000000       -9.09151100000000
C           50.36228400000000        1.18501100000000       -7.30968000000000
C           50.63409800000000        1.56507400000000       -5.98716200000000
C           52.40376799999999        0.71281100000000       -2.86748700000000
C           53.67943999999999        0.34624600000000       -3.44869100000000
C           54.53674299999999        0.10704500000000       -2.46208200000000
N           52.57659900000000        0.70075700000000       -1.50750300000000
C           53.84548700000000        0.28696700000000       -1.19615900000000
C           54.43779399999999        0.04107400000000       -0.00050900000000
C           53.61113300000000        0.11540300000000        1.36728700000000
C           54.14435000000000        0.01184100000000        2.63452400000000
C           53.06840500000000       -0.01049300000000        3.55767700000000
C           51.90452199999999        0.05986900000000        2.82549100000000
N           52.24188700000000        0.20445200000000        1.49656800000000
C           50.43212000000000       -0.04593000000000        3.42973400000000
C           50.29797700000000       -0.51070400000000        4.83022000000000
C           50.06140799999999        0.40602200000000        5.86101200000000
C           49.94752400000000       -0.02871600000000        7.18528600000000
C           50.09791400000000       -1.38370500000000        7.51832800000000
N           49.92675999999999       -1.88582800000000        8.82244700000000
C           50.11331300000000       -0.97324900000000        9.93621900000000
C           50.31782200000000       -2.28948500000000        6.47181900000000
C           50.43339100000000       -1.85945800000000        5.14570600000000
C           49.35409899999999        0.24034800000000        2.65764400000000
C           47.98315600000000        0.10133100000000        3.12139600000000
C           47.16535300000000        0.44039800000000        2.12686500000000
C           47.98521299999999        0.80062200000000        0.99049100000000
N           49.28553800000000        0.66503100000000        1.36267500000000
H           46.35724600000000        1.21896700000000       -0.29153600000000
H           47.51141700000000        3.50878700000000       -2.02049200000000
H           49.58591699999999        3.47145800000000       -3.76753300000000
H           49.86838000000000        0.12239000000000       -1.24874600000000
H           51.86603900000000       -1.36245600000000       -4.83209600000000
H           51.52087700000000       -1.99907400000000       -7.17221800000000
H           49.85311500000000        0.28409600000000       -9.54279100000000
H           48.54401400000000       -1.54675000000000       -8.42602100000000
H           49.02390700000000       -1.81338700000000      -10.10373800000000
H           49.94356900000000       -2.58699600000000       -8.81437400000000
H           49.87988899999999        1.89656900000000       -7.96985000000000
H           50.40845299999999        2.57639200000000       -5.66424700000000
H           53.90414500000000        0.30895600000000       -4.49475400000000
H           55.56488300000000       -0.17490300000000       -2.60134100000000
H           55.19199700000000       -0.07380700000000        2.87898200000000
H           53.14214600000000       -0.12141000000000        4.62786200000000
H           51.57888499999999        0.32462400000000        0.73184500000000
H           49.96456799999999        1.46517000000000        5.61602000000000
H           49.75391299999999        0.72336000000000        7.94916100000000
H           50.43732500000000       -2.75625400000000        8.93120500000000
H           49.30386900000000       -0.23688500000000        9.98335400000000
H           51.08434800000000       -0.46319700000000        9.88438600000000
H           50.08777499999999       -1.54423200000000       10.87304800000000
H           50.39616000000000       -3.35296700000000        6.67313900000000
H           50.60920400000000       -2.57362000000000        4.34415500000000
H           47.67717200000000       -0.23933900000000        4.09336400000000
H           46.09179400000000        0.42009200000000        2.15019200000000
C          103.53168300000000        1.18732000000000        0.11712000000000
C          102.63208199999998        1.63777300000000        1.30497200000000
C          102.72111000000000        2.82674200000000        2.00141700000000
C          101.63391500000000        2.85013900000000        2.91476900000000
C          100.95533399999999        1.65375200000000        2.77593700000000
N          101.52543699999998        0.95568900000000        1.73785000000000
C           99.66323100000000        1.16951300000000        3.56499700000000
C           99.79128599999999        0.91980000000000        5.02851500000000
C           99.48844200000001       -0.34202200000000        5.56016800000000
C           99.72169799999999       -0.64909600000000        6.90445900000000
C          100.33686699999998        0.27640600000000        7.74365100000000
N          100.68333199999999       -0.04255900000000        9.08010000000000
C          101.55580900000000       -1.20591300000000        9.16592200000000
C          100.60033699999998        1.55588600000000        7.24089300000000
C          100.32852400000000        1.86808100000000        5.90073100000000
C           98.55885300000000        0.85799500000000        2.82852500000000
C           97.28318200000000        0.52151500000000        3.42764800000000
C           96.42587799999998        0.23236300000000        2.45450600000000
N           98.38602200000000        0.77667400000000        1.47092100000000
C           97.11713500000000        0.34755900000000        1.18106100000000
C           96.52482799999999        0.04107400000000       -0.00050900000000
C           97.35148899999999        0.04562500000000       -1.37031600000000
C           96.81827199999999       -0.12236100000000       -2.63063200000000
C           97.89421600000000       -0.19169500000000       -3.55144800000000
C           99.05809999999998       -0.08412500000000       -2.82379800000000
N           98.72073500000000        0.12797200000000       -1.50396600000000
C          100.53050200000000       -0.22056800000000       -3.42186600000000
C          100.66464400000000       -0.75608600000000       -4.79685600000000
C          100.90121399999998        0.10693600000000       -5.87301200000000
C          101.01509700000000       -0.39470000000000       -7.17341900000000
C          100.86470799999998       -1.76489700000000       -7.43699900000000
N          101.03586199999998       -2.33280500000000       -8.71384400000000
C          100.84930900000001       -1.47815200000000       -9.87266100000000
C          100.64479900000001       -2.61618700000000       -6.34570500000000
C          100.52923100000000       -2.11916100000000       -5.04322100000000
C          101.60852299999999        0.10467100000000       -2.66536300000000
C          102.97946600000000       -0.05779000000000       -3.12143100000000
C          103.79726800000000        0.33150200000000       -2.14546400000000
C          102.97740899999999        0.74915000000000       -1.02891700000000
N          101.67708300000000        0.59477400000000       -1.39371100000000
H          104.60537600000001        1.23226400000000        0.23013300000000
H          103.45120400000000        3.60719100000000        1.84019000000000
H          101.37670399999999        3.65891200000000        3.58686500000000
H          101.09424100000000        0.18587500000000        1.24196400000000
H           99.09658200000000       -1.11449200000000        4.89630500000000
H           99.44174499999998       -1.63106700000000        7.26582100000000
H          101.10950599999998        0.76990600000000        9.51700200000000
H          102.41860699999998       -1.11545600000000        8.49495300000000
H          101.93871500000000       -1.29627700000000       10.18407500000000
H          101.01905200000000       -2.13456700000000        8.93579600000000
H          101.08273199999999        2.30015200000000        7.86395700000000
H          100.55416799999999        2.86163600000000        5.52671400000000
H           97.05847599999998        0.53756400000000        4.47425200000000
H           95.39773800000000       -0.04212500000000        2.60794900000000
H           95.77062399999998       -0.22035200000000       -2.87040900000000
H           97.82047499999999       -0.35698800000000       -4.61459300000000
H           99.38373600000000        0.28694600000000       -0.74635800000000
H          100.99805399999998        1.17719100000000       -5.68229500000000
H          101.20870899999998        0.31748300000000       -7.97461600000000
H          100.52529599999998       -3.20764200000000       -8.77811800000000
H          101.65875199999999       -0.74514600000000       -9.95724800000000
H           99.87827399999999       -0.96612100000000       -9.84688000000000
H          100.87484699999999       -2.09611900000000      -10.77918500000000
H          100.56646099999999       -3.68854400000000       -6.49258500000000
H          100.35341800000000       -2.79156100000000       -4.20632800000000
H          103.28544999999998       -0.44753400000000       -4.07478100000000
H          104.87082800000000        0.31003400000000       -2.16772700000000
C           60.28742699999999        0.04238600000000        0.00792300000000
C           59.07848700000000        0.02893100000000       -0.00052400000000
C           57.65695800000000        0.03775000000000       -0.01250700000000
C           56.44528900000000        0.04518900000000       -0.00164400000000
C           61.70403100000000        0.03571100000000        0.00845600000000
C           62.92472700000000        0.04518900000000       -0.00164400000000
C           76.08523099999998        0.04238600000000        0.00792300000000
C           74.87629200000001        0.02893100000000       -0.00052400000000
C           73.45476300000000        0.03775000000000       -0.01250700000000
C           72.24309300000000        0.04518900000000       -0.00164400000000
C           77.50183500000000        0.03571100000000        0.00845600000000
C           78.72253100000000        0.04518900000000       -0.00164400000000
C           91.88303499999999        0.04238600000000        0.00792300000000
C           90.67409600000001        0.02893100000000       -0.00052400000000
C           89.25256700000000        0.03775000000000       -0.01250700000000
C           88.04089700000000        0.04518900000000       -0.00164400000000
C           93.29964000000000        0.03571100000000        0.00845600000000
C           94.52033499999999        0.04518900000000       -0.00164400000000
C           64.03931300000001       -0.04785800000000        0.00074100000000
C           64.81448300000000       -0.00059200000000        1.38736700000000
C           64.23337500000000        0.01377600000000        2.63982400000000
C           65.27546599999999        0.05131400000000        3.59372800000000
C           66.46940800000000        0.05968600000000        2.90244100000000
N           66.18033600000000        0.02875900000000        1.55873600000000
C           67.90947600000000        0.09537600000000        3.56445600000000
C           67.97105100000000        0.16364300000000        5.04573900000000
C           68.03661000000000       -1.00384400000000        5.80877500000000
C           68.06774200000000       -0.93145100000000        7.20571900000000
C           68.00107400000000        0.30129500000000        7.87452300000000
N           68.07695500000000        0.30447000000000        9.27880800000000
C           67.59684700000000        1.47680200000000        9.98549100000000
C           67.99062400000000        1.46531700000000        7.09558200000000
C           67.95956900000000        1.39925800000000        5.69698900000000
C           69.03718800000000        0.06657300000000        2.80668600000000
C           70.35103599999999        0.09363900000000        3.41616000000000
C           71.26100000000000        0.04980300000000        2.45229600000000
N           69.23205900000001        0.01139300000000        1.45144200000000
C           70.57674500000000       -0.00125900000000        1.17543700000000
C           71.26045199999999       -0.04785800000000        0.00074100000000
C           70.48559700000000       -0.08895800000000       -1.38633000000000
C           71.06642399999998       -0.08870300000000       -2.63936000000000
C           70.02441300000000       -0.12779700000000       -3.59349500000000
C           68.83069000000000       -0.14923600000000       -2.90184500000000
N           69.12007399999999       -0.12505600000000       -1.55782600000000
C           67.39135100000000       -0.19098200000000       -3.56252400000000
C           67.32327900000000       -0.25924400000000       -5.04332200000000
C           67.27370900000000        0.91038600000000       -5.80542300000000
C           67.20074900000000        0.84500500000000       -7.20241800000000
C           67.14463499999999       -0.38694100000000       -7.86656600000000
N           67.11364800000000       -0.51611200000000       -9.26717900000000
C           66.57241399999999        0.58776600000000      -10.03789700000000
C           67.25220899999999       -1.55259600000000       -7.09152500000000
C           67.32466800000000       -1.49353600000000       -5.69568300000000
C           66.26306200000001       -0.16346800000000       -2.80482000000000
C           64.94887199999999       -0.19370400000000       -3.41401500000000
C           64.03859000000000       -0.15015700000000       -2.45053300000000
C           64.72281200000000       -0.09562100000000       -1.17393800000000
N           66.06750800000000       -0.10622200000000       -1.44980600000000
H           63.17611000000000       -0.00399200000000        2.85482400000000
H           65.16504300000000        0.06799200000000        4.66789000000000
H           66.86769800000000        0.01904100000000        0.80891700000000
H           68.07141000000000       -1.96639800000000        5.30385200000000
H           68.14041299999998       -1.85848000000000        7.76616000000000
H           67.69583400000000       -0.56223700000000        9.64869200000000
H           66.56573600000000        1.71966100000000        9.70787100000000
H           67.61281000000000        1.27634500000000       11.06181500000000
H           68.24209999999999        2.34363900000000        9.81104400000000
H           68.00496400000000        2.44958600000000        7.54907100000000
H           67.93454799999999        2.30991300000000        5.10258000000000
H           70.56741800000000        0.13962500000000        4.46885800000000
H           72.32236399999999        0.05620700000000        2.61968200000000
H           72.12347399999999       -0.06147800000000       -2.85458800000000
H           70.13494500000000       -0.13674200000000       -4.66813000000000
H           68.43305400000000       -0.12293400000000       -0.80772800000000
H           67.29364300000000        1.87273100000000       -5.29885400000000
H           67.18469300000000        1.78214100000000       -7.74660600000000
H           66.70126600000000       -1.41023400000000       -9.52099600000000
H           67.22696400000000        1.46423600000000       -9.99885300000000
H           66.50060700000000        0.28784100000000      -11.08856800000000
H           65.56680799999999        0.85991500000000       -9.70011600000000
H           67.27250500000000       -2.52906400000000       -7.56552100000000
H           67.38294800000000       -2.40531000000000       -5.10593600000000
H           64.73229300000000       -0.24147900000000       -4.46640400000000
H           62.97722400000000       -0.15843500000000       -2.61748700000000
C           79.83711700000001       -0.04785800000000        0.00074100000000
C           80.61228699999998       -0.00059200000000        1.38736700000000
C           80.03118000000001        0.01377600000000        2.63982400000000
C           81.07326999999999        0.05131400000000        3.59372800000000
C           82.26721200000000        0.05968600000000        2.90244100000000
N           81.97814000000000        0.02875900000000        1.55873600000000
C           83.70728099999999        0.09537600000000        3.56445600000000
C           83.76885600000000        0.16364300000000        5.04573900000000
C           83.83441499999999       -1.00384400000000        5.80877500000000
C           83.86554599999999       -0.93145100000000        7.20571900000000
C           83.79887899999999        0.30129500000000        7.87452300000000
N           83.87475899999998        0.30447000000000        9.27880800000000
C           83.39465100000000        1.47680200000000        9.98549100000000
C           83.78842800000000        1.46531700000000        7.09558200000000
C           83.75737299999999        1.39925800000000        5.69698900000000
C           84.83499200000000        0.06657300000000        2.80668600000000
C           86.14884000000001        0.09363900000000        3.41616000000000
C           87.05880399999999        0.04980300000000        2.45229600000000
N           85.02986300000001        0.01139300000000        1.45144200000000
C           86.37454900000000       -0.00125900000000        1.17543700000000
C           87.05825599999999       -0.04785800000000        0.00074100000000
C           86.28340100000000       -0.08895800000000       -1.38633000000000
C           86.86422799999998       -0.08870300000000       -2.63936000000000
C           85.82221699999998       -0.12779700000000       -3.59349500000000
C           84.62849400000000       -0.14923600000000       -2.90184500000000
N           84.91787900000000       -0.12505600000000       -1.55782600000000
C           83.18915599999998       -0.19098200000000       -3.56252400000000
C           83.12108300000000       -0.25924400000000       -5.04332200000000
C           83.07151300000000        0.91038600000000       -5.80542300000000
C           82.99855299999999        0.84500500000000       -7.20241800000000
C           82.94243899999998       -0.38694100000000       -7.86656600000000
N           82.91145299999998       -0.51611200000000       -9.26717900000000
C           82.37021799999999        0.58776600000000      -10.03789700000000
C           83.05001300000001       -1.55259600000000       -7.09152500000000
C           83.12247199999999       -1.49353600000000       -5.69568300000000
C           82.06086699999999       -0.16346800000000       -2.80482000000000
C           80.74667599999998       -0.19370400000000       -3.41401500000000
C           79.83639399999998       -0.15015700000000       -2.45053300000000
C           80.52061599999999       -0.09562100000000       -1.17393800000000
N           81.86531300000000       -0.10622200000000       -1.44980600000000
H           78.97391399999999       -0.00399200000000        2.85482400000000
H           80.96284700000000        0.06799200000000        4.66789000000000
H           82.66550200000000        0.01904100000000        0.80891700000000
H           83.86921400000000       -1.96639800000000        5.30385200000000
H           83.93821799999999       -1.85848000000000        7.76616000000000
H           83.49363800000000       -0.56223700000000        9.64869200000000
H           82.36353999999999        1.71966100000000        9.70787100000000
H           83.41061499999999        1.27634500000000       11.06181500000000
H           84.03990500000000        2.34363900000000        9.81104400000000
H           83.80276900000000        2.44958600000000        7.54907100000000
H           83.73235300000000        2.30991300000000        5.10258000000000
H           86.36522200000000        0.13962500000000        4.46885800000000
H           88.12016900000000        0.05620700000000        2.61968200000000
H           87.92127900000000       -0.06147800000000       -2.85458800000000
H           85.93274899999999       -0.13674200000000       -4.66813000000000
H           84.23085800000000       -0.12293400000000       -0.80772800000000
H           83.09144700000000        1.87273100000000       -5.29885400000000
H           82.98249799999999        1.78214100000000       -7.74660600000000
H           82.49907000000000       -1.41023400000000       -9.52099600000000
H           83.02476799999999        1.46423600000000       -9.99885300000000
H           82.29841100000000        0.28784100000000      -11.08856800000000
H           81.36461199999999        0.85991500000000       -9.70011600000000
H           83.07030899999998       -2.52906400000000       -7.56552100000000
H           83.18075200000000       -2.40531000000000       -5.10593600000000
H           80.53009700000000       -0.24147900000000       -4.46640400000000
H           78.77502800000001       -0.15843500000000       -2.61748700000000
284
 energy: -458.095959191889 gnorm: 0.673854549409 xtb: 6.5.1 (b24c23e)
C           47.44113179562127        1.18258890947417       -0.18870792907913
C           48.32541756664954        1.56764938998836       -1.37738740796560
C           48.24280278870503        2.72009081586626       -2.14352760247385
C           49.32629911432131        2.69612657382077       -3.05571524676632
C           50.01610425201815        1.50848268734653       -2.85874720910409
N           49.43795915971221        0.86782096954887       -1.78342032299014
C           51.28738877247053        0.98853816717132       -3.61193860126111
C           51.17014283070608        0.66368603064517       -5.06483240590075
C           51.47476848417448       -0.62480717081085       -5.53444529656601
C           51.24097515921191       -0.99964415874624       -6.85839208283432
C           50.62630585538034       -0.11679628313715       -7.74606527641971
N           50.28040890248223       -0.50469771453383       -9.06196072646329
C           49.40565733499459       -1.67294204306982       -9.09264483768239
C           50.36225500803140        1.18545434810927       -7.30677475614154
C           50.63326245122189        1.56480672114130       -5.98890644533346
C           52.40552765207048        0.71013097677058       -2.86535293258889
C           53.68022222641403        0.34557141265312       -3.45200635769051
C           54.54064944677988        0.10667046538874       -2.46304339763526
N           52.57348367227547        0.69868877761520       -1.50252769499941
C           53.84709862794217        0.28810146611523       -1.19849781105831
C           54.44567652356579        0.04750710554029        0.01585681594688
C           53.61997776677597        0.11523328614685        1.35432174135091
C           54.14327287629431        0.01085346574721        2.63762972850938
C           53.07173709702207       -0.01230727832826        3.55572809346381
C           51.89173017004463        0.05976574035599        2.82784009503023
N           52.24302231828610        0.20224062431372        1.49573088977659
C           50.45003596830765       -0.04446550390398        3.42172723453552
C           50.30096923446647       -0.50858692271965        4.82861800321870
C           50.06102136372598        0.40489107527950        5.86187570186641
C           49.94789187714508       -0.02765871287751        7.18433142594704
C           50.09657932066905       -1.38318672283730        7.51697540336115
N           49.92739996833851       -1.88450621872945        8.81922057403998
C           50.11382725433369       -0.97338300222650        9.93784437473851
C           50.31807154544685       -2.28930270261900        6.46991896088060
C           50.43323219943125       -1.85948746272208        5.14743644790376
C           49.35120130524675        0.24147750281648        2.65376550062122
C           47.98170708742397        0.10020431676060        3.12485246151551
C           47.16234030500771        0.43946586553393        2.12846956326401
C           47.98631577024916        0.79841866632305        0.99264242942639
N           49.29110892005379        0.66492489536723        1.36013784641475
H           46.35979313392227        1.22101521040296       -0.29290203947657
H           47.51215812850121        3.50801587684898       -2.02115350545780
H           49.58497496778975        3.47039411712032       -3.76695159476829
H           49.86778004033785        0.12270085458627       -1.24988235720386
H           51.86613773623677       -1.36178669271526       -4.83316214920914
H           51.52029641897370       -1.99906110966464       -7.17218680752666
H           49.85253984662321        0.28344963021370       -9.54277704677799
H           48.54427871691973       -1.54677348532138       -8.42559526524758
H           49.02443779892098       -1.81289407371813      -10.10448639459478
H           49.94378084883584       -2.58544159231731       -8.81413675076790
H           49.88059452552928        1.89659175006701       -7.96998155690646
H           50.40822135111905        2.57614516404720       -5.66510475338184
H           53.90374265943893        0.30895795769131       -4.49756107426883
H           55.56695311500724       -0.17553644461469       -2.59984668802490
H           55.19163409281120       -0.07353982214858        2.87935736362634
H           53.14266322055299       -0.12117290637191        4.62732154435236
H           51.57980492059853        0.32451245729700        0.73261934254883
H           49.96454448843709        1.46364409365831        5.61699648297141
H           49.75409378518037        0.72235704177352        7.94876646102218
H           50.43687269745955       -2.75580631893165        8.93179281485963
H           49.30468927667213       -0.23739571255650        9.98247069857846
H           51.08389041993178       -0.46268311951783        9.88413622607750
H           50.08755665493988       -1.54462300963906       10.87203160936110
H           50.39636030833338       -3.35273015409816        6.67367141310369
H           50.60915690204089       -2.57350512791452        4.34544521527239
H           47.67776340393447       -0.23986038706428        4.09570256028347
H           46.08990194931623        0.42055215890482        2.14959730814676
C          103.52149035288235        1.19069377049406        0.12929104944161
C          102.63720364253362        1.63581395308536        1.29681401434880
C          102.71982049436505        2.82578555539042        2.00324236809726
C          101.63631660404268        2.84832420874738        2.91546777442053
C          100.94652259633571        1.65219305241094        2.77925620974491
N          101.52466338528110        0.95757500898770        1.73797214473190
C           99.67521847194482        1.17128059811463        3.55796191441985
C           99.79247929606622        0.92087348175957        5.02551884725279
C           99.48785170227013       -0.34202108449020        5.56016512540303
C           99.72164720925340       -0.64892343020291        6.90148624620921
C          100.33631467138254        0.27799947531871        7.74303450837308
N          100.68221597273330       -0.04235823369514        9.07697462161819
C          101.55696211449118       -1.20752461425472        9.16714002008800
C          100.60036540469311        1.55618156948366        7.23796827666083
C          100.32936122000915        1.86790308853368        5.90248610258000
C           98.55709409402185        0.85521754156985        2.82654515784683
C           97.28240172340749        0.52101136777336        3.43099782239255
C           96.42197339700259        0.23203483699534        2.45548927971607
N           98.38910388205755        0.77434722412152        1.46602591453127
C           97.11551331277093        0.34880765878889        1.18335666675841
C           96.51670475662726        0.04663683840699       -0.01724818374923
C           97.34265033675902        0.04610541944557       -1.35738741003426
C           96.81934913132203       -0.12350346130844       -2.63367749982514
C           97.89089275603800       -0.19340694006499       -3.54941176922555
C           99.07088110439526       -0.08434639700893       -2.82614159023179
N           98.71959622045986        0.12580496004143       -1.50301412241045
C          100.51259331737900       -0.21869873642888       -3.41394893482817
C          100.66165327902490       -0.75389063891916       -4.79536285217267
C          100.90160249890188        0.10576382918173       -5.87381770262364
C          101.01472952815401       -0.39359495818647       -7.17251841373287
C          100.86604255296484       -1.76431263275976       -7.43567914628699