      -----------------------------------------------------------      
     |                   =====================                   |     
     |                           x T B                           |     
     |                   =====================                   |     
     |                         S. Grimme                         |     
     |          Mulliken Center for Theoretical Chemistry        |     
     |                    University of Bonn                     |     
      -----------------------------------------------------------      

   * xtb version 6.5.1 (b24c23e) compiled by 'conda@728c89f4b128' on 2022-07-12

   xtb is free software: you can redistribute it and/or modify it under
   the terms of the GNU Lesser General Public License as published by
   the Free Software Foundation, either version 3 of the License, or
   (at your option) any later version.
   
   xtb is distributed in the hope that it will be useful,
   but WITHOUT ANY WARRANTY; without even the implied warranty of
   MERCHANTABILITY or FITNESS FOR A PARTICULAR PURPOSE.  See the
   GNU Lesser General Public License for more details.
   
   Cite this work as:
   * C. Bannwarth, E. Caldeweyher, S. Ehlert, A. Hansen, P. Pracht,
     J. Seibert, S. Spicher, S. Grimme, WIREs Comput. Mol. Sci., 2020, 11,
     e01493. DOI: 10.1002/wcms.1493
   
   for GFN2-xTB:
   * C. Bannwarth, S. Ehlert and S. Grimme., J. Chem. Theory Comput., 2019,
     15, 1652-1671. DOI: 10.1021/acs.jctc.8b01176
   for GFN1-xTB:
   * S. Grimme, C. Bannwarth, P. Shushkov, J. Chem. Theory Comput., 2017,
     13, 1989-2009. DOI: 10.1021/acs.jctc.7b00118
   for GFN0-xTB:
   * P. Pracht, E. Caldeweyher, S. Ehlert, S. Grimme, ChemRxiv, 2019, preprint.
     DOI: 10.26434/chemrxiv.8326202.v1
   for GFN-FF:
   * S. Spicher and S. Grimme, Angew. Chem. Int. Ed., 2020, 59, 15665-15673.
     DOI: 10.1002/anie.202004239
   
   for ALPB and GBSA implicit solvation:
   * S. Ehlert, M. Stahn, S. Spicher, S. Grimme, J. Chem. Theory Comput.,
     2021, 17, 4250-4261. DOI: 10.1021/acs.jctc.1c00471
   
   for DFT-D4:
   * E. Caldeweyher, C. Bannwarth and S. Grimme, J. Chem. Phys., 2017,
     147, 034112. DOI: 10.1063/1.4993215
   * E. Caldeweyher, S. Ehlert, A. Hansen, H. Neugebauer, S. Spicher,
     C. Bannwarth and S. Grimme, J. Chem. Phys., 2019, 150, 154122.
     DOI: 10.1063/1.5090222
   * E. Caldeweyher, J.-M. Mewes, S. Ehlert and S. Grimme, Phys. Chem. Chem. Phys.
     2020, 22, 8499-8512. DOI: 10.1039/D0CP00502A
   
   for sTDA-xTB:
   * S. Grimme and C. Bannwarth, J. Chem. Phys., 2016, 145, 054103.
     DOI: 10.1063/1.4959605
   
   in the mass-spec context:
   * V. Asgeirsson, C. Bauer and S. Grimme, Chem. Sci., 2017, 8, 4879.
     DOI: 10.1039/c7sc00601b
   * J. Koopman and S. Grimme, ACS Omega 2019, 4, 12, 15120-15133.
     DOI: 10.1021/acsomega.9b02011
   
   for metadynamics refer to:
   * S. Grimme, J. Chem. Theory Comput., 2019, 155, 2847-2862
     DOI: 10.1021/acs.jctc.9b00143
   
   for SPH calculations refer to:
   * S. Spicher and S. Grimme, J. Chem. Theory Comput., 2021, 17, 1701-1714
     DOI: 10.1021/acs.jctc.0c01306
   
   with help from (in alphabetical order)
   P. Atkinson, C. Bannwarth, F. Bohle, G. Brandenburg, E. Caldeweyher
   M. Checinski, S. Dohm, S. Ehlert, S. Ehrlich, I. Gerasimov, C. Hölzer
   A. Katbashev, J. Koopman, C. Lavigne, S. Lehtola, F. März, M. Müller,
   F. Musil, H. Neugebauer, J. Pisarek, C. Plett, P. Pracht, F. Pultar,
   J. Seibert, P. Shushkov, S. Spicher, M. Stahn, M. Steiner, T. Strunk,
   J. Stückrath, T. Rose, and J. Unsleber
   
 * started run on 2022/07/28 at 22:43:11.421     

           -------------------------------------------------
          |                Calculation Setup                |
           -------------------------------------------------

          program call               : xtb DMA_C6_10.xyz --gfn 1 --opt -T 48
          hostname                   : cx3-6-25.cx3.hpc.ic.ac.uk
          coordinate file            : DMA_C6_10.xyz
          omp threads                :                     1

   ID    Z sym.   atoms
    1    6 C      1-5, 7-11, 13-19, 21-26, 28-32, 34-41, 74-78, 80-84, 86-92,
                  94-99, 101-105, 107-114, 147-205, 207-211, 213-219,
                  221-226, 228-232, 234-241, 273-277, 279-283, 285-291,
                  293-298, 300-304, 306-313, 345-349, 351-355, 357-363,
                  365-370, 372-376, 378-385, 417-421, 423-427, 429-435,
                  437-442, 444-448, 450-457, 489-493, 495-499, 501-507,
                  509-514, 516-520, 522-529, 561-565, 567-571, 573-579,
                  581-586, 588-592, 594-601, 633-637, 639-643, 645-651,
                  653-658, 660-664, 666-673, 705-709, 711-715, 717-723,
                  725-730, 732-736, 738-745
    2    7 N      6, 12, 20, 27, 33, 42, 79, 85, 93, 100, 106, 115, 206, 212,
                  220, 227, 233, 242, 278, 284, 292, 299, 305, 314, 350, 356,
                  364, 371, 377, 386, 422, 428, 436, 443, 449, 458, 494, 500,
                  508, 515, 521, 530, 566, 572, 580, 587, 593, 602, 638, 644,
                  652, 659, 665, 674, 710, 716, 724, 731, 737, 746
    3    1 H      43-73, 116-146, 243-272, 315-344, 387-416, 459-488,
                  531-560, 603-632, 675-704, 747-776

molecular fragmentation (1/2 indicates fragments):
111111111111111111111111111111111111111111111111111111111111111111111111
122222222222222222222222222222222222222222222222222222222222222222222222
222222222222222222222222222222222222222222222222222222222222222222222222
222222222222222222222222222222222222222222222222222222222222222222222222
222222222222222222222222222222222222222222222222222222222222222222222222
222222222222222222222222222222222222222222222222222222222222222222222222
222222222222222222222222222222222222222222222222222222222222222222222222
222222222222222222222222222222222222222222222222222222222222222222222222
222222222222222222222222222222222222222222222222222222222222222222222222
222222222222222222222222222222222222222222222222222222222222222222222222
22222222222222222222222222222222222222222222222222222222
# atoms in fragment 1/2:    73   703
 fragment masses (1/2) :      547.67     5569.57
CMA distance (Bohr)    : 149.600
constraining FC (au)   :  0.0500
########################################################################
[WARNING] Please study the warnings concerning your input carefully
-1- prog_main_parseArguments: Unknown option '-T' provided
########################################################################

           -------------------------------------------------
          |                 G F N 1 - x T B                 |
           -------------------------------------------------

        Reference                      10.1021/acs.jctc.7b00118
      * Hamiltonian:
        H0-scaling (s, p, d)           1.850000    2.250000    2.000000
        zeta-weighting                 0.000000
      * Dispersion:
        s8                             2.400000
        a1                             0.630000
        a2                             5.000000
        s9                             0.000000
      * Repulsion:
        kExp                           1.500000
        rExp                           1.000000
      * Coulomb:
        alpha                          2.000000
        third order                    atomic
        anisotropic                    false
      * Halogen bond correction:
        rad-scale                      1.300000
        damping                        0.440000


          ...................................................
          :                      SETUP                      :
          :.................................................:
          :  # basis functions                2500          :
          :  # atomic orbitals                2500          :
          :  # shells                         1552          :
          :  # electrons                      2258          :
          :  # halogen bonds                     0          :
          :  max. iterations                   250          :
          :  Hamiltonian                  GFN1-xTB          :
          :  restarted?                      false          :
          :  GBSA solvation                  false          :
          :  PC potential                    false          :
          :  electronic temp.          300.0000000     K    :
          :  accuracy                    1.0000000          :
          :  -> integral cutoff          0.2500000E+02      :
          :  -> integral neglect         0.1000000E-07      :
          :  -> SCF convergence          0.1000000E-05 Eh   :
          :  -> wf. convergence          0.2000000E-04 e    :
          :  Broyden damping             0.4000000          :
          ...................................................

 iter      E             dE          RMSdq      gap      omega  full diag
   1  -1245.7044575 -0.124570E+04  0.101E+01    0.00       0.0  T
   2  -1246.8797825 -0.117532E+01  0.603E+00    0.03       1.0  T
   3  -1239.5651262  0.731466E+01  0.166E+00    0.04       1.0  T
   4  -1183.0774525  0.564877E+02  0.223E+00    0.03       1.0  T
   5  -1089.5445005  0.935330E+02  0.310E+00    0.00       1.0  T
   6  -1241.2691987 -0.151725E+03  0.957E-01    0.06       1.0  T
   7  -1244.8454796 -0.357628E+01  0.690E-01    0.03       1.0  T
   8  -1246.7168910 -0.187141E+01  0.364E-01    0.16       1.0  T
   9  -1246.7196670 -0.277601E-02  0.324E-01    0.13       1.0  T
  10  -1246.9492926 -0.229626E+00  0.209E-01    0.10       1.0  T
  11  -1246.9424165  0.687606E-02  0.246E-01    0.20       1.0  T
  12  -1247.0860679 -0.143651E+00  0.103E-01    0.06       1.0  T
  13  -1247.1269078 -0.408398E-01  0.638E-02    0.00       1.0  T
  14  -1247.1188205  0.808724E-02  0.561E-02    0.05       1.0  T
  15  -1247.1346797 -0.158592E-01  0.290E-02    0.02       1.0  T
  16  -1247.1379727 -0.329300E-02  0.234E-02    0.01       1.0  T
  17  -1247.1378745  0.982610E-04  0.180E-02    0.01       1.0  T
  18  -1247.1388565 -0.982001E-03  0.150E-02    0.01       1.0  T
  19  -1247.1395684 -0.711907E-03  0.135E-02    0.00       1.0  T
  20  -1247.1397314 -0.163051E-03  0.893E-03    0.00       1.0  T
  21  -1247.1398122 -0.807749E-04  0.853E-03    0.00       1.0  T
  22  -1247.1397799  0.323045E-04  0.748E-03    0.00       1.0  T
  23  -1247.1399489 -0.169038E-03  0.330E-03    0.00       1.1  T
  24  -1247.1399573 -0.838162E-05  0.267E-03    0.00       1.3  T
  25  -1247.1399637 -0.641426E-05  0.187E-03    0.00       1.9  T
  26  -1247.1399577  0.599083E-05  0.324E-03    0.00       1.1  T
  27  -1247.1399700 -0.122632E-04  0.241E-03    0.00       1.5  T
  28  -1247.1399743 -0.432891E-05  0.200E-03    0.00       1.8  T
  29  -1247.1399773 -0.299806E-05  0.164E-03    0.00       2.2  T
  30  -1247.1399827 -0.541615E-05  0.734E-04    0.00       4.9  T
  31  -1247.1399841 -0.132616E-05  0.198E-04    0.00      18.1  T
  32  -1247.1399842 -0.915531E-07  0.644E-05    0.00      55.7  T
  33  -1247.1399841  0.170180E-07  0.993E-05    0.00      36.1  T

   *** convergence criteria satisfied after 33 iterations ***

         #    Occupation            Energy/Eh            Energy/eV
      -------------------------------------------------------------
         1        2.0000           -0.7924706             -21.5642
       ...           ...                  ...                  ...
      1123        2.0000           -0.3720718             -10.1246
      1124        2.0000           -0.3719112             -10.1202
      1125        2.0000           -0.3699806             -10.0677
      1126        2.0000           -0.3672159              -9.9925
      1127        1.9999           -0.3643397              -9.9142
      1128        1.9990           -0.3617397              -9.8434
      1129        1.0309           -0.3545729              -9.6484 (HOMO)
      1130        0.9677           -0.3544528              -9.6452 (LUMO)
      1131        0.0020           -0.3479294              -9.4676
      1132        0.0002           -0.3457913              -9.4095
      1133        0.0002           -0.3455075              -9.4017
      1134        0.0001           -0.3451412              -9.3918
       ...           ...                  ...                  ...
      2500                          2.5509277              69.4143
      -------------------------------------------------------------
                  HL-Gap            0.0001201 Eh            0.0033 eV
             Fermi-level           -0.3545141 Eh           -9.6468 eV

 SCC (total)                   0 d,  0 h,  3 min, 19.315 sec
 SCC setup                      ...        0 min,  0.180 sec (  0.090%)
 Dispersion                     ...        0 min,  0.073 sec (  0.037%)
 classical contributions        ...        0 min,  0.016 sec (  0.008%)
 integral evaluation            ...        0 min,  1.851 sec (  0.929%)
 iterations                     ...        3 min, 12.996 sec ( 96.830%)
 molecular gradient             ...        0 min,  3.278 sec (  1.644%)
 printout                       ...        0 min,  0.921 sec (  0.462%)

         :::::::::::::::::::::::::::::::::::::::::::::::::::::
         ::                     SUMMARY                     ::
         :::::::::::::::::::::::::::::::::::::::::::::::::::::
         :: total energy           -1224.065630770669 Eh    ::
         :: gradient norm              3.769530751468 Eh/a0 ::
         :: HOMO-LUMO gap              0.003267658945 eV    ::
         ::.................................................::
         :: SCC energy             -1247.139984142450 Eh    ::
         :: -> electrostatic           0.844784162444 Eh    ::
         :: repulsion energy          23.690004651397 Eh    ::
         :: dispersion energy         -0.615651279616 Eh    ::
         :: halogen bond corr.         0.000000000000 Eh    ::
         :: add. restraining           0.000000000000 Eh    ::
         :: total charge              -0.000000001416 e     ::
         :::::::::::::::::::::::::::::::::::::::::::::::::::::

      ----------------------------------------------------------- 
     |                       L-ANC optimizer                     |
      ----------------------------------------------------------- 
          low memory version by Sebastian Ehlert

          ...................................................
          :                      SETUP                      :
          :.................................................:
          :   energy convergence        0.5000000E-05 Eh    :
          :   grad. convergence         0.1000000E-02 Eh/a0 :
          :   optimization log               true           :
          :   writing optlog all                1     steps :
          :   Hessian reset                    20     steps :
          :   maximium step len.        1.0000000     a0    :
          :   LBFGS images                     20           :
          ...................................................
 * calculating model hessian...
Using Lindh-Hessian (1995)
 Shifting diagonal of input Hessian by    1.0036478930269368E-002
 Lowest  eigenvalues of input Hessian
    0.010000    0.010026    0.010031    0.010033    0.010033    0.010034
    0.010034    0.010034    0.010035    0.010036    0.010036    0.010036
    0.010036    0.010036    0.010036    0.010036    0.010036    0.000000
 Highest eigenvalues
    3.597048    3.597049    3.597051    3.597051    3.597052    3.597053


........................................................................
.............................. CYCLE    1 ..............................
........................................................................
   1  -1247.2999637 -0.124730E+04  0.119E-01    0.04       0.0  T
   2  -1247.3074088 -0.744516E-02  0.705E-02    0.04       1.0  T
   3  -1247.2756013  0.318075E-01  0.846E-02    0.09       1.0  T
   4  -1247.2777473 -0.214599E-02  0.805E-02    0.09       1.0  T
   5  -1247.3117490 -0.340017E-01  0.248E-02    0.04       1.0  T
   6  -1247.3102817  0.146728E-02  0.300E-02    0.04       1.0  T
   7  -1247.3130847 -0.280306E-02  0.124E-02    0.04       1.0  T
   8  -1247.3132837 -0.198928E-03  0.990E-03    0.04       1.0  T
   9  -1247.3138522 -0.568553E-03  0.329E-03    0.04       1.1  T
  10  -1247.3138894 -0.371448E-04  0.105E-03    0.04       3.4  T
  11  -1247.3138879  0.147939E-05  0.915E-04    0.04       3.9  T
  12  -1247.3138936 -0.571391E-05  0.309E-04    0.04      11.6  T
  13  -1247.3138940 -0.401740E-06  0.190E-04    0.04      18.9  T
  14  -1247.3138941 -0.106114E-06  0.896E-05    0.04      40.1  T
     SCC iter.                  ...        1 min, 22.690 sec
     gradient                   ...        0 min,  3.214 sec
 * total energy  : -1225.8816614 Eh     change       -0.1816031E+01 Eh
   gradient norm :     1.6046651 Eh/a0  converged?    E=F G=F D=F
   step length   :     0.7210523 a0

........................................................................
.............................. CYCLE    2 ..............................
........................................................................
   1  -1247.3889354 -0.124739E+04  0.340E-02    0.06       0.0  T
   2  -1247.3888725  0.628612E-04  0.337E-02    0.05       1.0  T
   3  -1247.3865809  0.229157E-02  0.308E-02    0.05       1.0  T
   4  -1247.3870932 -0.512256E-03  0.279E-02    0.05       1.0  T
   5  -1247.3734694  0.136238E-01  0.549E-02    0.08       1.0  T
   6  -1247.3904376 -0.169682E-01  0.104E-02    0.05       1.0  T
   7  -1247.3903213  0.116208E-03  0.816E-03    0.05       1.0  T
   8  -1247.3907420 -0.420687E-03  0.199E-03    0.05       1.8  T
   9  -1247.3907610 -0.189245E-04  0.120E-03    0.05       3.0  T
  10  -1247.3907653 -0.433067E-05  0.381E-04    0.05       9.4  T
  11  -1247.3907654 -0.142155E-06  0.261E-04    0.05      13.7  T
  12  -1247.3907657 -0.292077E-06  0.178E-04    0.05      20.2  T
  13  -1247.3907659 -0.213697E-06  0.638E-05    0.05      56.3  T
     SCC iter.                  ...        1 min, 15.506 sec
     gradient                   ...        0 min,  3.276 sec
 * total energy  : -1226.3195154 Eh     change       -0.4378541E+00 Eh
   gradient norm :     1.3316722 Eh/a0  converged?    E=F G=F D=F
   step length   :     3.9839454 a0

........................................................................
.............................. CYCLE    3 ..............................
........................................................................
   1  -1247.4783630 -0.124748E+04  0.280E-02    0.08       0.0  T
   2  -1247.4785116 -0.148665E-03  0.260E-02    0.07       1.0  T
   3  -1247.4777077  0.803960E-03  0.208E-02    0.07       1.0  T
   4  -1247.4775357  0.171941E-03  0.209E-02    0.07       1.0  T
   5  -1247.4788337 -0.129800E-02  0.117E-02    0.07       1.0  T
   6  -1247.4783323  0.501392E-03  0.141E-02    0.07       1.0  T
   7  -1247.4791704 -0.838031E-03  0.646E-03    0.07       1.0  T
   8  -1247.4794459 -0.275512E-03  0.141E-03    0.07       2.5  T
   9  -1247.4794571 -0.111787E-04  0.637E-04    0.07       5.6  T
  10  -1247.4794582 -0.114489E-05  0.259E-04    0.07      13.9  T
  11  -1247.4794584 -0.216304E-06  0.108E-04    0.07      33.3  T
  12  -1247.4794584 -0.144917E-07  0.805E-05    0.07      44.6  T
     SCC iter.                  ...        1 min,  9.360 sec
     gradient                   ...        0 min,  3.280 sec
 * total energy  : -1226.5751793 Eh     change       -0.2556638E+00 Eh
   gradient norm :     1.1745370 Eh/a0  converged?    E=F G=F D=F
   step length   :     9.8622246 a0

........................................................................
.............................. CYCLE    4 ..............................
........................................................................
   1  -1247.5485623 -0.124755E+04  0.245E-02    0.10       0.0  T
   2  -1247.5486200 -0.577229E-04  0.237E-02    0.09       1.0  T
   3  -1247.5484171  0.202873E-03  0.164E-02    0.09       1.0  T
   4  -1247.5471972  0.121990E-02  0.220E-02    0.09       1.0  T
   5  -1247.5483320 -0.113479E-02  0.141E-02    0.09       1.0  T
   6  -1247.5489400 -0.607925E-03  0.826E-03    0.09       1.0  T
   7  -1247.5491604 -0.220407E-03  0.404E-03    0.09       1.0  T
   8  -1247.5492537 -0.933459E-04  0.124E-03    0.09       2.9  T
   9  -1247.5492622 -0.852823E-05  0.533E-04    0.09       6.7  T
  10  -1247.5492632 -0.969535E-06  0.202E-04    0.09      17.7  T
  11  -1247.5492633 -0.818623E-07  0.121E-04    0.09      29.7  T
  12  -1247.5492633 -0.483597E-07  0.856E-05    0.09      41.9  T
     SCC iter.                  ...        1 min, 10.260 sec
     gradient                   ...        0 min,  3.304 sec
 * total energy  : -1226.7572693 Eh     change       -0.1820900E+00 Eh
   gradient norm :     1.0718871 Eh/a0  converged?    E=F G=F D=F
   step length   :    18.2485937 a0

........................................................................
.............................. CYCLE    5 ..............................
........................................................................
   1  -1247.6153953 -0.124762E+04  0.242E-02    0.12       0.0  T
   2  -1247.6156262 -0.230854E-03  0.230E-02    0.11       1.0  T
   3  -1247.6158090 -0.182821E-03  0.117E-02    0.11       1.0  T
   4  -1247.6138463  0.196268E-02  0.237E-02    0.11       1.0  T
   5  -1247.6158321 -0.198582E-02  0.746E-03    0.11       1.0  T
   6  -1247.6158997 -0.675847E-04  0.379E-03    0.11       1.0  T
   7  -1247.6159597 -0.599835E-04  0.203E-03    0.11       1.8  T
   8  -1247.6159756 -0.159489E-04  0.954E-04    0.11       3.8  T
   9  -1247.6159793 -0.360765E-05  0.430E-04    0.11       8.3  T
  10  -1247.6159802 -0.898191E-06  0.154E-04    0.11      23.3  T
  11  -1247.6159802 -0.830535E-07  0.576E-05    0.11      62.3  T
     SCC iter.                  ...        1 min,  6.689 sec
     gradient                   ...        0 min,  3.534 sec
 * total energy  : -1226.9060085 Eh     change       -0.1487392E+00 Eh
   gradient norm :     0.9864301 Eh/a0  converged?    E=F G=F D=F
   step length   :    31.4092202 a0

........................................................................
.............................. CYCLE    6 ..............................
........................................................................
   1  -1247.6841981 -0.124768E+04  0.223E-02    0.14       0.0  T
   2  -1247.6844077 -0.209601E-03  0.210E-02    0.14       1.0  T
   3  -1247.6846326 -0.224907E-03  0.956E-03    0.14       1.0  T
   4  -1247.6839659  0.666729E-03  0.161E-02    0.14       1.0  T
   5  -1247.6845808 -0.614979E-03  0.626E-03    0.14       1.0  T
   6  -1247.6846643 -0.834349E-04  0.228E-03    0.14       1.6  T
   7  -1247.6846823 -0.180348E-04  0.771E-04    0.14       4.7  T
   8  -1247.6846843 -0.196885E-05  0.436E-04    0.14       8.2  T
   9  -1247.6846851 -0.872843E-06  0.141E-04    0.14      25.5  T
  10  -1247.6846852 -0.531279E-07  0.646E-05    0.14      55.6  T
     SCC iter.                  ...        1 min,  0.062 sec
     gradient                   ...        0 min,  3.189 sec
 * total energy  : -1227.0298219 Eh     change       -0.1238133E+00 Eh
   gradient norm :     0.9082054 Eh/a0  converged?    E=F G=F D=F
   step length   :    18.5480646 a0

........................................................................
.............................. CYCLE    7 ..............................
........................................................................
   1  -1247.7643496 -0.124776E+04  0.194E-02    0.18       0.0  T
   2  -1247.7645792 -0.229650E-03  0.159E-02    0.17       1.0  T
   3  -1247.7647460 -0.166815E-03  0.633E-03    0.17       1.0  T
   4  -1247.7646147  0.131293E-03  0.896E-03    0.17       1.0  T
   5  -1247.7647548 -0.140096E-03  0.311E-03    0.17       1.2  T
   6  -1247.7647664 -0.116072E-04  0.146E-03    0.17       2.5  T
   7  -1247.7647726 -0.614200E-05  0.478E-04    0.17       7.5  T
   8  -1247.7647731 -0.550425E-06  0.218E-04    0.17      16.5  T
   9  -1247.7647732 -0.123913E-06  0.118E-04    0.17      30.4  T
  10  -1247.7647733 -0.432619E-07  0.460E-05    0.17      78.1  T
     SCC iter.                  ...        1 min,  2.015 sec
     gradient                   ...        0 min,  3.274 sec
 * total energy  : -1227.1386252 Eh     change       -0.1088033E+00 Eh
   gradient norm :     0.8273409 Eh/a0  converged?    E=F G=F D=F
   step length   :    13.8948968 a0

........................................................................
.............................. CYCLE    8 ..............................
........................................................................
   1  -1247.8525397 -0.124785E+04  0.180E-02    0.22       0.0  T
   2  -1247.8528085 -0.268820E-03  0.120E-02    0.22       1.0  T
   3  -1247.8529233 -0.114838E-03  0.484E-03    0.22       1.0  T
   4  -1247.8528643  0.589728E-04  0.624E-03    0.22       1.0  T
   5  -1247.8529440 -0.796545E-04  0.228E-03    0.22       1.6  T
   6  -1247.8529517 -0.765917E-05  0.835E-04    0.22       4.3  T
   7  -1247.8529530 -0.137571E-05  0.405E-04    0.22       8.9  T
   8  -1247.8529534 -0.405850E-06  0.134E-04    0.22      26.8  T
   9  -1247.8529535 -0.256871E-07  0.774E-05    0.22      46.4  T
     SCC iter.                  ...        0 min, 53.729 sec
     gradient                   ...        0 min,  3.279 sec
 * total energy  : -1227.2413925 Eh     change       -0.1027673E+00 Eh
   gradient norm :     0.7392153 Eh/a0  converged?    E=F G=F D=F
   step length   :    12.9347665 a0

........................................................................
.............................. CYCLE    9 ..............................
........................................................................
   1  -1247.9169862 -0.124792E+04  0.161E-02    0.27       0.0  T
   2  -1247.9172008 -0.214513E-03  0.108E-02    0.26       1.0  T
   3  -1247.9172912 -0.904889E-04  0.454E-03    0.26       1.0  T
   4  -1247.9172452  0.460156E-04  0.531E-03    0.26       1.0  T
   5  -1247.9173053 -0.600976E-04  0.201E-03    0.26       1.8  T
   6  -1247.9173119 -0.660080E-05  0.556E-04    0.26       6.5  T
   7  -1247.9173125 -0.527262E-06  0.314E-04    0.26      11.4  T
   8  -1247.9173127 -0.258659E-06  0.106E-04    0.26      34.0  T
   9  -1247.9173127 -0.162254E-07  0.556E-05    0.26      64.6  T
     SCC iter.                  ...        0 min, 52.573 sec
     gradient                   ...        0 min,  3.211 sec
 * total energy  : -1227.3245167 Eh     change       -0.8312421E-01 Eh
   gradient norm :     0.6581120 Eh/a0  converged?    E=F G=F D=F
   step length   :    14.4560941 a0

........................................................................
.............................. CYCLE   10 ..............................
........................................................................
   1  -1247.9942446 -0.124799E+04  0.164E-02    0.32       0.0  T
   2  -1247.9944269 -0.182269E-03  0.118E-02    0.31       1.0  T
   3  -1247.9945356 -0.108707E-03  0.485E-03    0.31       1.0  T
   4  -1247.9945016  0.340326E-04  0.530E-03    0.31       1.0  T
   5  -1247.9945484 -0.468324E-04  0.179E-03    0.31       2.0  T
   6  -1247.9945534 -0.502172E-05  0.613E-04    0.31       5.9  T
   7  -1247.9945544 -0.911506E-06  0.296E-04    0.31      12.1  T
   8  -1247.9945546 -0.253045E-06  0.893E-05    0.31      40.2  T
   9  -1247.9945546 -0.112773E-07  0.413E-05    0.31      86.9  T
     SCC iter.                  ...        0 min, 52.920 sec
     gradient                   ...        0 min,  3.311 sec
 * total energy  : -1227.4034885 Eh     change       -0.7897185E-01 Eh
   gradient norm :     0.5750389 Eh/a0  converged?    E=F G=F D=F
   step length   :    17.9236682 a0

........................................................................
.............................. CYCLE   11 ..............................
........................................................................
   1  -1248.0528999 -0.124805E+04  0.137E-02    0.36       0.0  T
   2  -1248.0530433 -0.143399E-03  0.998E-03    0.36       1.0  T
   3  -1248.0531324 -0.891674E-04  0.370E-03    0.36       1.0  T
   4  -1248.0531075  0.249212E-04  0.415E-03    0.36       1.0  T
   5  -1248.0531400 -0.324843E-04  0.155E-03    0.36       2.3  T
   6  -1248.0531436 -0.363931E-05  0.486E-04    0.36       7.4  T
   7  -1248.0531441 -0.501102E-06  0.227E-04    0.36      15.8  T
   8  -1248.0531443 -0.131798E-06  0.734E-05    0.36      48.9  T
   9  -1248.0531443 -0.671844E-08  0.333E-05    0.36     107.9  T
     SCC iter.                  ...        0 min, 52.549 sec
     gradient                   ...        0 min,  3.220 sec
 * total energy  : -1227.4675282 Eh     change       -0.6403971E-01 Eh
   gradient norm :     0.4981683 Eh/a0  converged?    E=F G=F D=F
   step length   :    11.1729063 a0

........................................................................
.............................. CYCLE   12 ..............................
........................................................................
   1  -1248.1054964 -0.124811E+04  0.126E-02    0.41       0.0  T
   2  -1248.1056148 -0.118422E-03  0.935E-03    0.41       1.0  T
   3  -1248.1056925 -0.777320E-04  0.335E-03    0.41       1.1  T
   4  -1248.1056765  0.160508E-04  0.353E-03    0.41       1.0  T
   5  -1248.1056966 -0.201046E-04  0.136E-03    0.41       2.6  T
   6  -1248.1056993 -0.277512E-05  0.395E-04    0.41       9.1  T
   7  -1248.1056997 -0.322238E-06  0.204E-04    0.41      17.6  T
   8  -1248.1056998 -0.113080E-06  0.625E-05    0.41      57.5  T
   9  -1248.1056998 -0.543992E-08  0.226E-05    0.41     158.5  T
     SCC iter.                  ...        0 min, 51.428 sec
     gradient                   ...        0 min,  3.266 sec
 * total energy  : -1227.5224041 Eh     change       -0.5487589E-01 Eh
   gradient norm :     0.4223670 Eh/a0  converged?    E=F G=F D=F
   step length   :     9.8567271 a0

........................................................................
.............................. CYCLE   13 ..............................
........................................................................
   1  -1248.1560372 -0.124816E+04  0.119E-02    0.45       0.0  T
   2  -1248.1561371 -0.999323E-04  0.911E-03    0.45       1.0  T
   3  -1248.1562087 -0.715573E-04  0.319E-03    0.45       1.1  T
   4  -1248.1561962  0.125137E-04  0.315E-03    0.45       1.1  T
   5  -1248.1562100 -0.138396E-04  0.125E-03    0.45       2.9  T
   6  -1248.1562127 -0.271358E-05  0.326E-04    0.45      11.0  T
   7  -1248.1562129 -0.209695E-06  0.167E-04    0.45      21.4  T
   8  -1248.1562130 -0.725017E-07  0.552E-05    0.45      65.0  T
     SCC iter.                  ...        0 min, 46.896 sec
     gradient                   ...        0 min,  3.293 sec
 * total energy  : -1227.5675961 Eh     change       -0.4519193E-01 Eh
   gradient norm :     0.3501731 Eh/a0  converged?    E=F G=F D=F
   step length   :     7.3714776 a0

........................................................................
.............................. CYCLE   14 ..............................
........................................................................
   1  -1248.1981850 -0.124820E+04  0.114E-02    0.49       0.0  T
   2  -1248.1982645 -0.794543E-04  0.943E-03    0.49       1.0  T
   3  -1248.1983410 -0.765102E-04  0.326E-03    0.49       1.1  T
   4  -1248.1983275  0.135182E-04  0.323E-03    0.49       1.1  T
   5  -1248.1983425 -0.150831E-04  0.114E-03    0.49       3.1  T
   6  -1248.1983444 -0.184790E-05  0.285E-04    0.49      12.6  T
   7  -1248.1983445 -0.147621E-06  0.150E-04    0.49      24.0  T
   8  -1248.1983446 -0.605676E-07  0.481E-05    0.49      74.6  T
     SCC iter.                  ...        0 min, 47.563 sec
     gradient                   ...        0 min,  3.317 sec
 * total energy  : -1227.6040783 Eh     change       -0.3648224E-01 Eh
   gradient norm :     0.2836758 Eh/a0  converged?    E=F G=F D=F
   step length   :     7.4734178 a0

........................................................................
.............................. CYCLE   15 ..............................
........................................................................
   1  -1248.2391518 -0.124824E+04  0.108E-02    0.53       0.0  T
   2  -1248.2392181 -0.662468E-04  0.915E-03    0.53       1.0  T
   3  -1248.2392875 -0.693996E-04  0.315E-03    0.53       1.1  T
   4  -1248.2392757  0.117904E-04  0.303E-03    0.53       1.2  T
   5  -1248.2392882 -0.125134E-04  0.105E-03    0.53       3.4  T
   6  -1248.2392899 -0.168188E-05  0.233E-04    0.53      15.4  T
   7  -1248.2392900 -0.841092E-07  0.125E-04    0.53      28.8  T
   8  -1248.2392900 -0.399275E-07  0.428E-05    0.53      83.9  T
     SCC iter.                  ...        0 min, 47.370 sec
     gradient                   ...        0 min,  3.208 sec
 * total energy  : -1227.6336744 Eh     change       -0.2959609E-01 Eh
   gradient norm :     0.2210320 Eh/a0  converged?    E=F G=F D=F
   step length   :     5.9647549 a0

........................................................................
.............................. CYCLE   16 ..............................
........................................................................
   1  -1248.2774152 -0.124828E+04  0.107E-02    0.57       0.0  T
   2  -1248.2774721 -0.568587E-04  0.937E-03    0.57       1.0  T
   3  -1248.2775444 -0.723179E-04  0.317E-03    0.57       1.1  T
   4  -1248.2775315  0.128805E-04  0.312E-03    0.57       1.2  T
   5  -1248.2775452 -0.136776E-04  0.105E-03    0.57       3.4  T
   6  -1248.2775467 -0.150650E-05  0.229E-04    0.57      15.7  T
   7  -1248.2775468 -0.763205E-07  0.121E-04    0.57      29.7  T
   8  -1248.2775468 -0.377245E-07  0.376E-05    0.57      95.4  T
     SCC iter.                  ...        0 min, 47.376 sec
     gradient                   ...        0 min,  3.306 sec
 * total energy  : -1227.6561204 Eh     change       -0.2244599E-01 Eh
   gradient norm :     0.1643543 Eh/a0  converged?    E=F G=F D=F
   step length   :     4.6982610 a0

........................................................................
.............................. CYCLE   17 ..............................
........................................................................
   1  -1248.3082940 -0.124831E+04  0.107E-02    0.60       0.0  T
   2  -1248.3083426 -0.485901E-04  0.984E-03    0.60       1.0  T
   3  -1248.3084201 -0.775648E-04  0.335E-03    0.60       1.1  T
   4  -1248.3084056  0.145479E-04  0.328E-03    0.60       1.1  T
   5  -1248.3084209 -0.153567E-04  0.100E-03    0.60       3.6  T
   6  -1248.3084222 -0.131688E-05  0.215E-04    0.60      16.7  T
   7  -1248.3084223 -0.664531E-07  0.112E-04    0.60      31.9  T
   8  -1248.3084223 -0.336411E-07  0.339E-05    0.60     105.8  T
     SCC iter.                  ...        0 min, 47.435 sec
     gradient                   ...        0 min,  3.387 sec
 * total energy  : -1227.6730809 Eh     change       -0.1696052E-01 Eh
   gradient norm :     0.1139010 Eh/a0  converged?    E=F G=F D=F
   step length   :     4.9007561 a0

........................................................................
.............................. CYCLE   18 ..............................
........................................................................
   1  -1248.3363744 -0.124834E+04  0.812E-03    0.63       0.0  T
   2  -1248.3364054 -0.309717E-04  0.735E-03    0.63       1.0  T
   3  -1248.3364479 -0.424524E-04  0.253E-03    0.63       1.4  T
   4  -1248.3364412  0.662682E-05  0.226E-03    0.63       1.6  T
   5  -1248.3364479 -0.666780E-05  0.749E-04    0.63       4.8  T
   6  -1248.3364487 -0.820296E-06  0.141E-04    0.63      25.5  T
   7  -1248.3364487 -0.237296E-07  0.728E-05    0.63      49.3  T
     SCC iter.                  ...        0 min, 39.627 sec
     gradient                   ...        0 min,  3.296 sec
 * total energy  : -1227.6854367 Eh     change       -0.1235581E-01 Eh
   gradient norm :     0.0713105 Eh/a0  converged?    E=F G=F D=F
   step length   :     3.4215322 a0

........................................................................
.............................. CYCLE   19 ..............................
........................................................................
   1  -1248.3606069 -0.124836E+04  0.659E-03    0.65       0.0  T
   2  -1248.3606272 -0.202776E-04  0.573E-03    0.65       1.0  T
   3  -1248.3606527 -0.254966E-04  0.201E-03    0.65       1.8  T
   4  -1248.3606492  0.348171E-05  0.169E-03    0.65       2.1  T
   5  -1248.3606526 -0.343717E-05  0.610E-04    0.65       5.9  T
   6  -1248.3606532 -0.562429E-06  0.995E-05    0.65      36.1  T
   7  -1248.3606532 -0.120792E-07  0.448E-05    0.65      80.1  T
     SCC iter.                  ...        0 min, 41.463 sec
     gradient                   ...        0 min,  3.252 sec
 * total energy  : -1227.6939539 Eh     change       -0.8517239E-02 Eh
   gradient norm :     0.0437589 Eh/a0  converged?    E=F G=F D=F
   step length   :     2.6460934 a0

........................................................................
.............................. CYCLE   20 ..............................
........................................................................
   1  -1248.3758492 -0.124838E+04  0.540E-03    0.66       0.0  T
   2  -1248.3758623 -0.131240E-04  0.493E-03    0.66       1.0  T
   3  -1248.3758797 -0.173843E-04  0.182E-03    0.66       2.0  T
   4  -1248.3758772  0.252505E-05  0.141E-03    0.66       2.6  T
   5  -1248.3758795 -0.233709E-05  0.494E-04    0.66       7.3  T
   6  -1248.3758799 -0.426652E-06  0.794E-05    0.66      45.2  T
   7  -1248.3758799 -0.758178E-08  0.357E-05    0.66     100.6  T
     SCC iter.                  ...        0 min, 40.927 sec
     gradient                   ...        0 min,  3.238 sec
 * total energy  : -1227.7000238 Eh     change       -0.6069841E-02 Eh
   gradient norm :     0.0370963 Eh/a0  converged?    E=F G=F D=F
   step length   :     2.7289813 a0
 * RMSD in coord.:     0.6069303 a0     energy gain  -0.3634393E+01 Eh
 * calculating model hessian...
Using Lindh-Hessian (1995)
 Shifting diagonal of input Hessian by    1.0002861099801521E-002
 Lowest  eigenvalues of input Hessian
    0.010000    0.010000    0.010001    0.010001    0.010001    0.010002
    0.010002    0.010002    0.010002    0.010002    0.010002    0.010002
    0.010002    0.010003    0.000000    0.000000    0.000000    0.000000
 Highest eigenvalues
    2.991663    3.012251    3.012296    3.019680    3.019701    3.021024


........................................................................
.............................. CYCLE   21 ..............................
........................................................................
   1  -1248.3972570 -0.124840E+04  0.408E-03    0.65       0.0  T
   2  -1248.3972635 -0.642050E-05  0.205E-03    0.65       1.8  T
   3  -1248.3972645 -0.100698E-05  0.135E-03    0.66       2.7  T
   4  -1248.3972654 -0.922433E-06  0.741E-04    0.65       4.8  T
   5  -1248.3972659 -0.539961E-06  0.327E-04    0.66      11.0  T
   6  -1248.3972662 -0.238580E-06  0.908E-05    0.66      39.6  T
   7  -1248.3972662 -0.156042E-07  0.240E-05    0.66     149.3  T
     SCC iter.                  ...        0 min, 41.487 sec
     gradient                   ...        0 min,  3.401 sec
 * total energy  : -1227.7036341 Eh     change       -0.3610269E-02 Eh
   gradient norm :     0.0207387 Eh/a0  converged?    E=F G=F D=F
   step length   :     0.4117868 a0

........................................................................
.............................. CYCLE   22 ..............................
........................................................................
   1  -1248.4178205 -0.124842E+04  0.682E-03    0.64       0.0  T
   2  -1248.4178417 -0.212263E-04  0.348E-03    0.64       1.0  T
   3  -1248.4178462 -0.443919E-05  0.225E-03    0.64       1.6  T
   4  -1248.4178494 -0.326842E-05  0.142E-03    0.64       2.5  T
   5  -1248.4178523 -0.288260E-05  0.505E-04    0.64       7.1  T
   6  -1248.4178527 -0.385382E-06  0.164E-04    0.64      21.9  T
   7  -1248.4178527 -0.520620E-07  0.471E-05    0.64      76.3  T
     SCC iter.                  ...        0 min, 39.730 sec
     gradient                   ...        0 min,  3.161 sec
 * total energy  : -1227.7084236 Eh     change       -0.4789506E-02 Eh
   gradient norm :     0.0279462 Eh/a0  converged?    E=F G=F D=F
   step length   :     2.6416949 a0

........................................................................
.............................. CYCLE   23 ..............................
........................................................................
   1  -1248.4118626 -0.124841E+04  0.361E-03    0.63       0.0  T
   2  -1248.4118718 -0.924508E-05  0.202E-03    0.63       1.8  T
   3  -1248.4118740 -0.220604E-05  0.101E-03    0.63       3.6  T
   4  -1248.4118739  0.638342E-07  0.752E-04    0.63       4.8  T
   5  -1248.4118746 -0.602185E-06  0.323E-04    0.63      11.1  T
   6  -1248.4118747 -0.195711E-06  0.100E-04    0.63      35.9  T
   7  -1248.4118748 -0.218795E-07  0.304E-05    0.63     118.1  T
     SCC iter.                  ...        0 min, 40.571 sec
     gradient                   ...        0 min,  3.239 sec
 * total energy  : -1227.7132889 Eh     change       -0.4865349E-02 Eh
   gradient norm :     0.0390605 Eh/a0  converged?    E=F G=F D=F
   step length   :     2.7245367 a0

........................................................................
.............................. CYCLE   24 ..............................
........................................................................
   1  -1248.3887936 -0.124839E+04  0.241E-03    0.62       0.0  T
   2  -1248.3887983 -0.473244E-05  0.153E-03    0.62       2.3  T
   3  -1248.3887995 -0.115871E-05  0.775E-04    0.62       4.6  T
   4  -1248.3887992  0.258611E-06  0.576E-04    0.62       6.2  T
   5  -1248.3887995 -0.355943E-06  0.247E-04    0.62      14.5  T
   6  -1248.3887997 -0.146776E-06  0.705E-05    0.62      50.9  T
   7  -1248.3887997 -0.123573E-07  0.247E-05    0.62     145.6  T
     SCC iter.                  ...        0 min, 40.492 sec
     gradient                   ...        0 min,  3.201 sec
 * total energy  : -1227.7171997 Eh     change       -0.3910764E-02 Eh
   gradient norm :     0.0450455 Eh/a0  converged?    E=F G=F D=F
   step length   :     4.9201722 a0

........................................................................
.............................. CYCLE   25 ..............................
........................................................................
   1  -1248.3586412 -0.124836E+04  0.239E-03    0.62       0.0  T
   2  -1248.3586439 -0.268728E-05  0.148E-03    0.62       2.4  T
   3  -1248.3586442 -0.372207E-06  0.852E-04    0.62       4.2  T
   4  -1248.3586441  0.861655E-07  0.517E-04    0.62       6.9  T
   5  -1248.3586445 -0.362405E-06  0.183E-04    0.62      19.6  T
   6  -1248.3586446 -0.908403E-07  0.468E-05    0.62      76.7  T
     SCC iter.                  ...        0 min, 33.815 sec
     gradient                   ...        0 min,  3.513 sec
 * total energy  : -1227.7206265 Eh     change       -0.3426783E-02 Eh
   gradient norm :     0.0460183 Eh/a0  converged?    E=F G=F D=F
   step length   :     4.6899859 a0

........................................................................
.............................. CYCLE   26 ..............................
........................................................................
   1  -1248.3338202 -0.124833E+04  0.247E-03    0.62       0.0  T
   2  -1248.3338229 -0.270748E-05  0.149E-03    0.62       2.4  T
   3  -1248.3338234 -0.534851E-06  0.905E-04    0.62       4.0  T
   4  -1248.3338234  0.939644E-08  0.579E-04    0.62       6.2  T
   5  -1248.3338238 -0.456569E-06  0.239E-04    0.62      15.0  T
   6  -1248.3338240 -0.135632E-06  0.524E-05    0.62      68.5  T
   7  -1248.3338240 -0.423688E-08  0.217E-05    0.62     165.5  T
     SCC iter.                  ...        0 min, 41.072 sec
     gradient                   ...        0 min,  3.341 sec
 * total energy  : -1227.7235830 Eh     change       -0.2956579E-02 Eh
   gradient norm :     0.0418190 Eh/a0  converged?    E=F G=F D=F
   step length   :     4.2032422 a0

........................................................................
.............................. CYCLE   27 ..............................
........................................................................
   1  -1248.3130059 -0.124831E+04  0.261E-03    0.62       0.0  T
   2  -1248.3130095 -0.362613E-05  0.153E-03    0.62       2.3  T
   3  -1248.3130105 -0.938329E-06  0.879E-04    0.62       4.1  T
   4  -1248.3130105 -0.269765E-07  0.537E-04    0.62       6.7  T
   5  -1248.3130108 -0.280992E-06  0.249E-04    0.62      14.4  T
   6  -1248.3130109 -0.154506E-06  0.643E-05    0.62      55.8  T
   7  -1248.3130109 -0.712930E-08  0.233E-05    0.62     154.3  T
     SCC iter.                  ...        0 min, 39.470 sec
     gradient                   ...        0 min,  3.291 sec
 * total energy  : -1227.7261159 Eh     change       -0.2532816E-02 Eh
   gradient norm :     0.0355742 Eh/a0  converged?    E=F G=F D=F
   step length   :     4.9469488 a0

........................................................................
.............................. CYCLE   28 ..............................
........................................................................
   1  -1248.2991173 -0.124830E+04  0.261E-03    0.62       0.0  T
   2  -1248.2991218 -0.456653E-05  0.153E-03    0.62       2.3  T
   3  -1248.2991233 -0.143685E-05  0.803E-04    0.62       4.5  T
   4  -1248.2991232  0.529924E-07  0.584E-04    0.62       6.1  T
   5  -1248.2991237 -0.428862E-06  0.239E-04    0.62      15.0  T
   6  -1248.2991238 -0.111380E-06  0.748E-05    0.62      48.0  T
   7  -1248.2991238 -0.931800E-08  0.238E-05    0.62     151.0  T
     SCC iter.                  ...        0 min, 42.301 sec
     gradient                   ...        0 min,  3.350 sec
 * total energy  : -1227.7285881 Eh     change       -0.2472245E-02 Eh
   gradient norm :     0.0279038 Eh/a0  converged?    E=F G=F D=F
   step length   :     4.1615819 a0

........................................................................
.............................. CYCLE   29 ..............................
........................................................................
   1  -1248.2948598 -0.124829E+04  0.251E-03    0.63       0.0  T
   2  -1248.2948651 -0.524838E-05  0.158E-03    0.63       2.3  T
   3  -1248.2948671 -0.201379E-05  0.688E-04    0.63       5.2  T
   4  -1248.2948669  0.169084E-06  0.596E-04    0.63       6.0  T
   5  -1248.2948675 -0.519654E-06  0.216E-04    0.63      16.6  T
   6  -1248.2948675 -0.544294E-07  0.836E-05    0.63      42.9  T
   7  -1248.2948675 -0.115258E-07  0.240E-05    0.63     149.5  T
     SCC iter.                  ...        0 min, 40.450 sec
     gradient                   ...        0 min,  3.295 sec
 * total energy  : -1227.7308633 Eh     change       -0.2275189E-02 Eh
   gradient norm :     0.0211718 Eh/a0  converged?    E=F G=F D=F
   step length   :     3.4868863 a0

........................................................................
.............................. CYCLE   30 ..............................
........................................................................
   1  -1248.2987380 -0.124830E+04  0.237E-03    0.63       0.0  T
   2  -1248.2987435 -0.555159E-05  0.156E-03    0.63       2.3  T
   3  -1248.2987455 -0.202568E-05  0.613E-04    0.63       5.9  T
   4  -1248.2987453  0.246690E-06  0.539E-04    0.63       6.7  T
   5  -1248.2987457 -0.420831E-06  0.224E-04    0.63      16.0  T
   6  -1248.2987458 -0.658479E-07  0.787E-05    0.63      45.6  T
   7  -1248.2987458 -0.101750E-07  0.230E-05    0.63     155.9  T
     SCC iter.                  ...        0 min, 41.915 sec
     gradient                   ...        0 min,  3.380 sec
 * total energy  : -1227.7331874 Eh     change       -0.2324126E-02 Eh
   gradient norm :     0.0192835 Eh/a0  converged?    E=F G=F D=F
   step length   :     4.4079827 a0

........................................................................
.............................. CYCLE   31 ..............................
........................................................................
   1  -1248.3141445 -0.124831E+04  0.228E-03    0.64       0.0  T
   2  -1248.3141491 -0.457422E-05  0.149E-03    0.64       2.4  T
   3  -1248.3141505 -0.144907E-05  0.675E-04    0.64       5.3  T
   4  -1248.3141502  0.342639E-06  0.579E-04    0.64       6.2  T
   5  -1248.3141507 -0.532147E-06  0.214E-04    0.64      16.8  T
   6  -1248.3141508 -0.730095E-07  0.764E-05    0.64      47.0  T
   7  -1248.3141508 -0.974478E-08  0.213E-05    0.64     168.8  T
     SCC iter.                  ...        0 min, 40.554 sec
     gradient                   ...        0 min,  3.237 sec
 * total energy  : -1227.7355246 Eh     change       -0.2337176E-02 Eh
   gradient norm :     0.0222761 Eh/a0  converged?    E=F G=F D=F
   step length   :     3.3194749 a0

........................................................................
.............................. CYCLE   32 ..............................
........................................................................
   1  -1248.3294997 -0.124833E+04  0.223E-03    0.64       0.0  T
   2  -1248.3295032 -0.352015E-05  0.139E-03    0.64       2.6  T
   3  -1248.3295042 -0.100319E-05  0.710E-04    0.64       5.1  T
   4  -1248.3295038  0.380041E-06  0.598E-04    0.64       6.0  T
   5  -1248.3295045 -0.703158E-06  0.181E-04    0.64      19.8  T
   6  -1248.3295046 -0.555178E-07  0.727E-05    0.64      49.4  T
     SCC iter.                  ...        0 min, 35.146 sec
     gradient                   ...        0 min,  3.500 sec
 * total energy  : -1227.7377314 Eh     change       -0.2206815E-02 Eh
   gradient norm :     0.0249633 Eh/a0  converged?    E=F G=F D=F
   step length   :     3.5285017 a0

........................................................................
.............................. CYCLE   33 ..............................
........................................................................
   1  -1248.3430727 -0.124834E+04  0.211E-03    0.64       0.0  T
   2  -1248.3430754 -0.267443E-05  0.123E-03    0.64       2.9  T
   3  -1248.3430760 -0.617387E-06  0.684E-04    0.64       5.2  T
   4  -1248.3430758  0.169232E-06  0.556E-04    0.64       6.5  T
   5  -1248.3430764 -0.601532E-06  0.160E-04    0.64      22.4  T
   6  -1248.3430765 -0.428015E-07  0.656E-05    0.64      54.8  T
     SCC iter.                  ...        0 min, 37.846 sec
     gradient                   ...        0 min,  3.293 sec
 * total energy  : -1227.7396291 Eh     change       -0.1897744E-02 Eh
   gradient norm :     0.0271712 Eh/a0  converged?    E=F G=F D=F
   step length   :     3.6676728 a0

........................................................................
.............................. CYCLE   34 ..............................
........................................................................
   1  -1248.3553937 -0.124836E+04  0.209E-03    0.64       0.0  T
   2  -1248.3553962 -0.249553E-05  0.114E-03    0.64       3.1  T
   3  -1248.3553966 -0.419167E-06  0.672E-04    0.64       5.3  T
   4  -1248.3553966  0.279078E-07  0.525E-04    0.64       6.8  T
   5  -1248.3553971 -0.494433E-06  0.155E-04    0.64      23.1  T
   6  -1248.3553971 -0.449445E-07  0.622E-05    0.64      57.7  T
     SCC iter.                  ...        0 min, 35.912 sec
     gradient                   ...        0 min,  3.260 sec
 * total energy  : -1227.7413424 Eh     change       -0.1713238E-02 Eh
   gradient norm :     0.0276832 Eh/a0  converged?    E=F G=F D=F
   step length   :     4.3837847 a0

........................................................................
.............................. CYCLE   35 ..............................
........................................................................
   1  -1248.3750639 -0.124838E+04  0.218E-03    0.64       0.0  T
   2  -1248.3750666 -0.272230E-05  0.121E-03    0.64       3.0  T
   3  -1248.3750669 -0.329067E-06  0.732E-04    0.64       4.9  T
   4  -1248.3750670 -0.439422E-07  0.547E-04    0.64       6.6  T
   5  -1248.3750674 -0.486345E-06  0.173E-04    0.64      20.8  T
   6  -1248.3750675 -0.606274E-07  0.605E-05    0.64      59.3  T
     SCC iter.                  ...        0 min, 37.287 sec
     gradient                   ...        0 min,  3.571 sec
 * total energy  : -1227.7428964 Eh     change       -0.1553972E-02 Eh
   gradient norm :     0.0255877 Eh/a0  converged?    E=F G=F D=F
   step length   :     2.3340577 a0

........................................................................
.............................. CYCLE   36 ..............................
........................................................................
   1  -1248.3922268 -0.124839E+04  0.222E-03    0.64       0.0  T
   2  -1248.3922303 -0.353970E-05  0.126E-03    0.64       2.8  T
   3  -1248.3922309 -0.565876E-06  0.694E-04    0.64       5.2  T
   4  -1248.3922308  0.126370E-06  0.577E-04    0.64       6.2  T
   5  -1248.3922312 -0.489903E-06  0.192E-04    0.64      18.7  T
   6  -1248.3922313 -0.652096E-07  0.610E-05    0.64      58.9  T
     SCC iter.                  ...        0 min, 35.838 sec
     gradient                   ...        0 min,  3.240 sec
 * total energy  : -1227.7440323 Eh     change       -0.1135925E-02 Eh
   gradient norm :     0.0215685 Eh/a0  converged?    E=F G=F D=F
   step length   :     2.0458728 a0

........................................................................
.............................. CYCLE   37 ..............................
........................................................................
   1  -1248.4049583 -0.124840E+04  0.246E-03    0.63       0.0  T
   2  -1248.4049632 -0.498881E-05  0.139E-03    0.63       2.6  T
   3  -1248.4049639 -0.695848E-06  0.721E-04    0.63       5.0  T
   4  -1248.4049636  0.363331E-06  0.652E-04    0.63       5.5  T
   5  -1248.4049642 -0.650264E-06  0.208E-04    0.63      17.3  T
   6  -1248.4049643 -0.604007E-07  0.659E-05    0.63      54.5  T
   7  -1248.4049643 -0.864566E-08  0.266E-05    0.63     134.7  T
     SCC iter.                  ...        0 min, 42.152 sec
     gradient                   ...        0 min,  3.175 sec
 * total energy  : -1227.7450141 Eh     change       -0.9818268E-03 Eh
   gradient norm :     0.0159020 Eh/a0  converged?    E=F G=F D=F
   step length   :     1.9528401 a0

........................................................................
.............................. CYCLE   38 ..............................
........................................................................
   1  -1248.4212942 -0.124842E+04  0.302E-03    0.63       0.0  T
   2  -1248.4212984 -0.417322E-05  0.153E-03    0.63       2.4  T
   3  -1248.4212988 -0.404240E-06  0.875E-04    0.63       4.1  T
   4  -1248.4212981  0.748593E-06  0.702E-04    0.63       5.1  T
   5  -1248.4212992 -0.111623E-05  0.162E-04    0.63      22.2  T
   6  -1248.4212992 -0.567870E-07  0.593E-05    0.63      60.6  T
   7  -1248.4212992 -0.730142E-08  0.162E-05    0.63     221.4  T
     SCC iter.                  ...        0 min, 42.060 sec
     gradient                   ...        0 min,  3.214 sec
 * total energy  : -1227.7457763 Eh     change       -0.7621873E-03 Eh
   gradient norm :     0.0126743 Eh/a0  converged?    E=F G=F D=F
   step length   :     0.4780772 a0

........................................................................
.............................. CYCLE   39 ..............................
........................................................................
   1  -1248.4142860 -0.124841E+04  0.338E-03    0.62       0.0  T
   2  -1248.4142911 -0.508989E-05  0.191E-03    0.62       1.9  T
   3  -1248.4142920 -0.914511E-06  0.110E-03    0.62       3.3  T
   4  -1248.4142914  0.651311E-06  0.911E-04    0.62       3.9  T
   5  -1248.4142931 -0.175690E-05  0.225E-04    0.62      16.0  T
   6  -1248.4142932 -0.896850E-07  0.824E-05    0.62      43.6  T
   7  -1248.4142932 -0.134880E-07  0.224E-05    0.62     160.4  T
     SCC iter.                  ...        0 min, 41.589 sec
     gradient                   ...        0 min,  3.759 sec
 * total energy  : -1227.7457663 Eh     change        0.9993886E-05 Eh
   gradient norm :     0.0210189 Eh/a0  converged?    E=F G=F D=F
   step length   :     0.6668017 a0

........................................................................
.............................. CYCLE   40 ..............................
........................................................................
   1  -1248.3916367 -0.124839E+04  0.237E-03    0.62       0.0  T
   2  -1248.3916390 -0.228023E-05  0.157E-03    0.62       2.3  T
   3  -1248.3916403 -0.126742E-05  0.789E-04    0.62       4.5  T
   4  -1248.3916400  0.277084E-06  0.605E-04    0.62       5.9  T
   5  -1248.3916406 -0.622576E-06  0.177E-04    0.62      20.3  T
   6  -1248.3916407 -0.560478E-07  0.437E-05    0.62      82.2  T
     SCC iter.                  ...        0 min, 37.357 sec
     gradient                   ...        0 min,  3.480 sec
 * total energy  : -1227.7471189 Eh     change       -0.1352622E-02 Eh
   gradient norm :     0.0164166 Eh/a0  converged?    E=F G=F D=F
   step length   :     0.4073390 a0

........................................................................
.............................. CYCLE   41 ..............................
........................................................................
   1  -1248.3874253 -0.124839E+04  0.231E-03    0.62       0.0  T
   2  -1248.3874280 -0.261339E-05  0.125E-03    0.62       2.9  T
   3  -1248.3874284 -0.466915E-06  0.713E-04    0.62       5.0  T
   4  -1248.3874281  0.310250E-06  0.560E-04    0.62       6.4  T
   5  -1248.3874287 -0.623053E-06  0.149E-04    0.62      24.2  T
   6  -1248.3874288 -0.392438E-07  0.485E-05    0.62      74.0  T
     SCC iter.                  ...        0 min, 35.571 sec
     gradient                   ...        0 min,  3.307 sec
 * total energy  : -1227.7474494 Eh     change       -0.3304803E-03 Eh
   gradient norm :     0.0138907 Eh/a0  converged?    E=F G=F D=F
   step length   :     0.3272245 a0

........................................................................
.............................. CYCLE   42 ..............................
........................................................................
   1  -1248.3578770 -0.124836E+04  0.473E-03    0.62       0.0  T
   2  -1248.3578901 -0.131014E-04  0.221E-03    0.62       1.6  T
   3  -1248.3578918 -0.173713E-05  0.130E-03    0.62       2.8  T
   4  -1248.3578912  0.589394E-06  0.976E-04    0.62       3.7  T
   5  -1248.3578931 -0.181466E-05  0.300E-04    0.62      12.0  T
   6  -1248.3578933 -0.196213E-06  0.927E-05    0.62      38.7  T
   7  -1248.3578933 -0.153593E-07  0.409E-05    0.62      87.9  T
     SCC iter.                  ...        0 min, 41.009 sec
     gradient                   ...        0 min,  3.360 sec
 * total energy  : -1227.7483604 Eh     change       -0.9110374E-03 Eh
   gradient norm :     0.0160808 Eh/a0  converged?    E=F G=F D=F
   step length   :     1.3917907 a0
 * RMSD in coord.:     0.5737619 a0     energy gain  -0.4833666E-01 Eh
 * calculating model hessian...
Using Lindh-Hessian (1995)
 Shifting diagonal of input Hessian by    1.0005253055405774E-002
 Lowest  eigenvalues of input Hessian
    0.010000    0.010001    0.010002    0.010002    0.010003    0.010003
    0.010003    0.010003    0.010003    0.010004    0.010004    0.010004
    0.010004    0.010004    0.010004    0.010005    0.000000    0.000000
 Highest eigenvalues
    2.997148    3.001194    3.001249    3.005930    3.006012    3.007229


........................................................................
.............................. CYCLE   43 ..............................
........................................................................
   1  -1248.3763707 -0.124838E+04  0.268E-03    0.62       0.0  T
   2  -1248.3763726 -0.189178E-05  0.140E-03    0.62       2.6  T
   3  -1248.3763727 -0.936527E-07  0.913E-04    0.62       3.9  T
   4  -1248.3763727 -0.176760E-08  0.480E-04    0.62       7.5  T
   5  -1248.3763732 -0.441494E-06  0.172E-04    0.62      20.9  T
   6  -1248.3763733 -0.789178E-07  0.427E-05    0.62      84.1  T
     SCC iter.                  ...        0 min, 35.871 sec
     gradient                   ...        0 min,  3.217 sec
 * total energy  : -1227.7488184 Eh     change       -0.4579595E-03 Eh
   gradient norm :     0.0078770 Eh/a0  converged?    E=F G=F D=F
   step length   :     0.1617194 a0

........................................................................
.............................. CYCLE   44 ..............................
........................................................................
   1  -1248.4073040 -0.124841E+04  0.477E-03    0.63       0.0  T
   2  -1248.4073110 -0.695461E-05  0.256E-03    0.63       1.4  T
   3  -1248.4073116 -0.597295E-06  0.168E-03    0.63       2.1  T
   4  -1248.4073118 -0.230433E-06  0.886E-04    0.63       4.1  T
   5  -1248.4073132 -0.132748E-05  0.340E-04    0.63      10.6  T
   6  -1248.4073135 -0.326381E-06  0.800E-05    0.63      44.9  T
   7  -1248.4073135 -0.137543E-07  0.264E-05    0.63     136.1  T
     SCC iter.                  ...        0 min, 41.042 sec
     gradient                   ...        0 min,  3.190 sec
 * total energy  : -1227.7488192 Eh     change       -0.7571907E-06 Eh
   gradient norm :     0.0186331 Eh/a0  converged?    E=T G=F D=F
   step length   :     0.3741326 a0

........................................................................
.............................. CYCLE   45 ..............................
........................................................................
   1  -1248.4010233 -0.124840E+04  0.145E-03    0.63       0.0  T
   2  -1248.4010240 -0.707784E-06  0.915E-04    0.63       3.9  T
   3  -1248.4010242 -0.164471E-06  0.511E-04    0.63       7.0  T
   4  -1248.4010241  0.743405E-07  0.322E-04    0.63      11.1  T
   5  -1248.4010243 -0.169635E-06  0.117E-04    0.63      30.6  T
   6  -1248.4010243 -0.344978E-07  0.308E-05    0.63     116.4  T
     SCC iter.                  ...        0 min, 37.191 sec
     gradient                   ...        0 min,  3.328 sec
 * total energy  : -1227.7493926 Eh     change       -0.5734547E-03 Eh
   gradient norm :     0.0104837 Eh/a0  converged?    E=F G=F D=F
   step length   :     0.1926902 a0

........................................................................
.............................. CYCLE   46 ..............................
........................................................................
   1  -1248.3766499 -0.124838E+04  0.300E-03    0.63       0.0  T
   2  -1248.3766521 -0.215421E-05  0.156E-03    0.63       2.3  T
   3  -1248.3766523 -0.224282E-06  0.953E-04    0.63       3.8  T
   4  -1248.3766523 -0.155796E-08  0.507E-04    0.63       7.1  T
   5  -1248.3766527 -0.393117E-06  0.143E-04    0.63      25.1  T
   6  -1248.3766527 -0.431373E-07  0.489E-05    0.63      73.4  T
     SCC iter.                  ...        0 min, 36.100 sec
     gradient                   ...        0 min,  3.380 sec
 * total energy  : -1227.7492873 Eh     change        0.1053295E-03 Eh
   gradient norm :     0.0126601 Eh/a0  converged?    E=F G=F D=F
   step length   :     0.2829291 a0

........................................................................
.............................. CYCLE   47 ..............................
........................................................................
   1  -1248.3794815 -0.124838E+04  0.118E-03    0.63       0.0  T
   2  -1248.3794825 -0.905236E-06  0.780E-04    0.63       4.6  T
   3  -1248.3794828 -0.326014E-06  0.412E-04    0.63       8.7  T
   4  -1248.3794827  0.592165E-07  0.288E-04    0.63      12.5  T
   5  -1248.3794828 -0.818659E-07  0.130E-04    0.63      27.6  T
   6  -1248.3794828 -0.460698E-07  0.293E-05    0.63     122.4  T
     SCC iter.                  ...        0 min, 35.020 sec
     gradient                   ...        0 min,  3.488 sec
 * total energy  : -1227.7497737 Eh     change       -0.4863873E-03 Eh
   gradient norm :     0.0098515 Eh/a0  converged?    E=F G=F D=F
   step length   :     0.2841419 a0

........................................................................
.............................. CYCLE   48 ..............................
........................................................................
   1  -1248.3965542 -0.124840E+04  0.328E-03    0.63       0.0  T
   2  -1248.3965585 -0.430454E-05  0.194E-03    0.63       1.9  T
   3  -1248.3965595 -0.996729E-06  0.117E-03    0.63       3.1  T
   4  -1248.3965594  0.854641E-07  0.639E-04    0.63       5.6  T
   5  -1248.3965598 -0.466413E-06  0.283E-04    0.63      12.7  T
   6  -1248.3965601 -0.223858E-06  0.632E-05    0.63      56.8  T
   7  -1248.3965601 -0.924024E-08  0.198E-05    0.63     181.6  T
     SCC iter.                  ...        0 min, 42.694 sec
     gradient                   ...        0 min,  3.280 sec
 * total energy  : -1227.7496216 Eh     change        0.1520906E-03 Eh
   gradient norm :     0.0162391 Eh/a0  converged?    E=F G=F D=F
   step length   :     0.4990265 a0

........................................................................
.............................. CYCLE   49 ..............................
........................................................................
   1  -1248.3938297 -0.124839E+04  0.143E-03    0.63       0.0  T
   2  -1248.3938303 -0.620521E-06  0.946E-04    0.63       3.8  T
   3  -1248.3938306 -0.304050E-06  0.511E-04    0.63       7.0  T
   4  -1248.3938305  0.115479E-06  0.337E-04    0.63      10.6  T
   5  -1248.3938307 -0.200368E-06  0.114E-04    0.63      31.5  T
   6  -1248.3938307 -0.271255E-07  0.293E-05    0.63     122.4  T
     SCC iter.                  ...        0 min, 36.127 sec
     gradient                   ...        0 min,  3.240 sec
 * total energy  : -1227.7504864 Eh     change       -0.8647860E-03 Eh
   gradient norm :     0.0097919 Eh/a0  converged?    E=F G=F D=F
   step length   :     0.2810590 a0

........................................................................
.............................. CYCLE   50 ..............................
........................................................................
   1  -1248.3729323 -0.124837E+04  0.285E-03    0.63       0.0  T
   2  -1248.3729343 -0.200736E-05  0.146E-03    0.63       2.5  T
   3  -1248.3729345 -0.125612E-06  0.944E-04    0.63       3.8  T
   4  -1248.3729345 -0.121934E-07  0.544E-04    0.63       6.6  T
   5  -1248.3729350 -0.518996E-06  0.151E-04    0.63      23.8  T
   6  -1248.3729350 -0.477355E-07  0.542E-05    0.63      66.3  T
     SCC iter.                  ...        0 min, 37.648 sec
     gradient                   ...        0 min,  3.446 sec
 * total energy  : -1227.7503536 Eh     change        0.1327855E-03 Eh
   gradient norm :     0.0146045 Eh/a0  converged?    E=F G=F D=F
   step length   :     0.4305853 a0

........................................................................
.............................. CYCLE   51 ..............................
........................................................................
   1  -1248.3790645 -0.124838E+04  0.151E-03    0.63       0.0  T
   2  -1248.3790654 -0.895455E-06  0.102E-03    0.63       3.5  T
   3  -1248.3790657 -0.300718E-06  0.558E-04    0.63       6.4  T
   4  -1248.3790656  0.125614E-06  0.359E-04    0.63      10.0  T
   5  -1248.3790657 -0.187248E-06  0.144E-04    0.63      24.9  T
   6  -1248.3790658 -0.496184E-07  0.295E-05    0.63     121.5  T
     SCC iter.                  ...        0 min, 38.127 sec
     gradient                   ...        0 min,  3.578 sec
 * total energy  : -1227.7511545 Eh     change       -0.8009505E-03 Eh
   gradient norm :     0.0096465 Eh/a0  converged?    E=F G=F D=F
   step length   :     0.3617792 a0

........................................................................
.............................. CYCLE   52 ..............................
........................................................................
   1  -1248.3915844 -0.124839E+04  0.267E-03    0.63       0.0  T
   2  -1248.3915874 -0.306793E-05  0.146E-03    0.63       2.5  T
   3  -1248.3915879 -0.430636E-06  0.907E-04    0.63       4.0  T
   4  -1248.3915878  0.812367E-07  0.525E-04    0.63       6.8  T
   5  -1248.3915881 -0.357531E-06  0.215E-04    0.63      16.7  T
   6  -1248.3915883 -0.125659E-06  0.581E-05    0.63      61.8  T
   7  -1248.3915883 -0.729892E-08  0.176E-05    0.63     203.6  T
     SCC iter.                  ...        0 min, 40.783 sec
     gradient                   ...        0 min,  3.439 sec
 * total energy  : -1227.7513221 Eh     change       -0.1675946E-03 Eh
   gradient norm :     0.0130409 Eh/a0  converged?    E=F G=F D=F
   step length   :     0.6253889 a0

........................................................................
.............................. CYCLE   53 ..............................
........................................................................
   1  -1248.3880304 -0.124839E+04  0.133E-03    0.63       0.0  T
   2  -1248.3880314 -0.979553E-06  0.688E-04    0.63       5.2  T
   3  -1248.3880316 -0.137698E-06  0.396E-04    0.63       9.1  T
   4  -1248.3880316 -0.366026E-08  0.281E-04    0.63      12.8  T
   5  -1248.3880317 -0.118207E-06  0.999E-05    0.63      35.9  T
   6  -1248.3880317 -0.195225E-07  0.329E-05    0.63     109.2  T
     SCC iter.                  ...        0 min, 35.121 sec
     gradient                   ...        0 min,  3.271 sec
 * total energy  : -1227.7520378 Eh     change       -0.7156719E-03 Eh
   gradient norm :     0.0085441 Eh/a0  converged?    E=F G=F D=F
   step length   :     0.5147868 a0

........................................................................
.............................. CYCLE   54 ..............................
........................................................................
   1  -1248.3692454 -0.124837E+04  0.296E-03    0.63       0.0  T
   2  -1248.3692488 -0.345944E-05  0.143E-03    0.63       2.5  T
   3  -1248.3692490 -0.174047E-06  0.900E-04    0.63       4.0  T
   4  -1248.3692490  0.318753E-07  0.590E-04    0.63       6.1  T
   5  -1248.3692497 -0.692293E-06  0.169E-04    0.63      21.2  T
   6  -1248.3692497 -0.565969E-07  0.581E-05    0.63      61.8  T
     SCC iter.                  ...        0 min, 36.153 sec
     gradient                   ...        0 min,  3.211 sec
 * total energy  : -1227.7525354 Eh     change       -0.4975814E-03 Eh
   gradient norm :     0.0143839 Eh/a0  converged?    E=F G=F D=F
   step length   :     1.2068749 a0

........................................................................
.............................. CYCLE   55 ..............................
........................................................................
   1  -1248.3723470 -0.124837E+04  0.144E-03    0.62       0.0  T
   2  -1248.3723482 -0.121152E-05  0.805E-04    0.62       4.5  T
   3  -1248.3723484 -0.223694E-06  0.455E-04    0.62       7.9  T
   4  -1248.3723484 -0.202729E-07  0.357E-04    0.62      10.1  T
   5  -1248.3723487 -0.236338E-06  0.108E-04    0.62      33.3  T
   6  -1248.3723487 -0.138282E-07  0.406E-05    0.62      88.5  T
     SCC iter.                  ...        0 min, 33.960 sec
     gradient                   ...        0 min,  3.224 sec
 * total energy  : -1227.7532239 Eh     change       -0.6885615E-03 Eh
   gradient norm :     0.0130625 Eh/a0  converged?    E=F G=F D=F
   step length   :     0.8332345 a0

........................................................................
.............................. CYCLE   56 ..............................
........................................................................
   1  -1248.3794631 -0.124838E+04  0.181E-03    0.62       0.0  T
   2  -1248.3794647 -0.154721E-05  0.102E-03    0.62       3.5  T
   3  -1248.3794649 -0.249666E-06  0.604E-04    0.62       5.9  T
   4  -1248.3794649 -0.497676E-08  0.454E-04    0.62       7.9  T
   5  -1248.3794653 -0.395667E-06  0.143E-04    0.62      25.0  T
   6  -1248.3794653 -0.325024E-07  0.478E-05    0.62      75.0  T
     SCC iter.                  ...        0 min, 36.847 sec
     gradient                   ...        0 min,  3.369 sec
 * total energy  : -1227.7540499 Eh     change       -0.8259561E-03 Eh
   gradient norm :     0.0116590 Eh/a0  converged?    E=F G=F D=F
   step length   :     2.4220274 a0

........................................................................
.............................. CYCLE   57 ..............................
........................................................................
   1  -1248.3907231 -0.124839E+04  0.181E-03    0.62       0.0  T
   2  -1248.3907242 -0.105406E-05  0.103E-03    0.62       3.5  T
   3  -1248.3907242  0.791488E-09  0.683E-04    0.62       5.3  T
   4  -1248.3907244 -0.245420E-06  0.423E-04    0.62       8.5  T
   5  -1248.3907247 -0.338581E-06  0.135E-04    0.62      26.6  T
   6  -1248.3907248 -0.392524E-07  0.465E-05    0.62      77.2  T
     SCC iter.                  ...        0 min, 35.987 sec
     gradient                   ...        0 min,  3.221 sec
 * total energy  : -1227.7548199 Eh     change       -0.7699876E-03 Eh
   gradient norm :     0.0113138 Eh/a0  converged?    E=F G=F D=F
   step length   :     1.5549660 a0

........................................................................
.............................. CYCLE   58 ..............................
........................................................................
   1  -1248.3863564 -0.124839E+04  0.132E-03    0.62       0.0  T
   2  -1248.3863574 -0.105922E-05  0.690E-04    0.62       5.2  T
   3  -1248.3863576 -0.187590E-06  0.417E-04    0.62       8.6  T
   4  -1248.3863577 -0.113771E-06  0.282E-04    0.62      12.7  T
   5  -1248.3863578 -0.127488E-06  0.970E-05    0.62      37.0  T
   6  -1248.3863579 -0.144460E-07  0.414E-05    0.62      86.6  T
     SCC iter.                  ...        0 min, 33.655 sec
     gradient                   ...        0 min,  3.162 sec
 * total energy  : -1227.7554187 Eh     change       -0.5988325E-03 Eh
   gradient norm :     0.0119392 Eh/a0  converged?    E=F G=F D=F
   step length   :     3.3838847 a0

........................................................................
.............................. CYCLE   59 ..............................
........................................................................
   1  -1248.3859030 -0.124839E+04  0.116E-03    0.62       0.0  T
   2  -1248.3859040 -0.926674E-06  0.673E-04    0.62       5.3  T
   3  -1248.3859043 -0.298372E-06  0.373E-04    0.62       9.6  T
   4  -1248.3859043 -0.620887E-07  0.256E-04    0.62      14.0  T
   5  -1248.3859044 -0.802186E-07  0.104E-04    0.62      34.6  T
   6  -1248.3859044 -0.192533E-07  0.377E-05    0.62      95.2  T
     SCC iter.                  ...        0 min, 36.895 sec
     gradient                   ...        0 min,  3.277 sec
 * total energy  : -1227.7560469 Eh     change       -0.6281738E-03 Eh
   gradient norm :     0.0110480 Eh/a0  converged?    E=F G=F D=F
   step length   :     3.4551964 a0

........................................................................
.............................. CYCLE   60 ..............................
........................................................................
   1  -1248.3914284 -0.124839E+04  0.148E-03    0.63       0.0  T
   2  -1248.3914295 -0.105814E-05  0.937E-04    0.63       3.8  T
   3  -1248.3914296 -0.165828E-06  0.577E-04    0.63       6.2  T
   4  -1248.3914296  0.231237E-07  0.371E-04    0.63       9.7  T
   5  -1248.3914298 -0.240922E-06  0.123E-04    0.63      29.1  T
   6  -1248.3914299 -0.347138E-07  0.420E-05    0.63      85.5  T
     SCC iter.                  ...        0 min, 34.674 sec
     gradient                   ...        0 min,  3.229 sec
 * total energy  : -1227.7566786 Eh     change       -0.6317455E-03 Eh
   gradient norm :     0.0097338 Eh/a0  converged?    E=F G=F D=F
   step length   :     2.8836303 a0

........................................................................
.............................. CYCLE   61 ..............................
........................................................................
   1  -1248.3743728 -0.124837E+04  0.215E-03    0.63       0.0  T
   2  -1248.3743746 -0.175824E-05  0.112E-03    0.63       3.2  T
   3  -1248.3743746 -0.133812E-07  0.668E-04    0.63       5.4  T
   4  -1248.3743746 -0.330749E-07  0.411E-04    0.63       8.7  T
   5  -1248.3743749 -0.340350E-06  0.130E-04    0.63      27.6  T
   6  -1248.3743750 -0.352265E-07  0.447E-05    0.63      80.2  T
     SCC iter.                  ...        0 min, 35.705 sec
     gradient                   ...        0 min,  3.379 sec
 * total energy  : -1227.7570372 Eh     change       -0.3585332E-03 Eh
   gradient norm :     0.0104599 Eh/a0  converged?    E=F G=F D=F
   step length   :     4.7947260 a0

........................................................................
.............................. CYCLE   62 ..............................
........................................................................
   1  -1248.3779320 -0.124838E+04  0.166E-03    0.63       0.0  T
   2  -1248.3779338 -0.184542E-05  0.110E-03    0.63       3.3  T
   3  -1248.3779341 -0.323922E-06  0.639E-04    0.63       5.6  T
   4  -1248.3779339  0.280060E-06  0.459E-04    0.63       7.8  T
   5  -1248.3779343 -0.398286E-06  0.154E-04    0.63      23.3  T
   6  -1248.3779343 -0.568828E-07  0.515E-05    0.63      69.7  T
     SCC iter.                  ...        0 min, 34.941 sec
     gradient                   ...        0 min,  3.237 sec
 * total energy  : -1227.7575922 Eh     change       -0.5550352E-03 Eh
   gradient norm :     0.0091936 Eh/a0  converged?    E=F G=F D=F
   step length   :     2.8689534 a0

........................................................................
.............................. CYCLE   63 ..............................
........................................................................
   1  -1248.3721043 -0.124837E+04  0.151E-03    0.63       0.0  T
   2  -1248.3721066 -0.228469E-05  0.932E-04    0.63       3.8  T
   3  -1248.3721071 -0.551152E-06  0.443E-04    0.63       8.1  T
   4  -1248.3721070  0.838825E-07  0.346E-04    0.63      10.4  T
   5  -1248.3721072 -0.131342E-06  0.153E-04    0.63      23.4  T
   6  -1248.3721072 -0.467455E-07  0.493E-05    0.63      72.9  T
     SCC iter.                  ...        0 min, 34.901 sec
     gradient                   ...        0 min,  3.231 sec
 * total energy  : -1227.7580492 Eh     change       -0.4570042E-03 Eh
   gradient norm :     0.0092999 Eh/a0  converged?    E=F G=F D=F
   step length   :     2.7883314 a0

........................................................................
.............................. CYCLE   64 ..............................
........................................................................
   1  -1248.3871783 -0.124839E+04  0.492E-03    0.62       0.0  T
[...]
   506   6 C      544   1 H                                       1.0779410
   507   6 C      545   1 H                                       1.0783396
   512   6 C      546   1 H                                       1.0780643
   513   6 C      547   1 H                                       1.0777463
   515   7 N      548   1 H                                       1.0145364
   518   6 C      549   1 H                                       1.0847696
   519   6 C      550   1 H                                       1.0823984
   522   6 C      551   1 H                                       1.0957083
   522   6 C      552   1 H                                       1.0904187
   522   6 C      553   1 H                                       1.0894589
   523   6 C      554   1 H                                       1.0955788
   523   6 C      555   1 H                                       1.0893858
   523   6 C      556   1 H                                       1.0905226
   524   6 C      557   1 H                                       1.0823295
   525   6 C      558   1 H                                       1.0846282
   527   6 C      559   1 H                                       1.0779385
   528   6 C      560   1 H                                       1.0783383
   561   6 C      562   6 C                                       1.4093026
   562   6 C      563   6 C                                       1.4180264
   563   6 C      564   6 C                                       1.3689289
   564   6 C      565   6 C                                       1.4206193
   562   6 C      566   7 N                                       1.3626245
   565   6 C      566   7 N                                       1.3697508
   565   6 C      567   6 C                                       1.4017540
   568   6 C      569   6 C                                       1.3962928
   569   6 C      570   6 C                                       1.3827176
   570   6 C      571   6 C                                       1.4033305
   571   6 C      572   7 N                                       1.3910622
   572   7 N      573   6 C                                       1.4635807
   572   7 N      574   6 C                                       1.4630259
   571   6 C      575   6 C                                       1.4032586
   568   6 C      576   6 C                                       1.3961968
   575   6 C      576   6 C                                       1.3827812
   567   6 C      577   6 C                                       1.3968225
   577   6 C      578   6 C                                       1.4513739
   578   6 C      579   6 C                                       1.3496651
   577   6 C      580   7 N                                       1.3620716
   579   6 C      581   6 C                                       1.4488142
   580   7 N      581   6 C                                       1.3482081
   581   6 C      582   6 C                                       1.4100773
   582   6 C      583   6 C                                       1.4093307
   583   6 C      584   6 C                                       1.4180321
   584   6 C      585   6 C                                       1.3689425
   585   6 C      586   6 C                                       1.4206007
   583   6 C      587   7 N                                       1.3626478
   586   6 C      587   7 N                                       1.3697555
   586   6 C      588   6 C                                       1.4017661
   589   6 C      590   6 C                                       1.3962657
   590   6 C      591   6 C                                       1.3827451
   591   6 C      592   6 C                                       1.4033131
   592   6 C      593   7 N                                       1.3911235
   593   7 N      594   6 C                                       1.4630727
   593   7 N      595   6 C                                       1.4635848
   592   6 C      596   6 C                                       1.4032513
   589   6 C      597   6 C                                       1.3962176
   596   6 C      597   6 C                                       1.3827605
   588   6 C      598   6 C                                       1.3968049
   598   6 C      599   6 C                                       1.4513979
   599   6 C      600   6 C                                       1.3496532
   561   6 C      601   6 C                                       1.4100565
   600   6 C      601   6 C                                       1.4488094
   598   6 C      602   7 N                                       1.3620687
   601   6 C      602   7 N                                       1.3481803
   563   6 C      603   1 H                                       1.0780641
   564   6 C      604   1 H                                       1.0777424
   566   7 N      605   1 H                                       1.0145354
   569   6 C      606   1 H                                       1.0847693
   570   6 C      607   1 H                                       1.0823988
   573   6 C      608   1 H                                       1.0893858
   573   6 C      609   1 H                                       1.0905254
   573   6 C      610   1 H                                       1.0955824
   574   6 C      611   1 H                                       1.0904150
   574   6 C      612   1 H                                       1.0957176
   574   6 C      613   1 H                                       1.0894654
   575   6 C      614   1 H                                       1.0823299
   576   6 C      615   1 H                                       1.0846324
   578   6 C      616   1 H                                       1.0779435
   579   6 C      617   1 H                                       1.0783386
   584   6 C      618   1 H                                       1.0780661
   585   6 C      619   1 H                                       1.0777468
   587   7 N      620   1 H                                       1.0145353
   590   6 C      621   1 H                                       1.0847692
   591   6 C      622   1 H                                       1.0823977
   594   6 C      623   1 H                                       1.0957085
   594   6 C      624   1 H                                       1.0904182
   594   6 C      625   1 H                                       1.0894595
   595   6 C      626   1 H                                       1.0955803
   595   6 C      627   1 H                                       1.0893862
   595   6 C      628   1 H                                       1.0905205
   596   6 C      629   1 H                                       1.0823302
   597   6 C      630   1 H                                       1.0846304
   599   6 C      631   1 H                                       1.0779407
   600   6 C      632   1 H                                       1.0783390
   633   6 C      634   6 C                                       1.4093128
   634   6 C      635   6 C                                       1.4180357
   635   6 C      636   6 C                                       1.3689286
   636   6 C      637   6 C                                       1.4206284
   634   6 C      638   7 N                                       1.3626214
   637   6 C      638   7 N                                       1.3697816
   637   6 C      639   6 C                                       1.4017029
   640   6 C      641   6 C                                       1.3962618
   641   6 C      642   6 C                                       1.3827479
   642   6 C      643   6 C                                       1.4033126
   643   6 C      644   7 N                                       1.3911404
   644   7 N      645   6 C                                       1.4636031
   644   7 N      646   6 C                                       1.4630549
   643   6 C      647   6 C                                       1.4032420
   640   6 C      648   6 C                                       1.3962113
   647   6 C      648   6 C                                       1.3827633
   639   6 C      649   6 C                                       1.3968691
   649   6 C      650   6 C                                       1.4513832
   650   6 C      651   6 C                                       1.3496593
   649   6 C      652   7 N                                       1.3620287
   651   6 C      653   6 C                                       1.4487930
   652   7 N      653   6 C                                       1.3482585
   653   6 C      654   6 C                                       1.4100661
   654   6 C      655   6 C                                       1.4093191
   655   6 C      656   6 C                                       1.4180089
   656   6 C      657   6 C                                       1.3689547
   657   6 C      658   6 C                                       1.4206134
   655   6 C      659   7 N                                       1.3626723
   658   6 C      659   7 N                                       1.3697477
   658   6 C      660   6 C                                       1.4017957
   661   6 C      662   6 C                                       1.3962586
   662   6 C      663   6 C                                       1.3827570
   663   6 C      664   6 C                                       1.4033031
   664   6 C      665   7 N                                       1.3911546
   665   7 N      666   6 C                                       1.4630750
   665   7 N      667   6 C                                       1.4635911
   664   6 C      668   6 C                                       1.4032437
   661   6 C      669   6 C                                       1.3962175
   668   6 C      669   6 C                                       1.3827556
   660   6 C      670   6 C                                       1.3967996
   670   6 C      671   6 C                                       1.4514134
   671   6 C      672   6 C                                       1.3496470
   633   6 C      673   6 C                                       1.4100671
   672   6 C      673   6 C                                       1.4488141
   670   6 C      674   7 N                                       1.3620721
   673   6 C      674   7 N                                       1.3481909
   635   6 C      675   1 H                                       1.0780672
   636   6 C      676   1 H                                       1.0777458
   638   7 N      677   1 H                                       1.0145365
   641   6 C      678   1 H                                       1.0847696
   642   6 C      679   1 H                                       1.0824012
   645   6 C      680   1 H                                       1.0893851
   645   6 C      681   1 H                                       1.0905240
   645   6 C      682   1 H                                       1.0955774
   646   6 C      683   1 H                                       1.0904134
   646   6 C      684   1 H                                       1.0957138
   646   6 C      685   1 H                                       1.0894630
   647   6 C      686   1 H                                       1.0823278
   648   6 C      687   1 H                                       1.0846302
   650   6 C      688   1 H                                       1.0779411
   651   6 C      689   1 H                                       1.0783345
   656   6 C      690   1 H                                       1.0780689
   657   6 C      691   1 H                                       1.0777446
   659   7 N      692   1 H                                       1.0145379
   662   6 C      693   1 H                                       1.0847689
   663   6 C      694   1 H                                       1.0824001
   666   6 C      695   1 H                                       1.0957104
   666   6 C      696   1 H                                       1.0904180
   666   6 C      697   1 H                                       1.0894607
   667   6 C      698   1 H                                       1.0955786
   667   6 C      699   1 H                                       1.0893858
   667   6 C      700   1 H                                       1.0905210
   668   6 C      701   1 H                                       1.0823302
   669   6 C      702   1 H                                       1.0846308
   671   6 C      703   1 H                                       1.0779433
   672   6 C      704   1 H                                       1.0783391
   705   6 C      706   6 C                                       1.4092362
   706   6 C      707   6 C                                       1.4180782
   707   6 C      708   6 C                                       1.3688758
   708   6 C      709   6 C                                       1.4207099
   706   6 C      710   7 N                                       1.3626525
   709   6 C      710   7 N                                       1.3698129
   709   6 C      711   6 C                                       1.4016200
   712   6 C      713   6 C                                       1.3962742
   713   6 C      714   6 C                                       1.3827367
   714   6 C      715   6 C                                       1.4033028
   715   6 C      716   7 N                                       1.3912077
   716   7 N      717   6 C                                       1.4636367
   716   7 N      718   6 C                                       1.4630406
   715   6 C      719   6 C                                       1.4032178
   712   6 C      720   6 C                                       1.3961799
   719   6 C      720   6 C                                       1.3827939
   711   6 C      721   6 C                                       1.3969867
   721   6 C      722   6 C                                       1.4514200
   722   6 C      723   6 C                                       1.3496783
   721   6 C      724   7 N                                       1.3618700
   723   6 C      725   6 C                                       1.4487392
   724   7 N      725   6 C                                       1.3484363
   725   6 C      726   6 C                                       1.4098350
   726   6 C      727   6 C                                       1.4092718
   727   6 C      728   6 C                                       1.4180352
   728   6 C      729   6 C                                       1.3689348
   729   6 C      730   6 C                                       1.4206225
   727   6 C      731   7 N                                       1.3628010
   730   6 C      731   7 N                                       1.3696653
   730   6 C      732   6 C                                       1.4018468
   733   6 C      734   6 C                                       1.3962328
   734   6 C      735   6 C                                       1.3827762
   735   6 C      736   6 C                                       1.4032761
   736   6 C      737   7 N                                       1.3912634
   737   7 N      738   6 C                                       1.4631207
   737   7 N      739   6 C                                       1.4635825
   736   6 C      740   6 C                                       1.4032212
   733   6 C      741   6 C                                       1.3961785
   740   6 C      741   6 C                                       1.3827829
   732   6 C      742   6 C                                       1.3966937
   742   6 C      743   6 C                                       1.4514533
   743   6 C      744   6 C                                       1.3496451
   705   6 C      745   6 C                                       1.4101231
   744   6 C      745   6 C                                       1.4488304
   742   6 C      746   7 N                                       1.3621333
   745   6 C      746   7 N                                       1.3481090
   707   6 C      747   1 H                                       1.0780698
   708   6 C      748   1 H                                       1.0777503
   710   7 N      749   1 H                                       1.0145235
   713   6 C      750   1 H                                       1.0847732
   714   6 C      751   1 H                                       1.0824043
   717   6 C      752   1 H                                       1.0893840
   717   6 C      753   1 H                                       1.0905254
   717   6 C      754   1 H                                       1.0955761
   718   6 C      755   1 H                                       1.0904077
   718   6 C      756   1 H                                       1.0957219
   718   6 C      757   1 H                                       1.0894676
   719   6 C      758   1 H                                       1.0823284
   720   6 C      759   1 H                                       1.0846287
   722   6 C      760   1 H                                       1.0779449
   723   6 C      761   1 H                                       1.0783502
   728   6 C      762   1 H                                       1.0780610
   729   6 C      763   1 H                                       1.0777492
   731   7 N      764   1 H                                       1.0145308
   734   6 C      765   1 H                                       1.0847754
   735   6 C      766   1 H                                       1.0824017
   738   6 C      767   1 H                                       1.0957044
   738   6 C      768   1 H                                       1.0904163
   738   6 C      769   1 H                                       1.0894591
   739   6 C      770   1 H                                       1.0955922
   739   6 C      771   1 H                                       1.0893925
   739   6 C      772   1 H                                       1.0905172
   740   6 C      773   1 H                                       1.0823312
   741   6 C      774   1 H                                       1.0846276
   743   6 C      775   1 H                                       1.0779442
   744   6 C      776   1 H                                       1.0783462

 * 4 distinct bonds (by element types)

   Z      Z             #   av. dist./Å        max./Å        min./Å
   1 H    6 C         282     1.0855348     1.0957437     1.0777424
   6 C    6 C         345     1.3882446     1.4516540     1.2245080
   1 H    7 N          20     1.0145553     1.0147218     1.0145206
   6 C    7 N         140     1.3943807     1.4636809     1.3480365


optimized geometry written to: xtbopt.xyz


           -------------------------------------------------
          | TOTAL ENERGY            -1227.765460092928 Eh   |
          | GRADIENT NORM               0.000519081471 Eh/α |
          | HOMO-LUMO GAP               0.625943815231 eV   |
           -------------------------------------------------

------------------------------------------------------------------------
 * finished run on 2022/07/29 at 01:04:11.625     
------------------------------------------------------------------------
 total:
 * wall-time:     0 d,  2 h, 21 min,  0.204 sec
 *  cpu-time:     0 d,  2 h, 20 min,  3.919 sec
 * ratio c/w:     0.993 speedup
 SCF:
 * wall-time:     0 d,  0 h,  3 min, 19.321 sec
 *  cpu-time:     0 d,  0 h,  3 min, 18.055 sec
 * ratio c/w:     0.994 speedup
 ANC optimizer:
 * wall-time:     0 d,  2 h, 17 min, 39.560 sec
 *  cpu-time:     0 d,  2 h, 16 min, 44.630 sec
 * ratio c/w:     0.993 speedup

