776
 energy: -1227.765460092928 gnorm: 0.000519081471 xtb: 6.5.1 (b24c23e)
C          150.78748068177742       -0.01806536810080        0.07241672334697
C          151.39533353384098       -0.15158104457393        1.31461732655178
C          150.74110964628011       -0.25859889268824        2.57321634443764
C          151.70158475333051       -0.38459821945740        3.53803959874170
C          152.97308746423764       -0.37146856590051        2.89830263361722
N          152.73777560039531       -0.21683168440568        1.56131923826965
C          154.23562978894014       -0.47891785524784        3.49605947152665
C          154.26582585472732       -0.68061165994685        4.96211040604577
C          154.93346007541643        0.21672954180740        5.79772463483676
C          154.95589014210714        0.03945479025838        7.16899522866092
C          154.31172446684624       -1.05500572516598        7.76559119791382
N          154.37911318329265       -1.27138491862581        9.13869323830120
C          154.74582882208171       -0.13421226730380        9.98309288685455
C          153.36846977976614       -2.14982827079558        9.72958649982049
C          153.65592087047895       -1.96486046184130        6.92239834059525
C          153.62949512331582       -1.77381632062753        5.55297086906052
C          155.44961084989959       -0.41017974069357        2.80686793546223
C          156.74687271716749       -0.60193587363970        3.42900720736903
C          157.66596957490998       -0.45351423269071        2.45201309050357
N          155.60219047429621       -0.17576498311866        1.47371982777925
C          156.92864076766190       -0.18355083877310        1.23357177339651
C          157.56514213132741        0.04275748897075       -0.00457998367902
C          156.92994043394285        0.25635193574239       -1.24357107801928
C          157.57562269386224        0.52492569426948       -2.47879322346437
C          156.61068526563582        0.65678559007167       -3.43942845070347
C          155.34539776640494        0.46135088650773       -2.82087913842384
N          155.59028293041234        0.23345047637670       -1.49174488260846
C          154.08485647572934        0.50973016898181       -3.42819414032505
C          154.05388359286098        0.72727639228705       -4.89106962061579
C          153.36681989411085        1.81027273794552       -5.44313440490123
C          153.34476725299524        2.02534295144751       -6.80894150533204
C          154.00856818706313        1.15531029686247       -7.68720686703639
N          153.94363659380801        1.33290378026866       -9.06564352513246
C          154.97149481988509        0.67731255310840       -9.87562443096550
C          153.54996783385241        2.65312028538490       -9.55814598654311
C          154.68294086952230        0.05720732241408       -7.13167091416899
C          154.70919111608532       -0.14376845389732       -5.76386960043888
C          152.86967403057596        0.36833623906967       -2.74675518497314
C          151.56665702192350        0.34950711286982       -3.39219413164491
C          150.65436107812963        0.20681541995769       -2.40911095650247
C          151.39937493331161        0.12422982390787       -1.16595657776802
N          152.73058322626073        0.21365511312623       -1.40890147001729
H          149.70201043508783       -0.02758723545503        0.08056165776598
H          149.67176543224738       -0.23295492676968        2.71082994666034
H          151.54705317337695       -0.46841298482490        4.60158276376947
H          153.46546116026141       -0.15286434542674        0.85724369763051
H          155.42414730950540        1.08290769409974        5.36713149514954
H          155.48487770952016        0.76808735688137        7.76960214166506
H          154.07376283113365        0.71699218179077        9.82678446364758
H          154.69762978802672       -0.44040482455835       11.02754518517485
H          155.77098691720076        0.16701229631817        9.76562761567844
H          152.35404954142840       -1.81921150599838        9.48051396749289
H          153.51565289969378       -3.16989604312534        9.37317427787973
H          153.48881570780523       -2.14912441044290       10.81231437781314
H          153.16400198760292       -2.84039151484261        7.32628973541489
H          153.12605074599361       -2.50235811483940        4.92640692993294
H          156.91132043146314       -0.83698139347981        4.46810959659725
H          158.73960397311998       -0.52614136749633        2.52172662836588
H          158.64266461740399        0.61233234945853       -2.60572848878654
H          156.76030469925783        0.88293600578047       -4.48254930540037
H          154.86665256077492        0.08263219894577       -0.79656646530678
H          152.86203313526559        2.51213186971557       -4.78809955996883
H          152.80143706527306        2.88386228901314       -7.18204923803406
H          154.85090922781512        0.98218831560937      -10.91449869428863
H          155.97900557872546        0.94357171011523       -9.53754002503855
H          154.84504085930996       -0.40459414388866       -9.82325985586611
H          152.51951950886010        2.85946794103776       -9.26732526093436
H          153.60072308234609        2.65310497530115      -10.64643191777513
H          154.20461106267237        3.44035654615210       -9.16787120106026
H          155.19014196429455       -0.66012085891852       -7.76399060956943
H          155.22772438361434       -1.00943465259024       -5.36575600835855
H          151.39694908348292        0.41886484238005       -4.45466624981575
H          149.57989755467898        0.14839186029284       -2.48800678150775
C          301.64115046482698       -0.00076392804038       -0.09498650914182
C          301.03350779804271        0.15520545600863       -1.33467642281905
C          301.68781159739655        0.34330321006503       -2.58368681799565
C          300.72751262876125        0.44107300600825       -3.55196104280296
C          299.45608177095949        0.30275515576126       -2.92707260137975
N          299.69120088132189        0.14537576329211       -1.59037397285538
C          298.19368862406617        0.33171893182344       -3.53405818704409
C          298.16338639797016        0.47394347624765       -5.00702362050357
C          297.49114786605151        1.53729585015540       -5.61255198899434
C          297.46874819260188        1.68226566746188       -6.98759190130862
C          298.11765633872534        0.75869339841224       -7.82104849433459
N          298.05077510655332        0.86596711266182       -9.20697111412081
C          297.67777507318499        2.16592258917342       -9.76523084642355
C          299.06584672804394        0.15364651239323       -9.98444925672474
C          298.77791139309761       -0.31877267152861       -7.21109921754298
C          298.80421872933630       -0.44992415712521       -5.83463352965024
C          296.97974770784839        0.23595538506568       -2.84797728738870
C          295.68297719106494        0.18673844235301       -3.49810668254093
C          294.76362607652283        0.10568336003982       -2.51345149075002
N          296.82673384634012        0.15954724966793       -1.49659492148971
C          295.50033536399928        0.09374784609017       -1.26515679099704
C          294.86343373055274        0.03428335994683       -0.00806088409345
C          295.49844056843995       -0.03754970889587        1.24722640143643
C          294.85262413695449       -0.05730207097931        2.51107076312469
C          295.81738238990499       -0.14963365604255        3.47649765735814
C          297.08264829825367       -0.20022327655349        2.82973933903990
N          296.83800001913835       -0.11774288369199        1.48371077821930
C          298.34296007683946       -0.29452942310304        3.43212643565984
C          298.37334861225293       -0.42063542336893        4.90568935870749
C          299.06180498473213        0.50414500749172        5.69341118390893
C          299.08365952703855        0.39723234975329        7.07191563364233
C          298.41827781993408       -0.65144914823835        7.72497505725577
N          298.48326570626972       -0.79800028657760        9.10703831596890
C          297.45455725623850       -1.62207482428979        9.74343075802708
C          298.87887616867187        0.37162269082605        9.89186596862810
C          297.74221784704309       -1.58996852932094        6.93039569915708
C          297.71616539810782       -1.46885679856408        5.55323398247538
C          299.55828895224738       -0.27632315380654        2.73666591625210
C          300.86113488354152       -0.44393198392950        3.36059951930471
C          301.77368359179565       -0.35563301776585        2.37137625385602
C          301.02897570146206       -0.14895733531550        1.14255994551349
N          299.69769902200619       -0.11819964926534        1.39924491111670
H          302.72663267547546       -0.00667256863514       -0.10471002852294
H          302.75706440413114        0.40274925057753       -2.71119005105333
H          300.88213639091919        0.60553736472771       -4.60603343382794
H          298.96346395860263        0.04343342060181       -0.89084283773263
H          296.99678959158535        2.27799639629958       -4.99334414098250
H          296.93613054832986        2.52776055292088       -7.40341631901366
H          298.34568367804371        2.96115901721991       -9.41573607219232
H          297.72675657504965        2.11017314505214      -10.85217638474188
H          296.65127854694327        2.40341657253377       -9.48439169786335
H          300.07857165444995        0.42255606755768       -9.66434969701493
H          298.92395970395194       -0.92200665102102       -9.87457368350472
H          298.94539724836102        0.40492351919219      -11.03760296019393
H          299.27348423152114       -1.07478586437302       -7.80652019785311
H          299.31118314047274       -1.30154726731415       -5.39356929558107
H          295.51909425050241        0.19398787830425       -4.56352766547448
H          293.69021680744044        0.04744025743498       -2.59843444372448
H          293.78562409277293       -0.00005029741923        2.65449401276749
H          295.66770078103320       -0.16766468064013        4.54369268625329
H          297.56166322678467       -0.10679980955479        0.77248046621373
H          299.56789587281099        1.33776863017707        5.21861930928858
H          299.62816169261174        1.14522824060979        7.63360394817716
H          297.57561624226531       -1.56639349902389       10.82463158326350
H          296.44738830577069       -1.28340023377480        9.47662424191789
H          297.57953218968368       -2.66256483605532        9.44173828340345
H          299.90968997567632        0.63814365210287        9.65655234775521
H          298.82793244697518        0.11961476387875       10.95056300846793
H          298.22551043931986        1.22885134506293        9.69466981343624
H          297.23357374656081       -2.43329949191760        7.37951941154089
H          297.19632326304099       -2.21796982333154        4.96557214495407
H          301.03060370625525       -0.62188211056477        4.41039471117917
H          302.84813033493145       -0.43069788875638        2.43492076950417
C          162.76612183278405        0.12129718008646       -0.05049461083624
C          161.53735033835403        0.10035813348266       -0.04254540287749
C          160.19403266449567        0.08038199883717       -0.03299966630765
C          158.96976245969645        0.06146815110001       -0.01802565775961
C          164.10926227837490        0.14413388173099       -0.05353304494015
C          165.33375900094867        0.16540241898782       -0.05667380817482
C          178.78355928252131        0.22265511033289       -0.00368455202270
C          177.55433322288354        0.22791774387274       -0.00378946159832
C          176.21142546493414        0.23329837052993       -0.00653020230258
C          174.98658955170256        0.23801990398477       -0.00688142176232
C          180.12647300063875        0.21792712018626       -0.00303248135974
C          181.35130635176827        0.21407914090424       -0.00524605964327
C          194.79979075172056        0.17939661921814        0.00184558476357
C          193.57057840672749        0.17951899888067        0.00586904639311
C          192.22771782881080        0.18131721467729        0.00702467889348
C          191.00289572372660        0.18457537196531        0.01183613142313
C          196.14265226083489        0.18048242644108       -0.00103222320297
C          197.36748208018329        0.18224626407995       -0.00533609187552
C          210.81484536223610        0.18202502443971       -0.00270264768199
C          209.58562494354658        0.18301534280535        0.00197052716813
C          208.24279897360066        0.18455686100404        0.00428494627787
C          207.01799896376076        0.18789043107632        0.00890304731171
C          212.15769218863650        0.18172602824724       -0.00390962823726
C          213.38251581234789        0.18410873932457       -0.00842008486751
C          226.82922066023784        0.17899529441471       -0.00173940141238
C          225.60002948370641        0.17846313501197        0.00226840661671
C          224.25721011411119        0.18008237344157        0.00324746082426
C          223.03240329652738        0.18252963856160        0.00792175256240
C          228.17205497371526        0.17997064873701       -0.00368389017040
C          229.39686243932354        0.18243813459396       -0.00824809197275
C          242.84363599874379        0.18320704412989       -0.00208156163929
C          241.61445810193453        0.18301110082460        0.00244972493795
C          240.27163894378640        0.18306657810087        0.00543370954330
C          239.04682435880727        0.18502756712981        0.00928940761556
C          244.18646937920735        0.18349849291933       -0.00386015569171
C          245.41128054446338        0.18655490556462       -0.00808282420767
C          258.85845125905166        0.18097304054492       -0.00519205343097
C          257.62923625322293        0.18166893195604       -0.00124023809093
C          256.28636830089550        0.18238543597112        0.00065840895877
C          255.06154417162384        0.18505970164711        0.00526540691804
C          260.20131387577948        0.18298175316079       -0.00756219808801
C          261.42613871703992        0.18570726060064       -0.01183223096247
C          274.87431486611359        0.22513010039882        0.00582397616067
C          273.64509580172768        0.22225163693028        0.00578077344862
C          272.30219049259784        0.21838889645805        0.00489036403732
C          271.07735558303096        0.21582728441076        0.00703577543113
C          276.21722186503769        0.22791894788538        0.00887729469298
C          277.44205767388877        0.23065524960538        0.00945611572439
C          290.89122788510974        0.08403213364758        0.03564180795141
C          289.66244258149976        0.10265936473127        0.04773945032670
C          288.31933743395894        0.12616578125758        0.05432513200337
C          287.09479471466005        0.14510178488027        0.05761768170419
C          292.23452147048715        0.06402532913877        0.02500395241901
C          293.45882700271068        0.04820547122815        0.00895334498120
C          166.73735966194263        0.18698388491997       -0.04985015078131
C          167.35633865749998        0.10857340813049        1.21375764185352
C          166.69907741661365       -0.02798776343686        2.46282159484760
C          167.65518696626884       -0.03732853757238        3.44249380244599
C          168.92373283877160        0.10402711284059        2.81881349546696
N          168.69308063720894        0.17469426083882        1.47057783418715
C          170.17691848669986        0.15232501526465        3.44523134065551
C          170.17829300919709        0.12058767591046        4.92515001678641
C          169.50078573576144        1.09028630877100        5.66690523480632
C          169.49929314267274        1.06413856607060        7.04941644080683
C          170.16641848344321        0.04958647490894        7.75284805182791
N          170.20355557614806        0.04733252658437        9.14360039593835
C          169.16228999484781        0.80014329610868        9.84438477148903
C          170.58445357698105       -1.20036783714674        9.80607121513158
C          170.85201718623418       -0.92008243174513        7.00535849339709
C          170.85811400081440       -0.87936283359026        5.62318515787913
C          171.40403812425740        0.22580434067972        2.78225932788811
C          172.68320154534933        0.34862970204769        3.45705835468109
C          173.62570914123634        0.36685368365612        2.49118365482271
N          171.58891136099086        0.20078728874600        1.43296024818283
C          172.91983585720055        0.26941274660235        1.22969935806814
C          173.58320765471632        0.23991392080105       -0.01430541875943
C          172.96521663256280        0.21293416386739       -1.28053034234197
C          173.62424639029237        0.14435844813321       -2.53428991502032
C          172.66810236868045        0.16389033779659       -3.51370259165031
C          171.39750987202299        0.25597788456903       -2.88478026298916
N          171.62763001157032        0.26944390023801       -1.53449815308423
C          170.14350176465837        0.31121720569521       -3.50846673980048
C          170.14136664596975        0.34237480455206       -4.98834461539469
C          170.80359230780894        1.35226595913953       -5.68916346990570
C          170.80505542594261        1.38321161317211       -7.07156592712373
C          170.15346622761271        0.38839461618406       -7.81658140203316
N          170.11666481034459        0.44329439777169       -9.20621646151825
C          169.74873826650762       -0.77942483505326       -9.92042974784894
C          171.15032095228671        1.23544261458993       -9.87427230754926
C          169.48280677899373       -0.62157699303841       -7.11004809757705
C          169.47652727268158       -0.63802604247985       -5.72739024460495
C          168.91547223960063        0.33590241945862       -2.84288468962985
C          167.63441448258706        0.46966951498400       -3.51193584146510
C          166.69200072771568        0.43017327550673       -2.54654810881724
C          167.39951768671853        0.28597745670337       -1.29058300887923
N          168.73160330220642        0.24706695946265       -1.49644087869615
H          165.63174695534869       -0.11398742539713        2.58785289617020
H          167.49604594689504       -0.14532007309773        4.50294689150307
H          169.42000344006283        0.25548625181999        0.76749769721252
H          168.98626731008949        1.89445872144816        5.15181449974973
H          168.97560863313956        1.85205202338096        7.57528518429027
H          169.26536788868654        0.63265863892834       10.91587937202919
H          169.28998660410542        1.86637147729544        9.65444576858760
H          168.16048028012972        0.49043760404976        9.52691827081808
H          171.62162572312607       -1.43876777086041        9.56847931165047
H          169.93918383192423       -2.03159267730494        9.50068549115293
H          170.50685278370790       -1.06531530906811       10.88433812594168
H          171.39134948389571       -1.72048872720844        7.49516775057468
H          171.38060514828499       -1.65388528731807        5.07224801252093
H          172.82059288408999        0.42799273459255        4.52326145742554
H          174.69578501349343        0.44930473818052        2.59592559082858
H          174.69280325015768        0.08143523114522       -2.66260263360230
H          172.82872156660170        0.10666761122697       -4.57787891463579
H          170.89974906121864        0.30562820558282       -0.82871355986830
H          171.30569770937780        2.14239386484235       -5.14114786634291
H          171.31618789647652        2.20018795827581       -7.56441206590645
H          170.40490567621859       -1.61513080616869       -9.65277325540615
H          168.71526797633561       -1.04025680891900       -9.69045661798983
H          169.82119133970338       -0.59730778404096      -10.99212104858154
H          172.15499185764776        0.92573113568763       -9.56605340074143
H          171.05202300711801        1.10846054989616      -10.95175496972590
H          171.00924567703061        2.29188188982172       -9.64344138930140
H          168.95584501232688       -1.40942104195255       -7.63258149742567
H          168.96623785747039       -1.44262332233366       -5.20908029331094
H          167.49556838472981        0.59504788027345       -4.57352621817943
H          165.62075349993756        0.50095358525123       -2.64780719421045
C          182.75472630764003        0.21001844284745       -0.00229054302141
C          183.37652559507097        0.13130588709435        1.25999373984595
C          182.72110899400477        0.01000335554110        2.51157092390580
C          183.68018033985550       -0.01348971181714        3.48813179259831
C          184.94885495306204        0.10489497744697        2.85996880182241
N          184.71490812321983        0.17597208100199        1.51222373386989
C          186.20492093500667        0.13471570830326        3.48160696790282
C          186.21244320058702        0.10106654855030        4.96140777641459
C          185.55126445152746        1.07801469309849        5.70836857239285
C          185.55599224051861        1.04887522476300        7.09080886283626
C          186.21316612217936        0.02422370292557        7.78900781473402
N          186.25666846102524        0.01867601137317        9.17946705479810
C          185.22718307748298        0.78165186339154        9.88666162064948
C          186.62761335313294       -1.23406126322070        9.83798238565305
C          186.88268551791438       -0.95261500896369        7.03626484738404
C          186.88272422395806       -0.90898397013691        5.65419755416825
C          187.43037275189064        0.19312036305002        2.81381349685272
C          188.71301890695847        0.30432008479136        3.48394802862821
C          189.65201666887097        0.31616814074530        2.51456749468376
N          187.61002221292586        0.16633224252654        1.46390708786248
C          188.94077490078425        0.22445033678862        1.25569388637558
C          189.59952804613442        0.18892421320143        0.00946573455458
C          188.97741952754237        0.15740506474346       -1.25470941600087
C          189.63227579155881        0.07552627825011       -2.50981261887666
C          188.67321409207381        0.09149336010556       -3.48649302665695
C          187.40517553273253        0.19558523792313       -2.85448275884743
N          187.63939916994690        0.21868689843483       -1.50507544645171
C          186.14945556514900        0.25413201693626       -3.47455332354827
C          186.14200006272250        0.27164848730884       -4.95464425525431
C          186.80840059892998        1.27044199233402       -5.66728005856668
C          186.80377318831836        1.28924991363853       -7.04989402251559
C          186.14146218656475        0.29279603792595       -7.78317807763635
N          186.09813405433275        0.33584092390485       -9.17297448886230
C          185.72003485154616       -0.89097372491679       -9.87476220803383
C          187.13199583700916        1.11716903027059       -9.85324737760449
C          185.46689300795967       -0.70615399628906       -7.06474360407885
C          185.46674384656825       -0.71038745641014       -5.68198882858282
C          184.92425043624254        0.29675410236833       -2.80500954895382
C          183.64241217216031        0.43817910817240       -3.47090021719737
C          182.70336853907114        0.42267436216434       -2.50160524138079
C          183.41385135189466        0.28406481989845       -1.24661672952130
N          184.74432260985060        0.22510907454977       -1.45682570698112
H          181.65288578566521       -0.05768249468377        2.64021531674848
H          183.52262408281436       -0.11629594822439        4.54932973071934
H          185.44091019615507        0.24232455426944        0.80667164397218
H          185.04518869613881        1.89017556292136        5.19748113678147
H          185.04529065785869        1.84247783878587        7.62087320777092
H          185.33250595368233        0.60976761629496       10.95723449794751
H          185.36662982568558        1.84687012230041        9.69932040487216
H          184.22057645968005        0.48466740267988        9.57227133251306
H          187.66064674238254       -1.48359274825665        9.59387448966601
H          185.97136510276908       -2.05769030407591        9.53540702720719
H          186.55796177105404       -1.09961762047822       10.91686892178641
H          187.41391730634081       -1.76100048187908        7.52179773882866
H          187.39264417128032       -1.68892176692215        5.09912766384104
H          188.85497535079026        0.38176459837662        4.54969159486612
H          190.72309901641088        0.38985242227093        2.61541448083951
H          190.70009175217081        0.00602125386076       -2.64083695791501
H          188.83026315611588        0.02455066828936       -4.55063147590013
H          186.91374156010070        0.26500282643856       -0.79757453522441
H          187.31859223271564        2.06175669148253       -5.12853110933604
H          187.31861422566567        2.09811461356188       -7.55215556760323
H          186.37211570607030       -1.72821110300493       -9.60197928378623
H          184.68587457248688       -1.14344662580822       -9.63860165813137
H          185.78956544678769       -0.71901320201846      -10.94831811744490
H          188.13685020683678        0.80423590533080       -9.54889184039951
H          187.02632975877407        0.98267010213483      -10.92912132762839
H          186.99810486939296        2.17606392026799       -9.62951216690913
H          184.93176566919738       -1.49460435265843       -7.57798561422888
H          184.95274520684336       -1.50646095268199       -5.15426272098052
H          183.50107970257301        0.55247550869029       -4.53340553621549
H          181.63276166683809        0.50602621311516       -2.59987961278418
C          198.77086806659116        0.18559173240320       -0.00328276146373
C          199.39328136444601        0.11066791703671        1.25893859986836
C          198.73855227668392       -0.01231420814669        2.51073577975441
C          199.69776626963471       -0.02947411752272        3.48727142667047
C          200.96577735005940        0.09429847523967        2.85883066859911
N          200.73141343995727        0.16231055868962        1.51099425805585
C          202.22172014092365        0.13074663380302        3.48030818872718
C          202.22939741531812        0.10059824838769        4.96015986911844
C          201.56408411883814        1.07673959767869        5.70451772938906
C          201.56897048346767        1.05136878457994        7.08701883651837
C          202.23047295413210        0.03137193946391        7.78795195035420
N          202.27419443509334        0.02982966820016        9.17838110617829
C          201.24218101713402        0.79107831808770        9.88373036978038
C          202.65008521695594       -1.21959340066163        9.84036883318415
C          202.90391020960368       -0.94478332559617        7.03780461123045
C          202.90377517785498       -0.90486980017898        5.65562315609834
C          203.44675340188454        0.19247029746940        2.81206603248093
C          204.72932997909038        0.30859933984099        3.48144559718055
C          205.66788014473687        0.32116017291841        2.51163523144691
N          203.62585464822331        0.16404416334548        1.46212006510264
C          204.95633188632976        0.22553469528090        1.25322564897659
C          205.61465885500365        0.19053115113557        0.00676720596175
C          204.99241465919661        0.15837690715074       -1.25731053746918
C          205.64735328661786        0.07985226095649       -2.51258670832306
C          204.68816669821931        0.09492799162767       -3.48916201762205
C          203.41994797191995        0.19469939935771       -2.85685748184121
N          203.65421460800187        0.21655157207347       -1.50746475968615
C          202.16396740277011        0.24998480226546       -3.47674944245347
C          202.15655645141649        0.27083136491606       -4.95677023616657
C          202.81947094315342        1.27373773765403       -5.66688750364390
C          202.81448878357921        1.29618368017459       -7.04943308468554
C          202.15496628501933        0.29972839563948       -7.78526276521059
N          202.11142445040690        0.34635908351313       -9.17491527080335
C          201.73703926430190       -0.87968708723541       -9.88001665532950
C          203.14273718738013        1.13277926968887       -9.85320502133877
C          201.48358257071138       -0.70322935377007       -7.06937477759443
C          201.48476623624052       -0.71167875181485       -5.68663428035763
C          200.93876352666595        0.28624196424785       -2.80685145891277
C          199.65596888913450        0.42267108116311       -3.47195928467504