177
 energy: -316.757465003262 gnorm: 0.463952936469 xtb: 6.5.1 (b24c23e)
Fe          35.62344100000000       -0.01609500000000       -0.00677300000000
C           32.28544400000000        0.10706100000000        0.06530500000000
C           32.94741900000000        1.25650500000000        0.22622700000000
C           32.29654900000000        2.55381200000000        0.36340200000000
C           33.23651800000000        3.46447000000000        0.53608900000000
C           34.54159499999999        2.78905400000000        0.53009300000000
N           34.36480900000000        1.38703600000000        0.32300800000000
C           35.73352900000000        3.39490800000000        0.71174700000000
C           35.78273900000000        4.85337300000000        0.96401700000000
C           35.30005999999999        5.38251500000000        2.17172500000000
C           35.36301400000000        6.75836200000000        2.41220900000000
C           35.91384900000000        7.61490600000000        1.45054800000000
C           35.97986100000000        9.03112900000000        1.69926200000000
N           36.03292000000000       10.16970400000000        1.89930800000000
C           36.40295700000000        7.08990300000000        0.24761500000000
C           36.33964000000000        5.71424700000000        0.00582100000000
C           37.02496200000000        2.65918300000000        0.68023100000000
C           38.30830300000000        3.24426300000000        1.08752400000000
C           39.24310500000000        2.33436900000000        0.90271400000000
N           37.16799100000000        1.43733800000000        0.26664000000000
C           38.56332100000000        1.15663400000000        0.37753000000000
C           39.15788100000000        0.01460000000000       -0.00424200000000
C           38.39466800000000       -1.14549200000000       -0.51566900000000
C           38.92558600000000       -2.13801100000000       -1.21852500000000
C           37.88297000000000       -3.12380800000000       -1.42802000000000
C           36.78506200000000       -2.66991500000000       -0.83450500000000
N           37.01845800000000       -1.39659000000000       -0.23059900000000
C           35.50656800000000       -3.42125100000000       -0.74838300000000
C           35.52982700000000       -4.88679000000000       -0.97592600000000
C           34.84565600000000       -5.45083300000000       -2.06537000000000
C           34.88753799999999       -6.83083000000000       -2.28573400000000
C           35.61919300000000       -7.65770500000000       -1.42412900000000
C           35.66320799999999       -9.07826900000000       -1.65216500000000
N           35.69863200000000      -10.22035100000000       -1.83542100000000
C           36.31092400000000       -7.09875600000000       -0.34221200000000
C           36.26900700000000       -5.71892900000000       -0.12049300000000
C           34.34424700000000       -2.80211700000000       -0.46570000000000
C           33.03695900000000       -3.43988400000000       -0.31872100000000
C           32.17497800000000       -2.46493200000000       -0.10332500000000
C           32.92318700000000       -1.20895300000000       -0.09841600000000
N           34.18821300000000       -1.39327400000000       -0.30866900000000
H           31.20208400000000        0.13488700000000        0.05594900000000
H           31.23319800000000        2.75295300000000        0.32619500000000
H           33.04848300000000        4.52322500000000        0.65735000000000
H           34.87775400000000        4.72873700000000        2.92499600000000
H           34.98493000000000        7.15341700000000        3.34751100000000
H           36.83378600000000        7.74304900000000       -0.50172600000000
H           36.72268600000000        5.31901700000000       -0.92705900000000
H           38.47897100000000        4.24036500000000        1.47430700000000
H           40.29688300000000        2.46636600000000        1.10893800000000
H           39.95135499999999       -2.21841000000000       -1.55255800000000
H           37.99208399999999       -4.06626500000000       -1.94889100000000
H           34.28430200000000       -4.82078300000000       -2.74440200000000
H           34.35281400000000       -7.25206400000000       -3.12859200000000
H           36.88284500000000       -7.72875200000000        0.32846100000000
H           36.80937600000000       -5.29836200000000        0.71882000000000
H           32.79536300000000       -4.49335100000000       -0.36985200000000
H           31.11035900000000       -2.58780900000000        0.04652500000000
Fe          58.83071099999999        0.04511300000000       -0.00843100000000
C           62.16870800000000       -0.07396000000000        0.07020900000000
C           61.50673400000000       -1.21300700000000        0.29312200000000
C           62.15760399999999       -2.50098500000000        0.50032700000000
C           61.21763500000000       -3.40095900000000        0.72206000000000
C           59.91255800000000       -2.72685800000000        0.67950800000000
N           60.08934399999999       -1.33810600000000        0.39682700000000
C           58.72062399999999       -3.32198900000000        0.89369400000000
C           58.67141400000000       -4.76465800000000        1.22455100000000
C           59.15409200000000       -5.22764400000000        2.45913300000000
C           59.09113900000000       -6.58845400000000        2.77374900000000
C           58.54030299999999       -7.49580300000000        1.85986800000000
C           58.47429100000000       -8.89648500000000        2.18488600000000
N           58.42123200000000      -10.02256100000000        2.44627800000000
C           58.05119500000000       -7.03669300000000        0.63027700000000
C           58.11451300000000       -5.67614400000000        0.31436500000000
C           57.42919100000000       -2.58905000000000        0.82239500000000
C           56.14584899999999       -3.15122200000000        1.26076600000000
C           55.21104800000000       -2.25266700000000        1.02696800000000
N           57.28616200000000       -1.39138700000000        0.34326400000000
C           55.89083100000000       -1.10509100000000        0.43879600000000
C           55.29627099999999        0.01460000000000       -0.00424200000000
C           56.05948400000000        1.14530400000000       -0.57772200000000
C           55.52856599999999        2.09831700000000       -1.33327900000000
C           56.57118300000000        3.07132700000000       -1.59583400000000
C           57.66909000000000        2.65023100000000       -0.97861700000000
N           57.43569500000000        1.41146700000000       -0.30666400000000
C           58.94758400000000        3.40512800000000       -0.93329700000000
C           58.92432600000000        4.85619900000000       -1.23984400000000
C           59.60849600000000        5.36043600000000       -2.35822700000000
C           59.56661400000000        6.72648000000000       -2.65297600000000
C           58.83496000000000        7.59878700000000       -1.83739700000000
C           58.79094400000000        9.00492200000000       -2.14200400000000
N           58.75551999999999       10.13540900000000       -2.38681900000000
C           58.14322800000000        7.09922900000000       -0.72680800000000
C           58.18514500000000        5.73342800000000       -0.43071500000000
C           60.10990499999999        2.80220500000000       -0.61751000000000
C           61.41719399999999        3.44699400000000       -0.50527300000000
C           62.27917500000000        2.48513200000000       -0.23741300000000
C           61.53096500000000        1.23126100000000       -0.16451700000000
N           60.26593900000000        1.40392900000000       -0.38444000000000
H           63.25206799999999       -0.10225200000000        0.06237200000000
H           63.22095400000000       -2.70184800000000        0.47395500000000
H           61.40566999999999       -4.45159700000000        0.90046000000000
H           59.57639799999999       -4.53404500000000        3.17590700000000
H           59.46922199999999       -6.93229600000000        3.72906500000000
H           57.62036600000000       -7.72944700000000       -0.08260600000000
H           57.73146599999999       -5.33199600000000       -0.63854300000000
H           55.97518199999999       -4.12492500000000        1.70090700000000
H           54.15726899999999       -2.37330600000000        1.24003500000000
H           54.50279700000000        2.16051500000000       -1.67117500000000
H           56.46206899999999        3.98420500000000       -2.16696300000000
H           60.16984999999999        4.69455000000000       -3.00215400000000
H           60.10133900000000        7.10146700000000       -3.51740100000000
H           57.57130800000000        7.76460800000000       -0.09122400000000
H           57.64477700000000        5.35891500000000        0.43013500000000
H           61.65879000000000        4.49614800000000       -0.61336000000000
H           63.34379300000000        2.61594100000000       -0.09443500000000
C           41.21401200000000        0.01460000000000       -0.00424200000000
C           42.43593000000000        0.01460000000000       -0.00424200000000
C           52.01822300000000        0.01460000000000       -0.00424200000000
C           53.24014000000000        0.01460000000000       -0.00424200000000
Fe          47.21052599999999        0.01598300000000       -0.01463300000000
C           43.77398199999999       -0.03073700000000        0.00893000000000
C           44.42955100000000       -1.14017400000000       -0.37897100000000
C           43.78882800000000       -2.41122100000000       -0.72275600000000
C           44.72532600000000       -3.25838400000000       -1.10078900000000
C           46.02247100000000       -2.57856200000000       -1.02509400000000
N           45.84453499999999       -1.23855900000000       -0.55926700000000
C           47.20689800000000       -3.13439200000000       -1.35838300000000
C           47.24250099999999       -4.51774300000000       -1.88696800000000
C           46.72126699999999       -4.80595300000000       -3.15844000000000
C           46.77003900000000       -6.11011600000000       -3.65988500000000
C           47.34459700000000       -7.13476500000000       -2.89712000000000
C           47.39595000000000       -8.47706400000000       -3.41431000000000
N           47.43736400000000       -9.55621300000000       -3.83011100000000
C           47.87139899999999       -6.84988400000000       -1.63094100000000
C           47.82233400000000       -5.54617900000000       -1.12822900000000
C           48.50385000000000       -2.42511000000000       -1.21495700000000
C           49.77246800000000       -2.92161200000000       -1.76346100000000
C           50.72468100000000       -2.08799200000000       -1.39670800000000
N           48.67162699999999       -1.32818900000000       -0.54411800000000
C           50.06978700000000       -1.04795400000000       -0.61395300000000
C           50.68479799999999       -0.03073700000000        0.00893000000000
C           49.93383900000000        0.99702500000000        0.75976900000000
C           50.46658100000000        1.80134600000000        1.67073900000000
C           49.43430900000000        2.73854300000000        2.07183400000000
C           48.34288300000000        2.44453900000000        1.37446000000000
N           48.56822900000000        1.32929500000000        0.51400700000000
C           47.08969700000000        3.23649200000000        1.40097700000000
C           47.15185900000000        4.64399000000000        1.86599900000000
C           46.44262899999999        5.05001700000000        3.00855900000000
C           46.51939400000000        6.37352100000000        3.45242200000000
C           47.31085599999999        7.30065100000000        2.76308900000000
C           47.38970900000000        8.66313500000000        3.22061900000000
N           47.45307600000000        9.75853400000000        3.58843100000000
C           48.02780000000000        6.89835300000000        1.62931300000000
C           47.95128000000000        5.57515800000000        1.18425100000000
C           45.91821400000000        2.70935400000000        0.99542900000000
C           44.64292999999999        3.41363800000000        0.90989100000000
C           43.75484300000000        2.51826400000000        0.52862700000000
C           44.45197300000000        1.23828100000000        0.36129900000000
N           45.71650600000000        1.34409800000000        0.62912900000000
H           42.73414400000000       -2.64809300000000       -0.68131400000000
H           44.53908900000000       -4.28060300000000       -1.40340000000000
H           46.27990700000000       -4.02020900000000       -3.75926300000000
H           46.36230499999999       -6.31885600000000       -4.64166800000000
H           48.32017400000000       -7.63441900000000       -1.03359000000000
H           48.23403700000000       -5.33706600000000       -0.14840700000000
H           49.92206599999999       -3.81106200000000       -2.36130900000000
H           51.77398299999999       -2.18474500000000       -1.64198700000000
H           51.48843600000000        1.78995900000000        2.02560900000000
H           49.54870900000000        3.55144400000000        2.77722700000000
H           45.83455100000000        4.34027000000000        3.55598600000000
H           45.96451700000000        6.67273300000000        4.33357800000000
H           48.64568300000000        7.60659000000000        1.09044900000000
H           48.51116700000000        5.27618800000000        0.30651300000000
H           44.43933300000000        4.45848300000000        1.10428300000000
H           42.70474200000000        2.71946900000000        0.36522300000000
177
 energy: -316.897052318790 gnorm: 0.276681677652 xtb: 6.5.1 (b24c23e)
Fe          35.63934297319908       -0.00312627801833       -0.00274647696775
C           32.28621408017727        0.08724001151737        0.06394025983392
C           32.95543155071779        1.25241468604073        0.22586047140859
C           32.30078629080276        2.54273404601584        0.36136422983236
C           33.25343200366238        3.46236013291426        0.53661025756245
C           34.54618855342439        2.77696602181411        0.52787250980362
N           34.35331625208306        1.39428542566690        0.31630140967820
C           35.75384088880094        3.38662109080437        0.71293433431437
C           35.79308573257448        4.85229194186481        0.96752663092189
C           35.30147971570365        5.38641558626801        2.16605109376709
C           35.36340340376584        6.75495752842885        2.40795930068312
C           35.91388041905908        7.61480984439011        1.45050694631018
C           35.97966845744791        9.02586903401860        1.69838264673678
N           36.03235061098999       10.15811082543837        1.89728883612739
C           36.40117254564322        7.08599154108404        0.24971525744796
C           36.34118423965732        5.71685169158770        0.01261779560306
C           37.02127342206865        2.66810358577151        0.68072354842284
C           38.29339997291109        3.25601926636874        1.08550182340662
C           39.24287522056709        2.32875811077252        0.89953495239275
N           37.18709002032664        1.41886352570900        0.28003122467022
C           38.58885708384710        1.14599521124019        0.37404001960813
C           39.20250560126372       -0.00214910743649       -0.01559185598724
C           38.40906418488762       -1.13619140444246       -0.49542684150491
C           38.93442010642004       -2.16164493598107       -1.22484821508390
C           37.90695501729378       -3.12497366252505       -1.42771968994818
C           36.78070155184918       -2.65492415273574       -0.81649416018909
N           37.02363313834429       -1.37691143873376       -0.25121356568302
C           35.52512451374703       -3.40709352456023       -0.74453590225633
C           35.54330690339009       -4.87983623578751       -0.98116335893426
C           34.84925849692424       -5.45166009664246       -2.05875088228397
C           34.88902601696871       -6.82536208757686       -2.28094079428330
C           35.61919850519593       -7.65673979431570       -1.42391107826705
C           35.66310071106571       -9.07244244208223       -1.65138340117389
N           35.69809692991479      -10.20822631718563       -1.83350607427366
C           36.30822122040684       -7.09351247027500       -0.34369836231558
C           36.27014343397569       -5.71965387351297       -0.12730331153100
C           34.34801684893456       -2.79446746239757       -0.46366553504812
C           33.04749607733711       -3.43333486660917       -0.32032772481966
C           32.16460041187558       -2.44922832226166       -0.10296990267562
C           32.90537789905445       -1.19779895500895       -0.09693911519052
N           34.19430183050191       -1.39546820680813       -0.29518519510563
H           31.20288161150154        0.12370422596067        0.05613911308176
H           31.23671096954593        2.73746540798200        0.32419368758942
H           33.06977579128475        4.52166002191464        0.65868762025332
H           34.88020372988519        4.73011988737897        2.92055831813853
H           34.98631853078136        7.15236529472991        3.34423093274896
H           36.83189803350219        7.74160468624297       -0.49929611303908
H           36.72116495651492        5.31957985543602       -0.92277145460994
H           38.46195338781182        4.24834469475774        1.47354281082247
H           40.29586192298060        2.45364008791619        1.10420129161887
H           39.95519110224503       -2.23061019968779       -1.56047891903741
H           38.00067942148779       -4.06391508440777       -1.95217080879954
H           34.28770655372248       -4.82095380210597       -2.74005594747836
H           34.35496324277819       -7.24958569477588       -3.12498660739045
H           36.88024529406204       -7.72654683523750        0.32630284144652
H           36.80765566312235       -5.29855841347568        0.71540276506344
H           32.81388162834087       -4.48871060059291       -0.37217676487260
H           31.10416550066899       -2.57430467240060        0.04808495853571
Fe          58.81487197979492        0.03242640615185       -0.00364445081082
C           62.16793285436494       -0.05422667594116        0.06776052661991
C           61.49873338609337       -1.20897230220222        0.29252487806005
C           62.15338770662871       -2.49005799157948        0.49769447904834
C           61.20073846587569       -3.39884475095089        0.72247126181647
C           59.90799532801235       -2.71488424333296        0.67657011270524
N           60.10096878913885       -1.34584642100011        0.39064556030641
C           58.70023451766384       -3.31363515788743        0.89444487602004
C           58.66102119304578       -4.76339235348422        1.22802437898977
C           59.15266964678918       -5.23184910720467        2.45368437014759
C           59.09075902913887       -6.58528892609659        2.76931668203217
C           58.54027465247987       -7.49571163687130        1.85981830693881
C           58.47448512455301       -8.89128229951257        2.18372349723786
N           58.42179148804519      -10.01109281709191        2.44365137810209
C           58.05298138770802       -7.03268372548832        0.63216028742264
C           58.11296784747929       -5.67838333194838        0.32129966624417
C           57.43298377673481       -2.59798308139009        0.82338635049971
C           56.16064508421452       -3.16308935665285        1.25940022472141
C           55.21103496166273       -2.24744594403033        1.02354517525707
N           57.26727716785210       -1.37231056255115        0.35544592592282
C           55.86545501423027       -1.09509371341504        0.43468058838595
C           55.25303572111638        0.02991242658336       -0.01699538480728
C           56.04523444661245        1.13705171903327       -0.55704200757161
C           55.51966508711684        2.12166017864370       -1.34092040162101
C           56.54704115964149        3.07242462989930       -1.59559863782359
C           57.67339639460099        2.63616934735662       -0.95980125396833
N           57.43055904747802        1.39077386029061       -0.32596639607217
C           58.92896183980833        3.39114798418486       -0.92868971490153
C           58.91081296920748        4.84895205123491       -1.24470985555818
C           59.60488978084238        5.36161011142383       -2.35165853442956
C           59.56512876932955        6.72127507142154       -2.64788541014326
C           58.83495410339543        7.59783087898149       -1.83712131794730
C           58.79105638600504        8.99914327146598       -2.14090310130267
N           58.75604565950946       10.12340047533090       -2.38427427980982
C           58.14593534991597        7.09391032180731       -0.72800101191842
C           58.18400925788021        5.73377817286667       -0.43755144155593
C           60.10610265317520        2.79463526483964       -0.61503131675104
C           61.40664489646740        3.44034657120442       -0.50652418751260
C           62.28954263358337        2.46945996952704       -0.23621064002383
C           61.54877113624967        1.22016700139010       -0.16243899078750
N           60.25980673420555        1.40683818126276       -0.37108745312665
H           63.25126758853479       -0.09105772432100        0.06196484900504
H           63.21745713852194       -2.68650734652170        0.47112002481007
H           61.38437760189817       -4.44997855500795        0.90171779844773
H           59.57394552391966       -4.53566691255976        3.17155199089916
H           59.46783396692251       -6.93142406656095        3.72573327916031
H           57.62225383000641       -7.72787869830289       -0.08026041146941
H           57.73298997407697       -5.33232811889989       -0.63423067287497
H           55.99215229474768       -4.13293316212232        1.70058699166898
H           54.15807741168840       -2.36084996112744        1.23452908956798
H           54.49897428853829        2.17225772978207       -1.67970041035988
H           56.45339191601129        3.98161573267195       -2.17008053947030
H           60.16644317468155        4.69495210733678       -2.99782616217820
H           60.09918985672203        7.09918229823878       -3.51366372272120
H           57.57390667439346        7.76228483927213       -0.09325830362012
H           57.64649259874675        5.35892809518710        0.42671195061084
H           61.64025995327682        4.49137348020856       -0.61543009630952
H           63.34997871347923        2.60254040538030       -0.09214815492945
C           41.11124514504494        0.01058820057650       -0.00428065309115
C           42.34583342935306        0.01973044609652       -0.00167444807344
C           52.10103600316620        0.02647783829524        0.00552693543203
C           53.33691978646170        0.01663849922614       -0.00470617459524
Fe          47.20227668807335        0.01297837902122       -0.00912729498142
C           43.75238002432992       -0.00861064732170        0.00369859238711
C           44.43457311515171       -1.13800384580972       -0.37919391580134
C           43.79118190965132       -2.39814590941077       -0.71838126950190
C           44.74094642004150       -3.25602372061027       -1.10128424725625
C           46.02509412682216       -2.56888728647711       -1.02147242972284
N           45.83241675671351       -1.25028074317619       -0.54923573548039
C           47.22329221133007       -3.12951222695127       -1.35993133688719
C           47.25060301930646       -4.51777045160025       -1.89070568177723
C           46.72233464578679       -4.81142293066470       -3.15420843113969
C           46.77060705749872       -6.10790543394945       -3.65545276616381
C           47.34457268986662       -7.13481748423402       -2.89711530778411
C           47.39575360889142       -8.47215625498053       -3.41247801628965
N           47.43693773263058       -9.54528822623078       -3.82592752698051
C           47.86960242172146       -6.84584660804500       -1.63224779631296
C           47.82341869859516       -5.54778437343700       -1.13551960126471
C           48.49437086076372       -2.44182686283929       -1.22076030640572
C           49.75358932055369       -2.93724500062959       -1.76500689513393
C           50.71681628704904       -2.08349470186596       -1.39179826005986
N           48.67554051253804       -1.31399464672602       -0.55877902701454
C           50.06603082870838       -1.04795594110296       -0.61684111100024
C           50.69521529134048       -0.01778771556525        0.01740009304353
C           49.92627601731454        0.99628303306692        0.74455233104066
C           50.46965537930499        1.82247971629145        1.68057661268425
C           49.45543909433766        2.74220379795550        2.07175699238307
C           48.33530056349350        2.43805115720189        1.35508273630346
N           48.56162229978393        1.30727252609525        0.53378939214799
C           47.10516079976583        3.22564334940102        1.39480727275377
C           47.16346592468448        4.63707287931565        1.87010758718798
C           46.44608304146163        5.05216847880611        3.00248284625853
C           46.52090328917761        6.36904395694155        3.44711533669653
C           47.31085026692732        7.29985566813158        2.76276090761037
C           47.38939007275524        8.65762600996444        3.21892917457064
N           47.45242481686944        9.74696104197157        3.58459148084577
C           48.02497507024614        6.89315788434018        1.62986111548525
C           47.95207683678652        5.57499880193814        1.19109461641168
C           45.92006883449532        2.70383473906477        0.99251683243753
C           44.65152821188430        3.40725542532739        0.91110989371441
C           43.74182959343710        2.50289950988029        0.52608836475968
C           44.43253928137160        1.23217381254137        0.35801061656394
N           45.72039555119443        1.35204798817208        0.61191363135712
H           42.73525424900851       -2.62930924869711       -0.67564783500045
H           44.55903211403511       -4.27827528651651       -1.40513894602888
H           46.28230817690315       -4.02253423509583       -3.75542080277611
H           46.36375670909818       -6.31864394939192       -4.63855921226393
H           48.31828287743718       -7.63261372431080       -1.03563947111391
H           48.23225768063780       -5.33671589483105       -0.15284220033943
H           49.90520160465783       -3.82070738111633       -2.36334187593628
H           51.76814485805683       -2.17108975089293       -1.63267640140501
H           51.48817087852662        1.79738374468451        2.03423767107968
H           49.55700494671724        3.54912819301577        2.78087561727562
H           45.83801339344640        4.34108030808061        3.55191503431108
H           45.96675568492455        6.67093722222283        4.32986480269453
H           48.64304273669233        7.60420317330038        1.09212522903761
H           48.50928018507889        5.27585057601018        0.30990815489972
H           44.45641036816793        4.45321074189519        1.10655042835680
H           42.69600888909925        2.70463041227179        0.36133561049860
177
 energy: -317.002700010595 gnorm: 0.117311916018 xtb: 6.5.1 (b24c23e)
Fe          35.66788148555803        0.00662283377057        0.00021839616123
C           32.29215683151185        0.06567377580322        0.06194728447766
C           32.96899470794617        1.25221023201059        0.22256793480141
C           32.30876082372355        2.53044428864602        0.35945455125440
C           33.27306229509094        3.45730434951108        0.53700714298266
C           34.54926757172777        2.76188781394517        0.52273958055139
N           34.34090308547442        1.40409994583349        0.31295175169953
C           35.77951147495779        3.37122353951007        0.71338980081108
C           35.80267565304972        4.84610710849871        0.97040975933998
C           35.30403466337667        5.38684182739796        2.16118155823520
C           35.36350561522369        6.74965763573138        2.40380777582715
C           35.91379740094857        7.61361417294180        1.45028073963583
C           35.97941981232303        9.01862184250381        1.69724989448282
N           36.03194709711687       10.15143844117820        1.89616213836756
C           36.39976739427303        7.08065656746211        0.25120796394214
C           36.34306565879882        5.71656051869091        0.01864630354440
C           37.01752348260032        2.67412282738247        0.68137423150126
C           38.27800830071377        3.26230370540378        1.07925098120242
C           39.24018842664335        2.32557480812454        0.89502752032439
N           37.21335547820158        1.39105246531623        0.29178907432220
C           38.61855201293757        1.13938579012790        0.37748088700655
C           39.29011033484304       -0.00988455147560       -0.03105644812400
C           38.44028178504585       -1.11570796109006       -0.47749395444436
C           38.94332940085649       -2.19051349769015       -1.22643650032682
C           37.93862335858549       -3.11956474986484       -1.42032311235109
C           36.77862034611958       -2.63024327094469       -0.79874278319594
N           37.04850095696644       -1.35693328593761       -0.27064191534068