      -----------------------------------------------------------      
     |                   =====================                   |     
     |                           x T B                           |     
     |                   =====================                   |     
     |                         S. Grimme                         |     
     |          Mulliken Center for Theoretical Chemistry        |     
     |                    University of Bonn                     |     
      -----------------------------------------------------------      

   * xtb version 6.5.1 (b24c23e) compiled by 'conda@728c89f4b128' on 2022-07-12

   xtb is free software: you can redistribute it and/or modify it under
   the terms of the GNU Lesser General Public License as published by
   the Free Software Foundation, either version 3 of the License, or
   (at your option) any later version.
   
   xtb is distributed in the hope that it will be useful,
   but WITHOUT ANY WARRANTY; without even the implied warranty of
   MERCHANTABILITY or FITNESS FOR A PARTICULAR PURPOSE.  See the
   GNU Lesser General Public License for more details.
   
   Cite this work as:
   * C. Bannwarth, E. Caldeweyher, S. Ehlert, A. Hansen, P. Pracht,
     J. Seibert, S. Spicher, S. Grimme, WIREs Comput. Mol. Sci., 2020, 11,
     e01493. DOI: 10.1002/wcms.1493
   
   for GFN2-xTB:
   * C. Bannwarth, S. Ehlert and S. Grimme., J. Chem. Theory Comput., 2019,
     15, 1652-1671. DOI: 10.1021/acs.jctc.8b01176
   for GFN1-xTB:
   * S. Grimme, C. Bannwarth, P. Shushkov, J. Chem. Theory Comput., 2017,
     13, 1989-2009. DOI: 10.1021/acs.jctc.7b00118
   for GFN0-xTB:
   * P. Pracht, E. Caldeweyher, S. Ehlert, S. Grimme, ChemRxiv, 2019, preprint.
     DOI: 10.26434/chemrxiv.8326202.v1
   for GFN-FF:
   * S. Spicher and S. Grimme, Angew. Chem. Int. Ed., 2020, 59, 15665-15673.
     DOI: 10.1002/anie.202004239
   
   for ALPB and GBSA implicit solvation:
   * S. Ehlert, M. Stahn, S. Spicher, S. Grimme, J. Chem. Theory Comput.,
     2021, 17, 4250-4261. DOI: 10.1021/acs.jctc.1c00471
   
   for DFT-D4:
   * E. Caldeweyher, C. Bannwarth and S. Grimme, J. Chem. Phys., 2017,
     147, 034112. DOI: 10.1063/1.4993215
   * E. Caldeweyher, S. Ehlert, A. Hansen, H. Neugebauer, S. Spicher,
     C. Bannwarth and S. Grimme, J. Chem. Phys., 2019, 150, 154122.
     DOI: 10.1063/1.5090222
   * E. Caldeweyher, J.-M. Mewes, S. Ehlert and S. Grimme, Phys. Chem. Chem. Phys.
     2020, 22, 8499-8512. DOI: 10.1039/D0CP00502A
   
   for sTDA-xTB:
   * S. Grimme and C. Bannwarth, J. Chem. Phys., 2016, 145, 054103.
     DOI: 10.1063/1.4959605
   
   in the mass-spec context:
   * V. Asgeirsson, C. Bauer and S. Grimme, Chem. Sci., 2017, 8, 4879.
     DOI: 10.1039/c7sc00601b
   * J. Koopman and S. Grimme, ACS Omega 2019, 4, 12, 15120-15133.
     DOI: 10.1021/acsomega.9b02011
   
   for metadynamics refer to:
   * S. Grimme, J. Chem. Theory Comput., 2019, 155, 2847-2862
     DOI: 10.1021/acs.jctc.9b00143
   
   for SPH calculations refer to:
   * S. Spicher and S. Grimme, J. Chem. Theory Comput., 2021, 17, 1701-1714
     DOI: 10.1021/acs.jctc.0c01306
   
   with help from (in alphabetical order)
   P. Atkinson, C. Bannwarth, F. Bohle, G. Brandenburg, E. Caldeweyher
   M. Checinski, S. Dohm, S. Ehlert, S. Ehrlich, I. Gerasimov, C. Hölzer
   A. Katbashev, J. Koopman, C. Lavigne, S. Lehtola, F. März, M. Müller,
   F. Musil, H. Neugebauer, J. Pisarek, C. Plett, P. Pracht, F. Pultar,
   J. Seibert, P. Shushkov, S. Spicher, M. Stahn, M. Steiner, T. Strunk,
   J. Stückrath, T. Rose, and J. Unsleber
   
 * started run on 2022/07/30 at 01:19:25.906     

           -------------------------------------------------
          |                Calculation Setup                |
           -------------------------------------------------

          program call               : xtb xtbopt.xyz --gfn 1 --vipea
          hostname                   : cx3-15-11.cx3.hpc.ic.ac.uk
          coordinate file            : xtbopt.xyz
          omp threads                :                     1

   ID    Z sym.   atoms
    1   27 Co     1, 61, 127, 186
    2    6 C      2-6, 8-12, 16-20, 22-27, 29-33, 37-42, 62-66, 68-72, 76-80,
                  82-87, 89-93, 97-102, 121-126, 128-132, 134-138, 142-146,
                  148-153, 155-159, 163-168, 187-191, 193-197, 201-205,
                  207-212, 214-218, 222-227
    3    7 N      7, 13, 21, 28, 34, 43, 67, 73, 81, 88, 94, 103, 133, 139,
                  147, 154, 160, 169, 192, 198, 206, 213, 219, 228
    4    8 O      14, 15, 35, 36, 74, 75, 95, 96, 140, 141, 161, 162, 199,
                  200, 220, 221
    5    1 H      44-60, 104-120, 170-185, 229-244

           -------------------------------------------------
          |                 I P E A - x T B                 |
           -------------------------------------------------

        Reference                      10.1039/c7sc00601b
      * Hamiltonian:
        H0-scaling (s, p, d)           2.150000    2.300000    2.000000
        zeta-weighting                 0.000000
      * Dispersion:
        s8                             2.400000
        a1                             0.630000
        a2                             5.000000
        s9                             0.000000
      * Repulsion:
        kExp                           1.500000
        rExp                           1.000000
      * Coulomb:
        alpha                          1.000000
        third order                    atomic
        anisotropic                    false
      * Halogen bond correction:
        rad-scale                      1.300000
        damping                        0.440000


          ...................................................
          :                      SETUP                      :
          :.................................................:
          :  # basis functions                1042          :
          :  # atomic orbitals                1038          :
          :  # shells                          666          :
          :  # electrons                       854          :
          :  # halogen bonds                     0          :
          :  max. iterations                   250          :
          :  Hamiltonian                  GFN1-xTB          :
          :  restarted?                      false          :
          :  GBSA solvation                  false          :
          :  PC potential                    false          :
          :  electronic temp.          300.0000000     K    :
          :  accuracy                    1.0000000          :
          :  -> integral cutoff          0.2500000E+02      :
          :  -> integral neglect         0.1000000E-07      :
          :  -> SCF convergence          0.1000000E-05 Eh   :
          :  -> wf. convergence          0.2000000E-04 e    :
          :  Broyden damping             0.4000000          :
          ...................................................

 iter      E             dE          RMSdq      gap      omega  full diag
   1   -545.8221337 -0.545822E+03  0.104E+01    0.25       0.0  T
   2   -528.7049219  0.171172E+02  0.930E+00    0.00       1.0  T
   3   -534.5740809 -0.586916E+01  0.622E+00    0.06       1.0  T
   4   -293.8874938  0.240687E+03  0.935E+00    0.02       1.0  T
   5   -167.4326727  0.126455E+03  0.101E+01    0.10       1.0  T
   6   -532.5431765 -0.365111E+03  0.507E+00    0.11       1.0  T
   7   -544.3418354 -0.117987E+02  0.370E+00    0.08       1.0  T
   8   -537.5154297  0.682641E+01  0.404E+00    0.05       1.0  T
   9   -546.4997692 -0.898434E+01  0.283E+00    0.01       1.0  T
  10   -544.8685165  0.163125E+01  0.288E+00    0.05       1.0  T
  11   -547.4676646 -0.259915E+01  0.220E+00    0.19       1.0  T
  12   -547.3721322  0.955324E-01  0.204E+00    0.07       1.0  T
  13   -547.9199826 -0.547850E+00  0.137E+00    0.09       1.0  T
  14   -537.4865365  0.104334E+02  0.424E+00    0.32       1.0  T
  15   -537.4877986 -0.126212E-02  0.424E+00    0.32       1.0  T
  16   -536.9955397  0.492259E+00  0.438E+00    0.38       1.0  T
  17   -547.1802406 -0.101847E+02  0.145E+00    0.01       1.0  T
  18   -548.0280567 -0.847816E+00  0.105E+00    0.14       1.0  T
  19   -546.8052359  0.122282E+01  0.204E+00    0.00       1.0  T
  20   -546.9034808 -0.982449E-01  0.197E+00    0.00       1.0  T
  21   -548.0179174 -0.111444E+01  0.115E+00    0.18       1.0  T
  22   -548.2491016 -0.231184E+00  0.955E-01    0.07       1.0  T
  23   -548.2895165 -0.404149E-01  0.918E-01    0.01       1.0  T
  24   -548.2912565 -0.174000E-02  0.913E-01    0.01       1.0  T
  25   -548.2166408  0.746157E-01  0.111E+00    0.08       1.0  T
  26   -548.0674802  0.149161E+00  0.122E+00    0.11       1.0  T
  27   -548.4344755 -0.366995E+00  0.758E-01    0.00       1.0  T
  28   -548.4384443 -0.396884E-02  0.725E-01    0.03       1.0  T
  29   -548.3341900  0.104254E+00  0.810E-01    0.05       1.0  T
  30   -548.4674365 -0.133246E+00  0.567E-01    0.02       1.0  T
  31   -548.4334415  0.339950E-01  0.631E-01    0.02       1.0  T
  32   -548.5446625 -0.111221E+00  0.382E-01    0.01       1.0  T
  33   -548.5811031 -0.364406E-01  0.259E-01    0.01       1.0  T
  34   -548.5645217  0.165813E-01  0.322E-01    0.01       1.0  T
  35   -548.5445933  0.199284E-01  0.443E-01    0.02       1.0  T
  36   -548.5927051 -0.481118E-01  0.264E-01    0.01       1.0  T
  37   -548.5850160  0.768912E-02  0.302E-01    0.01       1.0  T
  38   -548.5967484 -0.117324E-01  0.234E-01    0.01       1.0  T
  39   -548.6102028 -0.134545E-01  0.135E-01    0.01       1.0  T
  40   -548.6029026  0.730018E-02  0.194E-01    0.01       1.0  T
  41   -548.6124595 -0.955685E-02  0.991E-02    0.01       1.0  T
  42   -548.6132645 -0.804995E-03  0.999E-02    0.01       1.0  T
  43   -548.6155533 -0.228885E-02  0.531E-02    0.01       1.0  T
  44   -548.6140027  0.155060E-02  0.804E-02    0.01       1.0  T
  45   -548.6152014 -0.119866E-02  0.589E-02    0.01       1.0  T
  46   -548.6154993 -0.297935E-03  0.481E-02    0.01       1.0  T
  47   -548.6150778  0.421516E-03  0.565E-02    0.01       1.0  T
  48   -548.6160925 -0.101468E-02  0.259E-02    0.01       1.0  T
  49   -548.6161054 -0.128845E-04  0.251E-02    0.01       1.0  T
  50   -548.6161996 -0.942315E-04  0.194E-02    0.01       1.0  T
  51   -548.6163299 -0.130340E-03  0.600E-03    0.01       1.1  T
  52   -548.6163380 -0.806551E-05  0.364E-03    0.01       1.8  T
  53   -548.6163384 -0.385910E-06  0.342E-03    0.01       1.9  T
  54   -548.6163402 -0.183228E-05  0.261E-03    0.01       2.4  T
  55   -548.6163412 -0.961953E-06  0.208E-03    0.01       3.1  T
  56   -548.6163426 -0.137180E-05  0.921E-04    0.01       6.9  T
  57   -548.6163429 -0.301639E-06  0.308E-04    0.01      20.8  T
  58   -548.6163429 -0.134975E-07  0.237E-04    0.01      27.0  T
  59   -548.6163429 -0.214087E-07  0.668E-05    0.01      95.8  T
  60   -548.6163429 -0.448154E-09  0.560E-05    0.01     114.2  T

   *** convergence criteria satisfied after 60 iterations ***

         #    Occupation            Energy/Eh            Energy/eV
      -------------------------------------------------------------
         1        2.0000           -1.1887799             -32.3483
       ...           ...                  ...                  ...
       421        1.9998           -0.3805687             -10.3558
       422        1.9998           -0.3804940             -10.3538
       423        1.9998           -0.3804854             -10.3535
       424        1.9998           -0.3804708             -10.3531
       425        1.9998           -0.3803833             -10.3508
       426        1.1796           -0.3719902             -10.1224
       427        1.0588           -0.3717570             -10.1160 (HOMO)
       428        0.9185           -0.3714901             -10.1088 (LUMO)
       429        0.8446           -0.3713476             -10.1049
       430                         -0.3375864              -9.1862
       431                         -0.3279229              -8.9232
       432                         -0.3236632              -8.8073
       ...                                ...                  ...
      1038                        552.8079223           15042.6692
      -------------------------------------------------------------
                  HL-Gap            0.0002669 Eh            0.0073 eV
             Fermi-level           -0.3716452 Eh          -10.1130 eV

 SCC (total)                   0 d,  0 h,  0 min, 48.419 sec
 SCC setup                      ...        0 min,  0.018 sec (  0.038%)
 Dispersion                     ...        0 min,  0.024 sec (  0.049%)
 classical contributions        ...        0 min,  0.007 sec (  0.014%)
 integral evaluation            ...        0 min,  1.464 sec (  3.025%)
 iterations                     ...        0 min, 43.711 sec ( 90.277%)
 molecular gradient             ...        0 min,  3.024 sec (  6.245%)
 printout                       ...        0 min,  0.170 sec (  0.352%)

         :::::::::::::::::::::::::::::::::::::::::::::::::::::
         ::                     SUMMARY                     ::
         :::::::::::::::::::::::::::::::::::::::::::::::::::::
         :: total energy            -539.410875789347 Eh    ::
         :: gradient norm              0.146926401235 Eh/a0 ::
         :: HOMO-LUMO gap              0.007263241221 eV    ::
         ::.................................................::
         :: SCC energy              -548.616342895545 Eh    ::
         :: -> electrostatic           0.449778229154 Eh    ::
         :: repulsion energy           9.436785070603 Eh    ::
         :: dispersion energy         -0.231317964406 Eh    ::
         :: halogen bond corr.         0.000000000000 Eh    ::
         :: add. restraining           0.000000000000 Eh    ::
         :: total charge              -0.000000000001 e     ::
         :::::::::::::::::::::::::::::::::::::::::::::::::::::

           ------------------------------------------------- 
          |        vertical delta SCC IP calculation        |
           ------------------------------------------------- 
   1   -548.1956505 -0.548196E+03  0.283E-01    0.01       0.0  T
   2   -548.0238982  0.171752E+00  0.739E-01    0.04       1.0  T
   3   -547.2169697  0.806928E+00  0.161E+00    0.18       1.0  T
   4   -547.9166040 -0.699634E+00  0.896E-01    0.05       1.0  T
   5   -548.1766977 -0.260094E+00  0.316E-01    0.02       1.0  T
   6   -547.9437985  0.232899E+00  0.783E-01    0.06       1.0  T
   7   -548.1159256 -0.172127E+00  0.494E-01    0.04       1.0  T
   8   -548.0843957  0.315299E-01  0.565E-01    0.06       1.0  T
   9   -548.2007104 -0.116315E+00  0.180E-01    0.01       1.0  T
  10   -548.2133610 -0.126506E-01  0.197E-02    0.01       1.0  T
  11   -548.2082962  0.506482E-02  0.114E-01    0.01       1.0  T
  12   -548.2122676 -0.397146E-02  0.556E-02    0.01       1.0  T
  13   -548.2130585 -0.790885E-03  0.338E-02    0.01       1.0  T
  14   -548.2134098 -0.351236E-03  0.167E-02    0.01       1.0  T
  15   -548.2135043 -0.945153E-04  0.696E-03    0.01       1.0  T
  16   -548.2135233 -0.190427E-04  0.203E-03    0.01       3.2  T
  17   -548.2135238 -0.514664E-06  0.167E-03    0.01       3.8  T
  18   -548.2135246 -0.799987E-06  0.940E-04    0.01       6.8  T
  19   -548.2135250 -0.319881E-06  0.398E-04    0.01      16.1  T
  20   -548.2135250 -0.602018E-07  0.950E-05    0.01      67.4  T
  21   -548.2135250  0.307978E-09  0.100E-04    0.01      63.8  T
     SCC iter.                  ...        0 min, 15.384 sec
     gradient                   ...        0 min,  3.087 sec
------------------------------------------------------------------------
empirical IP shift (eV):    4.8455
delta SCC IP (eV):    6.1157
------------------------------------------------------------------------
           ------------------------------------------------- 
          |        vertical delta SCC EA calculation        |
           ------------------------------------------------- 
   1   -548.8918915 -0.548892E+03  0.555E-01    0.00       0.0  T
   2   -548.6617199  0.230172E+00  0.881E-01    0.03       1.0  T
   3   -548.0321452  0.629575E+00  0.158E+00    0.05       1.0  T
   4   -548.7764684 -0.744323E+00  0.743E-01    0.01       1.0  T
   5   -548.6950782  0.813901E-01  0.824E-01    0.09       1.0  T
   6   -548.7394567 -0.443784E-01  0.757E-01    0.05       1.0  T
   7   -548.7237733  0.156833E-01  0.786E-01    0.01       1.0  T
   8   -548.7437929 -0.200195E-01  0.749E-01    0.01       1.0  T
   9   -548.9372404 -0.193448E+00  0.229E-01    0.01       1.0  T
  10   -548.9129281  0.243122E-01  0.341E-01    0.00       1.0  T
  11   -548.8891086  0.238195E-01  0.421E-01    0.02       1.0  T
  12   -548.9357848 -0.466762E-01  0.238E-01    0.00       1.0  T
  13   -548.9380887 -0.230390E-02  0.224E-01    0.01       1.0  T
  14   -548.9565214 -0.184327E-01  0.505E-02    0.00       1.0  T
  15   -548.9570497 -0.528337E-03  0.343E-02    0.01       1.0  T
  16   -548.9573344 -0.284640E-03  0.212E-02    0.01       1.0  T
  17   -548.9575000 -0.165583E-03  0.420E-03    0.01       1.5  T
  18   -548.9574749  0.250362E-04  0.908E-03    0.01       1.0  T
  19   -548.9575049 -0.299887E-04  0.218E-03    0.01       2.9  T
  20   -548.9575067 -0.182717E-05  0.200E-04    0.01      32.1  T
  21   -548.9575066  0.111120E-06  0.576E-04    0.01      11.1  T
  22   -548.9575067 -0.113846E-06  0.188E-04    0.01      34.1  T
  23   -548.9575068 -0.131068E-07  0.324E-05    0.01     197.7  T
     SCC iter.                  ...        0 min, 17.485 sec
     gradient                   ...        0 min,  3.056 sec
------------------------------------------------------------------------
empirical EA shift (eV):    4.8455
delta SCC EA (eV):    4.4380
------------------------------------------------------------------------
           -------------------------------------------------
          |                Property Printout                |
           -------------------------------------------------

    * Orbital Energies and Occupations

         #    Occupation            Energy/Eh            Energy/eV
      -------------------------------------------------------------
         1        2.0000           -1.1534035             -31.3857
       ...           ...                  ...                  ...
       416        2.0000           -0.3220399              -8.7632
       417        2.0000           -0.3220039              -8.7622
       418        1.9999           -0.3217977              -8.7566
       419        1.9999           -0.3217490              -8.7552
       420        1.9999           -0.3217301              -8.7547
       421        1.9999           -0.3215571              -8.7500
       422        1.9999           -0.3214767              -8.7478
       423        1.9999           -0.3214166              -8.7462
       424        1.9999           -0.3213985              -8.7457
       425        1.9999           -0.3212555              -8.7418
       426        1.4139           -0.3124992              -8.5035
       427        1.3146           -0.3122665              -8.4972
       428        1.1815           -0.3119766              -8.4893 (HOMO)
       429        1.0907           -0.3117870              -8.4842 (LUMO)
       430                         -0.2870632              -7.8114
       431                         -0.2789420              -7.5904
       432                         -0.2788135              -7.5869
       433                         -0.2785493              -7.5797
       434                         -0.2770701              -7.5395
       435                         -0.2768619              -7.5338
       436                         -0.2711154              -7.3774
       437                         -0.2708911              -7.3713
       438                         -0.2702427              -7.3537
       439                         -0.2677685              -7.2864
       ...                                ...                  ...
      1038                        552.8569585           15044.0036
      -------------------------------------------------------------
                  HL-Gap            0.0001896 Eh            0.0052 eV
             Fermi-level           -0.3116003 Eh           -8.4791 eV

  Mulliken/CM5 charges         n(s)   n(p)   n(d)
     1Co    0.32147  0.72399   0.325  0.980  7.373
     2C    -0.01921 -0.06049   1.086  2.933  0.000
     3C     0.05622  0.11665   1.111  2.833  0.000
     4C    -0.03788 -0.08441   1.085  2.953  0.000
     5C    -0.03770 -0.08390   1.077  2.961  0.000
     6C     0.05830  0.12235   1.106  2.836  0.000
     7N    -0.21484 -0.47473   1.318  3.897  0.000
     8C     0.00745  0.01286   1.081  2.912  0.000
     9C     0.01928  0.01062   1.094  2.887  0.000
    10C    -0.01470 -0.06770   1.078  2.937  0.000
    11C    -0.00821 -0.05492   1.091  2.917  0.000
    12C     0.04389  0.09829   1.118  2.839  0.000
    13N     0.29831  0.12629   1.470  3.232  0.000
    14O    -0.27467 -0.23370   1.675  4.600  0.000
    15O    -0.27307 -0.23206   1.675  4.598  0.000
    16C    -0.00891 -0.05562   1.091  2.917  0.000
    17C    -0.01527 -0.06826   1.078  2.937  0.000
    18C     0.05757  0.12094   1.104  2.839  0.000
    19C    -0.03625 -0.08242   1.075  2.962  0.000
    20C    -0.03450 -0.08025   1.079  2.955  0.000
    21N    -0.21347 -0.47256   1.318  3.895  0.000
    22C     0.06109  0.12607   1.115  2.823  0.000
    23C     0.01914  0.02607   1.080  2.901  0.000
    24C     0.06115  0.12625   1.115  2.824  0.000
    25C    -0.03459 -0.08031   1.079  2.955  0.000
    26C    -0.03625 -0.08245   1.075  2.961  0.000
    27C     0.05749  0.12075   1.104  2.838  0.000
    28N    -0.21357 -0.47248   1.318  3.895  0.000
    29C     0.00743  0.01284   1.081  2.912  0.000
    30C     0.01930  0.01064   1.094  2.886  0.000
    31C    -0.01540 -0.06834   1.079  2.937  0.000
    32C    -0.00894 -0.05564   1.092  2.917  0.000
    33C     0.04386  0.09826   1.117  2.839  0.000
    34N     0.29825  0.12624   1.470  3.232  0.000
    35O    -0.27473 -0.23376   1.675  4.600  0.000
    36O    -0.27312 -0.23212   1.675  4.598  0.000
    37C    -0.00819 -0.05490   1.091  2.917  0.000
    38C    -0.01458 -0.06760   1.077  2.937  0.000
    39C     0.05840  0.12259   1.105  2.836  0.000
    40C    -0.03775 -0.08390   1.077  2.961  0.000
    41C    -0.03783 -0.08437   1.085  2.953  0.000
    42C     0.05616  0.11648   1.111  2.833  0.000
    43N    -0.21474 -0.47483   1.317  3.897  0.000
    44H     0.02883  0.08779   0.971  0.000  0.000
    45H     0.03126  0.08790   0.969  0.000  0.000
    46H     0.02368  0.08249   0.976  0.000  0.000
    47H     0.03453  0.09259   0.965  0.000  0.000
    48H     0.05391  0.11783   0.946  0.000  0.000
    49H     0.05218  0.11612   0.948  0.000  0.000
    50H     0.03322  0.09138   0.967  0.000  0.000
    51H     0.02478  0.08367   0.975  0.000  0.000
    52H     0.02215  0.08045   0.978  0.000  0.000
    53H     0.02247  0.08069   0.978  0.000  0.000
    54H     0.02469  0.08356   0.975  0.000  0.000
    55H     0.03315  0.09126   0.967  0.000  0.000
    56H     0.05212  0.11605   0.948  0.000  0.000
    57H     0.05398  0.11790   0.946  0.000  0.000
    58H     0.03471  0.09279   0.965  0.000  0.000
    59H     0.02383  0.08264   0.976  0.000  0.000
    60H     0.03122  0.08786   0.969  0.000  0.000
    61Co    0.32428  0.73582   0.325  0.982  7.368
    62C    -0.01939 -0.06058   1.086  2.933  0.000
    63C     0.05593  0.11633   1.111  2.833  0.000
    64C    -0.03795 -0.08444   1.085  2.953  0.000
    65C    -0.03770 -0.08391   1.077  2.961  0.000
    66C     0.05801  0.12207   1.106  2.836  0.000
    67N    -0.21461 -0.47671   1.317  3.897  0.000
    68C     0.00730  0.01279   1.081  2.912  0.000
    69C     0.01915  0.01058   1.094  2.887  0.000
    70C    -0.01469 -0.06765   1.078  2.937  0.000
    71C    -0.00831 -0.05501   1.091  2.917  0.000
    72C     0.04390  0.09829   1.118  2.839  0.000
    73N     0.29824  0.12623   1.470  3.232  0.000
    74O    -0.27454 -0.23355   1.675  4.599  0.000
    75O    -0.27345 -0.23247   1.675  4.598  0.000
    76C    -0.00891 -0.05561   1.091  2.918  0.000
    77C    -0.01527 -0.06826   1.078  2.937  0.000
    78C     0.05717  0.12047   1.104  2.839  0.000
    79C    -0.03611 -0.08230   1.074  2.962  0.000
    80C    -0.03436 -0.08019   1.078  2.956  0.000
    81N    -0.21306 -0.47469   1.318  3.895  0.000
    82C     0.06082  0.12584   1.116  2.823  0.000
    83C     0.01887  0.02592   1.081  2.900  0.000
    84C     0.06089  0.12599   1.116  2.823  0.000
    85C    -0.03439 -0.08020   1.078  2.956  0.000
    86C    -0.03607 -0.08228   1.074  2.962  0.000
    87C     0.05708  0.12030   1.104  2.839  0.000
    88N    -0.21307 -0.47460   1.318  3.895  0.000
    89C     0.00730  0.01279   1.081  2.912  0.000
    90C     0.01914  0.01058   1.094  2.887  0.000
    91C    -0.01537 -0.06833   1.079  2.937  0.000
    92C    -0.00895 -0.05566   1.091  2.918  0.000
    93C     0.04387  0.09827   1.118  2.839  0.000
    94N     0.29823  0.12622   1.470  3.232  0.000
    95O    -0.27458 -0.23358   1.675  4.600  0.000
    96O    -0.27343 -0.23245   1.675  4.598  0.000
    97C    -0.00828 -0.05498   1.091  2.917  0.000
    98C    -0.01460 -0.06757   1.078  2.937  0.000
    99C     0.05806  0.12221   1.106  2.836  0.000
   100C    -0.03771 -0.08390   1.077  2.961  0.000
   101C    -0.03792 -0.08442   1.085  2.953  0.000
   102C     0.05589  0.11621   1.111  2.833  0.000
   103N    -0.21453 -0.47681   1.317  3.897  0.000
   104H     0.02898  0.08787   0.971  0.000  0.000
   105H     0.03113  0.08776   0.969  0.000  0.000
   106H     0.02340  0.08215   0.977  0.000  0.000
   107H     0.03421  0.09237   0.966  0.000  0.000
   108H     0.05369  0.11763   0.946  0.000  0.000
   109H     0.05225  0.11618   0.948  0.000  0.000
   110H     0.03327  0.09148   0.967  0.000  0.000
   111H     0.02494  0.08371   0.975  0.000  0.000
   112H     0.02205  0.08038   0.978  0.000  0.000
   113H     0.02224  0.08048   0.978  0.000  0.000
   114H     0.02482  0.08358   0.975  0.000  0.000
   115H     0.03315  0.09134   0.967  0.000  0.000
   116H     0.05217  0.11609   0.948  0.000  0.000
   117H     0.05380  0.11773   0.946  0.000  0.000
   118H     0.03433  0.09251   0.966  0.000  0.000
   119H     0.02351  0.08226   0.976  0.000  0.000
   120H     0.03111  0.08774   0.969  0.000  0.000
   121C    -0.02270 -0.02500   1.073  2.950  0.000
   122C    -0.02233 -0.02462   1.073  2.949  0.000
   123C    -0.02278 -0.02499   1.073  2.950  0.000
   124C    -0.02275 -0.02492   1.073  2.950  0.000
   125C    -0.02332 -0.02541   1.073  2.950  0.000
   126C    -0.02363 -0.02573   1.073  2.950  0.000
   127Co    0.32671  0.72698   0.324  0.978  7.371
   128C     0.01905  0.02602   1.080  2.901  0.000
   129C     0.06105  0.12614   1.115  2.824  0.000
   130C    -0.03492 -0.08068   1.079  2.956  0.000
   131C    -0.03612 -0.08230   1.075  2.961  0.000
   132C     0.05747  0.12096   1.104  2.839  0.000
   133N    -0.21296 -0.47222   1.317  3.896  0.000
   134C     0.00949  0.01487   1.082  2.908  0.000
   135C     0.01927  0.01061   1.094  2.887  0.000
   136C    -0.01465 -0.06763   1.078  2.937  0.000
   137C    -0.00824 -0.05494   1.091  2.917  0.000
   138C     0.04423  0.09850   1.118  2.838  0.000
   139N     0.29897  0.12701   1.470  3.231  0.000
   140O    -0.27304 -0.23200   1.675  4.598  0.000
   141O    -0.27308 -0.23207   1.675  4.598  0.000
   142C    -0.00828 -0.05499   1.091  2.917  0.000
   143C    -0.01473 -0.06771   1.078  2.937  0.000
   144C     0.05747  0.12078   1.104  2.839  0.000
   145C    -0.03582 -0.08203   1.075  2.961  0.000
   146C    -0.03455 -0.08032   1.079  2.956  0.000
   147N    -0.21281 -0.47182   1.317  3.895  0.000
   148C     0.06146  0.12677   1.116  2.823  0.000
   149C     0.01918  0.02616   1.081  2.900  0.000
   150C     0.06137  0.12663   1.116  2.823  0.000
   151C    -0.03457 -0.08035   1.079  2.956  0.000
   152C    -0.03587 -0.08205   1.075  2.961  0.000
   153C     0.05746  0.12084   1.103  2.839  0.000
   154N    -0.21278 -0.47193   1.317  3.895  0.000
   155C     0.00947  0.01485   1.082  2.908  0.000
   156C     0.01929  0.01063   1.094  2.887  0.000
   157C    -0.01468 -0.06763   1.078  2.937  0.000
   158C    -0.00824 -0.05494   1.091  2.917  0.000
   159C     0.04420  0.09848   1.118  2.838  0.000
   160N     0.29896  0.12699   1.470  3.231  0.000
   161O    -0.27303 -0.23202   1.675  4.598  0.000
   162O    -0.27316 -0.23211   1.675  4.598  0.000
   163C    -0.00829 -0.05500   1.091  2.917  0.000
   164C    -0.01472 -0.06772   1.078  2.937  0.000
   165C     0.05748  0.12091   1.104  2.839  0.000
   166C    -0.03615 -0.08234   1.076  2.960  0.000
   167C    -0.03501 -0.08073   1.080  2.955  0.000
   168C     0.06108  0.12621   1.115  2.823  0.000
   169N    -0.21308 -0.47200   1.317  3.896  0.000
   170H     0.02169  0.07995   0.978  0.000  0.000
   171H     0.02438  0.08323   0.976  0.000  0.000
   172H     0.03422  0.09236   0.966  0.000  0.000
   173H     0.05369  0.11763   0.946  0.000  0.000
   174H     0.05359  0.11752   0.946  0.000  0.000
   175H     0.03417  0.09227   0.966  0.000  0.000
   176H     0.02483  0.08367   0.975  0.000  0.000
   177H     0.02211  0.08042   0.978  0.000  0.000
   178H     0.02204  0.08032   0.978  0.000  0.000
   179H     0.02486  0.08369   0.975  0.000  0.000
   180H     0.03419  0.09232   0.966  0.000  0.000
   181H     0.05368  0.11763   0.946  0.000  0.000
   182H     0.05357  0.11749   0.946  0.000  0.000
   183H     0.03428  0.09237   0.966  0.000  0.000
   184H     0.02432  0.08317   0.976  0.000  0.000
   185H     0.02176  0.07998   0.978  0.000  0.000
   186Co    0.32921  0.73847   0.323  0.980  7.367
   187C     0.01897  0.02603   1.081  2.900  0.000
   188C     0.06109  0.12631   1.116  2.823  0.000
   189C    -0.03467 -0.08042   1.079  2.956  0.000
   190C    -0.03585 -0.08205   1.075  2.961  0.000
   191C     0.05711  0.12047   1.104  2.839  0.000
   192N    -0.21260 -0.47416   1.317  3.895  0.000
   193C     0.00939  0.01485   1.083  2.908  0.000
   194C     0.01913  0.01057   1.093  2.888  0.000
   195C    -0.01475 -0.06770   1.078  2.937  0.000
   196C    -0.00841 -0.05511   1.091  2.917  0.000
   197C     0.04423  0.09850   1.118  2.838  0.000
   198N     0.29894  0.12696   1.470  3.231  0.000
   199O    -0.27289 -0.23186   1.675  4.598  0.000
   200O    -0.27346 -0.23243   1.675  4.599  0.000
   201C    -0.00821 -0.05491   1.091  2.917  0.000
   202C    -0.01463 -0.06758   1.078  2.937  0.000
   203C     0.05717  0.12053   1.104  2.839  0.000
   204C    -0.03594 -0.08215   1.075  2.961  0.000
   205C    -0.03474 -0.08054   1.078  2.957  0.000
   206N    -0.21264 -0.47387   1.317  3.895  0.000
   207C     0.06086  0.12601   1.116  2.823  0.000
   208C     0.01891  0.02599   1.081  2.900  0.000
   209C     0.06074  0.12581   1.116  2.824  0.000
   210C    -0.03475 -0.08059   1.078  2.957  0.000
   211C    -0.03597 -0.08216   1.075  2.961  0.000
   212C     0.05710  0.12056   1.104  2.839  0.000
   213N    -0.21242 -0.47451   1.317  3.895  0.000
   214C     0.00944  0.01491   1.083  2.908  0.000
   215C     0.01914  0.01058   1.093  2.888  0.000
   216C    -0.01475 -0.06766   1.078  2.937  0.000
   217C    -0.00840 -0.05510   1.091  2.917  0.000
   218C     0.04425  0.09852   1.118  2.838  0.000
   219N     0.29895  0.12697   1.470  3.231  0.000
   220O    -0.27345 -0.23243   1.675  4.599  0.000
   221O    -0.27288 -0.23183   1.675  4.598  0.000
   222C    -0.00819 -0.05490   1.091  2.917  0.000
   223C    -0.01460 -0.06760   1.078  2.937  0.000
   224C     0.05716  0.12042   1.104  2.839  0.000
   225C    -0.03572 -0.08195   1.076  2.960  0.000
   226C    -0.03456 -0.08032   1.079  2.956  0.000
   227C     0.06132  0.12664   1.116  2.823  0.000
   228N    -0.21269 -0.47359   1.317  3.896  0.000
   229H     0.02206  0.08023   0.978  0.000  0.000
   230H     0.02462  0.08337   0.975  0.000  0.000
   231H     0.03389  0.09208   0.966  0.000  0.000
   232H     0.05335  0.11728   0.947  0.000  0.000
   233H     0.05385  0.11778   0.946  0.000  0.000
   234H     0.03422  0.09240   0.966  0.000  0.000
   235H     0.02451  0.08326   0.975  0.000  0.000
   236H     0.02163  0.07990   0.978  0.000  0.000
   237H     0.02160  0.07988   0.978  0.000  0.000
   238H     0.02461  0.08333   0.975  0.000  0.000
   239H     0.03371  0.09192   0.966  0.000  0.000
   240H     0.05333  0.11727   0.947  0.000  0.000
   241H     0.05390  0.11783   0.946  0.000  0.000
   242H     0.03437  0.09254   0.966  0.000  0.000
   243H     0.02458  0.08334   0.975  0.000  0.000
   244H     0.02202  0.08026   0.978  0.000  0.000

Wiberg/Mayer (AO) data.
largest (>0.10) Wiberg bond orders for each atom

 ---------------------------------------------------------------------------
     #   Z sym  total        # sym  WBO       # sym  WBO       # sym  WBO
 ---------------------------------------------------------------------------
     1  27 Co   3.654 --    43 N    0.711     7 N    0.711    21 N    0.708
                            28 N    0.708
     2   6 C    3.841 --    42 C    1.395     3 C    1.393    44 H    0.996
     3   6 C    3.954 --     2 C    1.393     7 N    1.244     4 C    1.198
     4   6 C    3.857 --     5 C    1.644     3 C    1.198    45 H    0.993
     5   6 C    3.835 --     4 C    1.644     6 C    1.203    46 H    0.998
     6   6 C    3.932 --     8 C    1.361     7 N    1.252     5 C    1.203
     7   7 N    2.991 --     6 C    1.252     3 C    1.244     1 Co   0.711
     8   6 C    3.842 --    18 C    1.367     6 C    1.361     9 C    1.057
     9   6 C    3.896 --    10 C    1.415    17 C    1.415     8 C    1.057
    10   6 C    3.866 --    11 C    1.465     9 C    1.415    47 H    0.988
    11   6 C    3.898 --    10 C    1.465    12 C    1.405    48 H    0.985
    12   6 C    3.934 --    11 C    1.405    16 C    1.405    13 N    1.005
    13   7 N    4.110 --    15 O    1.569    14 O    1.567    12 C    1.005
    14   8 O    2.009 --    13 N    1.567    15 O    0.382
    15   8 O    2.011 --    13 N    1.569    14 O    0.382
    16   6 C    3.899 --    17 C    1.466    12 C    1.405    49 H    0.985
    17   6 C    3.866 --    16 C    1.466     9 C    1.415    50 H    0.988
    18   6 C    3.922 --     8 C    1.367    21 N    1.243    19 C    1.208
    19   6 C    3.829 --    20 C    1.634    18 C    1.208    51 H    0.997
    20   6 C    3.837 --    19 C    1.634    22 C    1.217    52 H    0.998
    21   7 N    2.997 --    22 C    1.266    18 C    1.243     1 Co   0.708
    22   6 C    3.937 --    23 C    1.317    21 N    1.266    20 C    1.217
    23   6 C    3.866 --    22 C    1.317    24 C    1.315   121 C    1.187
    24   6 C    3.937 --    23 C    1.315    28 N    1.268    25 C    1.218
    25   6 C    3.838 --    26 C    1.634    24 C    1.218    53 H    0.998
    26   6 C    3.829 --    25 C    1.634    27 C    1.208    54 H    0.997
    27   6 C    3.922 --    29 C    1.369    28 N    1.241    26 C    1.208
    28   7 N    2.997 --    24 C    1.268    27 C    1.241     1 Co   0.708
    29   6 C    3.842 --    27 C    1.369    39 C    1.359    30 C    1.057
    30   6 C    3.896 --    38 C    1.416    31 C    1.415    29 C    1.057
    31   6 C    3.867 --    32 C    1.466    30 C    1.415    55 H    0.988
    32   6 C    3.899 --    31 C    1.466    33 C    1.405    56 H    0.985
    33   6 C    3.934 --    37 C    1.405    32 C    1.405    34 N    1.005
    34   7 N    4.110 --    36 O    1.569    35 O    1.567    33 C    1.005
    35   8 O    2.009 --    34 N    1.567    36 O    0.382
    36   8 O    2.011 --    34 N    1.569    35 O    0.382
    37   6 C    3.898 --    38 C    1.465    33 C    1.405    57 H    0.985
    38   6 C    3.865 --    37 C    1.465    30 C    1.416    58 H    0.988
    39   6 C    3.931 --    29 C    1.359    43 N    1.254    40 C    1.203
    40   6 C    3.835 --    41 C    1.645    39 C    1.203    59 H    0.998
    41   6 C    3.857 --    40 C    1.645    42 C    1.197    60 H    0.993
    42   6 C    3.954 --     2 C    1.395    43 N    1.242    41 C    1.197
    43   7 N    2.991 --    39 C    1.254    42 C    1.242     1 Co   0.711
    44   1 H    1.034 --     2 C    0.996
    45   1 H    1.026 --     4 C    0.993
    46   1 H    1.041 --     5 C    0.998
    47   1 H    1.048 --    10 C    0.988
    48   1 H    1.029 --    11 C    0.985
    49   1 H    1.030 --    16 C    0.985
    50   1 H    1.049 --    17 C    0.988
    51   1 H    1.040 --    19 C    0.997
    52   1 H    1.046 --    20 C    0.998
    53   1 H    1.046 --    25 C    0.998
    54   1 H    1.040 --    26 C    0.997
    55   1 H    1.049 --    31 C    0.988
    56   1 H    1.030 --    32 C    0.985
    57   1 H    1.029 --    37 C    0.985
    58   1 H    1.048 --    38 C    0.988
    59   1 H    1.040 --    40 C    0.998
    60   1 H    1.026 --    41 C    0.993
    61  27 Co   3.684 --   103 N    0.714    67 N    0.714    81 N    0.711
                            88 N    0.711
    62   6 C    3.841 --   102 C    1.394    63 C    1.393   104 H    0.996
    63   6 C    3.954 --    62 C    1.393    67 N    1.243    64 C    1.198
    64   6 C    3.855 --    65 C    1.644    63 C    1.198   105 H    0.993
    65   6 C    3.835 --    64 C    1.644    66 C    1.203   106 H    0.998
    66   6 C    3.932 --    68 C    1.359    67 N    1.251    65 C    1.203
    67   7 N    2.990 --    66 C    1.251    63 C    1.243    61 Co   0.714
    68   6 C    3.841 --    78 C    1.365    66 C    1.359    69 C    1.060
    69   6 C    3.896 --    70 C    1.414    77 C    1.414    68 C    1.060
    70   6 C    3.864 --    71 C    1.466    69 C    1.414   107 H    0.988
    71   6 C    3.899 --    70 C    1.466    72 C    1.405   108 H    0.985
    72   6 C    3.933 --    76 C    1.405    71 C    1.405    73 N    1.005
    73   7 N    4.110 --    75 O    1.568    74 O    1.567    72 C    1.005
    74   8 O    2.009 --    73 N    1.567    75 O    0.382
    75   8 O    2.010 --    73 N    1.568    74 O    0.382
    76   6 C    3.899 --    77 C    1.466    72 C    1.405   109 H    0.985
    77   6 C    3.864 --    76 C    1.466    69 C    1.414   110 H    0.988
    78   6 C    3.922 --    68 C    1.365    81 N    1.242    79 C    1.209
    79   6 C    3.826 --    80 C    1.632    78 C    1.209   111 H    0.998
    80   6 C    3.830 --    79 C    1.632    82 C    1.219   112 H    0.999
    81   7 N    2.997 --    82 C    1.266    78 C    1.242    61 Co   0.711
    82   6 C    3.933 --    83 C    1.312    81 N    1.266    80 C    1.219
    83   6 C    3.867 --    82 C    1.312    84 C    1.310   126 C    1.197
    84   6 C    3.933 --    83 C    1.310    88 N    1.267    85 C    1.220
    85   6 C    3.831 --    86 C    1.632    84 C    1.220   113 H    0.999
    86   6 C    3.826 --    85 C    1.632    87 C    1.209   114 H    0.998
    87   6 C    3.923 --    89 C    1.367    88 N    1.240    86 C    1.209
    88   7 N    2.997 --    84 C    1.267    87 C    1.240    61 Co   0.711
    89   6 C    3.841 --    87 C    1.367    99 C    1.358    90 C    1.060
    90   6 C    3.896 --    98 C    1.414    91 C    1.414    89 C    1.060
    91   6 C    3.865 --    92 C    1.466    90 C    1.414   115 H    0.988
    92   6 C    3.899 --    91 C    1.466    93 C    1.405   116 H    0.986
    93   6 C    3.933 --    97 C    1.405    92 C    1.405    94 N    1.005
    94   7 N    4.110 --    96 O    1.568    95 O    1.567    93 C    1.005
    95   8 O    2.009 --    94 N    1.567    96 O    0.382
    96   8 O    2.010 --    94 N    1.568    95 O    0.382
    97   6 C    3.898 --    98 C    1.466    93 C    1.405   117 H    0.985
    98   6 C    3.863 --    97 C    1.466    90 C    1.414   118 H    0.988
    99   6 C    3.931 --    89 C    1.358   103 N    1.252   100 C    1.203
   100   6 C    3.835 --   101 C    1.644    99 C    1.203   119 H    0.998
   101   6 C    3.855 --   100 C    1.644   102 C    1.198   120 H    0.993
   102   6 C    3.954 --    62 C    1.394   103 N    1.241   101 C    1.198
   103   7 N    2.990 --    99 C    1.252   102 C    1.241    61 Co   0.714
   104   1 H    1.034 --    62 C    0.996
   105   1 H    1.026 --    64 C    0.993
   106   1 H    1.041 --    65 C    0.998
   107   1 H    1.048 --    70 C    0.988
   108   1 H    1.029 --    71 C    0.985
   109   1 H    1.030 --    76 C    0.985
   110   1 H    1.049 --    77 C    0.988
   111   1 H    1.040 --    79 C    0.998
   112   1 H    1.040 --    80 C    0.999
   113   1 H    1.039 --    85 C    0.999
   114   1 H    1.040 --    86 C    0.998
   115   1 H    1.049 --    91 C    0.988
   116   1 H    1.030 --    92 C    0.986
   117   1 H    1.029 --    97 C    0.985
   118   1 H    1.048 --    98 C    0.988
   119   1 H    1.041 --   100 C    0.998
   120   1 H    1.026 --   101 C    0.993
   121   6 C    3.776 --   122 C    2.648    23 C    1.187
   122   6 C    3.778 --   121 C    2.648   128 C    1.188
   123   6 C    3.777 --   124 C    2.639   149 C    1.196
   124   6 C    3.777 --   123 C    2.639   187 C    1.197
   125   6 C    3.781 --   126 C    2.640   208 C    1.199
   126   6 C    3.779 --   125 C    2.640    83 C    1.197
   127  27 Co   3.619 --   169 N    0.706   147 N    0.706   133 N    0.706
                           154 N    0.705
   128   6 C    3.858 --   168 C    1.314   129 C    1.314   122 C    1.188
   129   6 C    3.936 --   128 C    1.314   133 N    1.267   130 C    1.219
   130   6 C    3.835 --   131 C    1.631   129 C    1.219   170 H    0.998
   131   6 C    3.829 --   130 C    1.631   132 C    1.211   171 H    0.998
   132   6 C    3.919 --   134 C    1.363   133 N    1.245   131 C    1.211
   133   7 N    2.989 --   129 C    1.267   132 C    1.245   127 Co   0.706
   134   6 C    3.838 --   144 C    1.366   132 C    1.363   135 C    1.058
   135   6 C    3.895 --   143 C    1.416   136 C    1.415   134 C    1.058
   136   6 C    3.865 --   137 C    1.465   135 C    1.415   172 H    0.988
   137   6 C    3.899 --   136 C    1.465   138 C    1.406   173 H    0.985
   138   6 C    3.934 --   142 C    1.406   137 C    1.406   139 N    1.003
   139   7 N    4.111 --   140 O    1.569   141 O    1.569   138 C    1.003
   140   8 O    2.011 --   139 N    1.569   141 O    0.382
   141   8 O    2.011 --   139 N    1.569   140 O    0.382
   142   6 C    3.899 --   143 C    1.465   138 C    1.406   174 H    0.985
   143   6 C    3.865 --   142 C    1.465   135 C    1.416   175 H    0.988
   144   6 C    3.919 --   134 C    1.366   147 N    1.242   145 C    1.210
   145   6 C    3.827 --   146 C    1.632   144 C    1.210   176 H    0.998
   146   6 C    3.833 --   145 C    1.632   148 C    1.219   177 H    0.999
   147   7 N    2.989 --   148 C    1.270   144 C    1.242   127 Co   0.706
   148   6 C    3.935 --   149 C    1.311   147 N    1.270   146 C    1.219
   149   6 C    3.859 --   148 C    1.311   150 C    1.310   123 C    1.196
   150   6 C    3.935 --   149 C    1.310   154 N    1.269   151 C    1.220
   151   6 C    3.833 --   152 C    1.631   150 C    1.220   178 H    0.999
   152   6 C    3.827 --   151 C    1.631   153 C    1.211   179 H    0.998
   153   6 C    3.919 --   155 C    1.364   154 N    1.243   152 C    1.211
   154   7 N    2.989 --   150 C    1.269   153 C    1.243   127 Co   0.705
   155   6 C    3.838 --   165 C    1.365   153 C    1.364   156 C    1.057
   156   6 C    3.895 --   164 C    1.416   157 C    1.415   155 C    1.057
   157   6 C    3.866 --   158 C    1.465   156 C    1.415   180 H    0.988
   158   6 C    3.899 --   157 C    1.465   159 C    1.406   181 H    0.985
   159   6 C    3.934 --   163 C    1.406   158 C    1.406   160 N    1.003
   160   7 N    4.111 --   162 O    1.569   161 O    1.569   159 C    1.003
   161   8 O    2.011 --   160 N    1.569   162 O    0.382
   162   8 O    2.011 --   160 N    1.569   161 O    0.382
   163   6 C    3.899 --   164 C    1.465   159 C    1.406   182 H    0.985
   164   6 C    3.865 --   163 C    1.465   156 C    1.416   183 H    0.988
   165   6 C    3.919 --   155 C    1.365   169 N    1.243   166 C    1.210
   166   6 C    3.830 --   167 C    1.632   165 C    1.210   184 H    0.998
   167   6 C    3.836 --   166 C    1.632   168 C    1.219   185 H    0.998
   168   6 C    3.937 --   128 C    1.314   169 N    1.268   167 C    1.219
   169   7 N    2.990 --   168 C    1.268   165 C    1.243   127 Co   0.706
   170   1 H    1.046 --   130 C    0.998
   171   1 H    1.040 --   131 C    0.998
   172   1 H    1.047 --   136 C    0.988
   173   1 H    1.029 --   137 C    0.985
   174   1 H    1.029 --   142 C    0.985
   175   1 H    1.047 --   143 C    0.988
   176   1 H    1.040 --   145 C    0.998
   177   1 H    1.043 --   146 C    0.999
   178   1 H    1.043 --   151 C    0.999
   179   1 H    1.040 --   152 C    0.998
   180   1 H    1.047 --   157 C    0.988
   181   1 H    1.029 --   158 C    0.985
   182   1 H    1.029 --   163 C    0.985
   183   1 H    1.047 --   164 C    0.988
   184   1 H    1.040 --   166 C    0.998
   185   1 H    1.045 --   167 C    0.998
   186  27 Co   3.648 --   206 N    0.709   228 N    0.709   213 N    0.709
                           192 N    0.708
   187   6 C    3.858 --   227 C    1.309   188 C    1.309   124 C    1.197
   188   6 C    3.935 --   187 C    1.309   192 N    1.268   189 C    1.220
   189   6 C    3.831 --   190 C    1.630   188 C    1.220   229 H    0.999
   190   6 C    3.828 --   189 C    1.630   191 C    1.211   230 H    0.998
   191   6 C    3.919 --   193 C    1.363   192 N    1.242   190 C    1.211
   192   7 N    2.988 --   188 C    1.268   191 C    1.242   186 Co   0.708
   193   6 C    3.837 --   203 C    1.363   191 C    1.363   194 C    1.060
   194   6 C    3.894 --   202 C    1.414   195 C    1.414   193 C    1.060
   195   6 C    3.863 --   196 C    1.465   194 C    1.414   231 H    0.988
   196   6 C    3.899 --   195 C    1.465   197 C    1.406   232 H    0.985
   197   6 C    3.933 --   201 C    1.406   196 C    1.406   198 N    1.004
   198   7 N    4.110 --   199 O    1.569   200 O    1.569   197 C    1.004
   199   8 O    2.011 --   198 N    1.569   200 O    0.382
   200   8 O    2.011 --   198 N    1.569   199 O    0.382
   201   6 C    3.899 --   202 C    1.465   197 C    1.406   233 H    0.985
   202   6 C    3.863 --   201 C    1.465   194 C    1.414   234 H    0.988
   203   6 C    3.919 --   193 C    1.363   206 N    1.242   204 C    1.211
   204   6 C    3.827 --   205 C    1.630   203 C    1.211   235 H    0.998
   205   6 C    3.829 --   204 C    1.630   207 C    1.221   236 H    0.999
   206   7 N    2.988 --   207 C    1.267   203 C    1.242   186 Co   0.709
   207   6 C    3.933 --   208 C    1.309   206 N    1.267   205 C    1.221
   208   6 C    3.859 --   207 C    1.309   209 C    1.308   125 C    1.199
   209   6 C    3.932 --   208 C    1.308   213 N    1.266   210 C    1.222
   210   6 C    3.829 --   211 C    1.628   209 C    1.222   237 H    0.999
   211   6 C    3.826 --   210 C    1.628   212 C    1.213   238 H    0.998
   212   6 C    3.919 --   214 C    1.359   213 N    1.244   211 C    1.213
   213   7 N    2.988 --   209 C    1.266   212 C    1.244   186 Co   0.709
   214   6 C    3.837 --   224 C    1.367   212 C    1.359   215 C    1.060
   215   6 C    3.894 --   223 C    1.415   216 C    1.414   214 C    1.060
   216   6 C    3.863 --   217 C    1.466   215 C    1.414   239 H    0.988
   217   6 C    3.899 --   216 C    1.466   218 C    1.405   240 H    0.985
   218   6 C    3.934 --   222 C    1.406   217 C    1.405   219 N    1.004
   219   7 N    4.110 --   221 O    1.569   220 O    1.569   218 C    1.004
   220   8 O    2.010 --   219 N    1.569   221 O    0.382
   221   8 O    2.011 --   219 N    1.569   220 O    0.382
   222   6 C    3.898 --   223 C    1.465   218 C    1.406   241 H    0.985
   223   6 C    3.862 --   222 C    1.465   215 C    1.415   242 H    0.988
   224   6 C    3.919 --   214 C    1.367   228 N    1.240   225 C    1.210
   225   6 C    3.828 --   226 C    1.631   224 C    1.210   243 H    0.998
   226   6 C    3.831 --   225 C    1.631   227 C    1.220   244 H    0.999
   227   6 C    3.935 --   187 C    1.309   228 N    1.269   226 C    1.220
   228   7 N    2.988 --   227 C    1.269   224 C    1.240   186 Co   0.709
   229   1 H    1.041 --   189 C    0.999
   230   1 H    1.041 --   190 C    0.998
   231   1 H    1.047 --   195 C    0.988
   232   1 H    1.029 --   196 C    0.985
   233   1 H    1.029 --   201 C    0.985
   234   1 H    1.047 --   202 C    0.988
   235   1 H    1.041 --   204 C    0.998
   236   1 H    1.040 --   205 C    0.999
   237   1 H    1.040 --   210 C    0.999
   238   1 H    1.040 --   211 C    0.998
   239   1 H    1.047 --   216 C    0.988
   240   1 H    1.029 --   217 C    0.985
   241   1 H    1.029 --   222 C    0.985
   242   1 H    1.047 --   223 C    0.988
   243   1 H    1.041 --   225 C    0.998
   244   1 H    1.041 --   226 C    0.999
 ---------------------------------------------------------------------------

Topologies differ in total number of bonds
Writing topology from bond orders to xtbtopo.mol

 dipole moment from electron density (au)
     X       Y       Z   
-129.8097  -0.0145   0.0694  total (Debye):  329.944


           -------------------------------------------------
          | TOTAL ENERGY             -539.752039645782 Eh   |
          | GRADIENT NORM               0.154386867462 Eh/α |
          | HOMO-LUMO GAP               0.005158327257 eV   |
           -------------------------------------------------
########################################################################
[WARNING] Runtime exception occurred
-1- restart_readRestart: Dimension missmatch in restart file.
########################################################################

------------------------------------------------------------------------
 * finished run on 2022/07/30 at 01:20:58.030     
------------------------------------------------------------------------
 total:
 * wall-time:     0 d,  0 h,  1 min, 32.124 sec
 *  cpu-time:     0 d,  0 h,  1 min, 31.456 sec
 * ratio c/w:     0.993 speedup
 SCF:
 * wall-time:     0 d,  0 h,  1 min, 30.737 sec
 *  cpu-time:     0 d,  0 h,  1 min, 30.085 sec
 * ratio c/w:     0.993 speedup

