636
 energy: -1119.537289359361 gnorm: 0.000818145499 xtb: 6.5.1 (b24c23e)
C          123.04972306413539        0.13435311208802        0.07684253167577
C          123.66440772917876        1.27141819550709       -0.43163148146395
C          123.01795018627726        2.42692912919577       -0.95311918749530
C          123.98463361714953        3.31355880722574       -1.33662138827895
C          125.25318836903874        2.73338573315367       -1.04998715922608
N          125.00891685270378        1.49915961737520       -0.51754695033166
C          126.51951633198577        3.28872188334093       -1.26809067369219
C          126.56035265646099        4.66066721035073       -1.82984043619969
C          127.19055494890162        4.90606008509885       -3.05057010571712
C          127.22678594402967        6.18426909370668       -3.58540593009119
C          126.63419621328386        7.23933082171200       -2.89537874812446
O          126.64808181731298        8.50714795606694       -3.38143438544320
C          126.00494685792367        7.00907400279516       -1.67332166706723
C          125.96776298826676        5.72835500968738       -1.15093342895534
C          127.73031719233897        2.64688423294301       -0.99553514376031
C          129.03169691161847        3.27065724107939       -1.15457259604238
C          129.94621994245844        2.34304683828450       -0.80304485119813
N          127.87627499811290        1.37375355348059       -0.53542079320935
C          129.20242931005777        1.15793261365515       -0.42263035785228
C          129.83142864351075       -0.03721018390385       -0.01855617532899
C          129.18842765055888       -1.21620410986903        0.40340383024273
C          129.82392024189355       -2.43091853603703        0.77367134330523
C          128.85253212614074       -3.32001705079387        1.14227997540157
C          127.59297221565957       -2.67076719830591        1.01815040011801
N          127.84762595459900       -1.40601144486250        0.55657030138741
C          126.32963801058926       -3.20521024476440        1.29359283051167
C          126.28880250891410       -4.58706850159931        1.82878670077779
C          126.93110135550039       -4.90604599807187        3.02812538638594
C          126.89215244711339       -6.19352948325807        3.53309863558833
C          126.21087827636158       -7.18941899218452        2.83556723401884
O          126.19591417227774       -8.44291026378172        3.35729575938746
C          125.56893022235982       -6.88766667693520        1.63667690368257
C          125.60737076436060       -5.59320960127910        1.14248949312544
C          125.11912914786330       -2.53001035185888        1.10059426455088
C          123.81501991305529       -3.07122372510618        1.45022774358765
C          122.90745916940475       -2.13563691745539        1.10490336153994
C          123.65645320089149       -1.01915324462971        0.55628944961395
N          124.98522887069819       -1.28725071843767        0.57999027372416
H          121.96475192025143        0.15856008886150        0.09695641587635
H          121.94898844061828        2.54858250915275       -1.02678578877190
H          123.83725853263742        4.28172418685037       -1.78705351246587
H          125.73146720200013        0.84673222874764       -0.23204255581189
H          127.64085188041994        4.08353538253019       -3.59501118471171
H          127.71215997247351        6.36719403427221       -4.53810966002199
H          127.11487619480647        8.55536776263785       -4.22654268566060
H          125.55319112706438        7.83959449621711       -1.14504232953062
H          125.49155117173291        5.55349191088506       -0.19254638216474
H          129.20085227512584        4.28602593900943       -1.47470391544967
H          131.02084714685446        2.43016337084782       -0.78644646693100
H          130.88908339800989       -2.59589787539358        0.75150562118720
H          128.99281838637663       -4.33963203890774        1.46214876051415
H          127.13042912317501       -0.71694146608407        0.35546710162855
H          127.44833736007870       -4.12884902072149        3.57972222955943
H          127.38252878329416       -6.44100713525905        4.46648275553615
H          125.69405048684754       -9.05135777059774        2.79845515904255
H          125.04365180157146       -7.66677589720999        1.09466843585288
H          125.11905219653592       -5.36335724370379        0.20203392858925
H          123.64260953037227       -4.03075459893517        1.91073179231169
H          121.83396462072803       -2.16532971051683        1.20798634631550
C          273.96375158892448       -0.02857950004325        0.10207988638873
C          273.34556807675131       -1.08825224212455        0.75336551199079
C          273.98843290247419       -2.18453490709202        1.39374286096698
C          273.01950529888472       -2.99618755009705        1.91332429291403
C          271.75323670170030       -2.41581480575123        1.61706623629468
N          272.00083916733536       -1.27429914325978        0.90844143516538
C          270.48600034703696       -2.90330735695404        1.95722765437296
C          270.44263458037960       -4.15074159173110        2.75846090470976
C          269.80428137133362       -5.28859305276135        2.26343391786657
C          269.76404159887596       -6.45835707114275        3.00599556333398
C          270.36086204097376       -6.49949394614323        4.26398249907243
O          270.34252588811313       -7.62316797000167        5.02614817161429
C          270.99923347971230       -5.36941447975963        4.77167875407226
C          271.04029955878804       -4.20848877486971        4.01998975000392
C          269.27673874113606       -2.30139886655555        1.59996161523572
C          267.97466940575606       -2.78564890082554        2.02222985706848
C          267.06236932594891       -1.95223474120007        1.48066544021333
N          269.13355176865628       -1.18401065013661        0.83545101945703
C          267.80826152720584       -0.95521918726958        0.73750975847726
C          267.18168074611316        0.08615701658896        0.02388567887872
C          267.82557296974079        1.11757576508338       -0.68473027791964
C          267.18961943966826        2.14106288935434       -1.43634306089191
C          268.16279564187107        2.94223960604389       -1.96610748490058
C          269.42444855275943        2.43804092129942       -1.54457357260503
N          269.16839521435861        1.32988278529633       -0.78043955478321
C          270.69039437762001        2.94603697964061       -1.85519234050619
C          270.73444022438809        4.17871931992643       -2.67773429698371
C          270.13111764858036        5.35699960066189       -2.23036135543156
C          270.17178074097012        6.50931440458287       -2.99505527248759
C          270.81533594123721        6.49638234553946       -4.23122281586836
O          270.83262881907132        7.64325202737246       -4.95796579755138
C          271.41854497225984        5.32843771110794       -4.69217151143046
C          271.37886431052505        4.18095739744367       -3.91560765372259
C          271.90083359623202        2.37433432050174       -1.44723834650135
C          273.20959007015836        2.94705015714350       -1.72110358072980
C          274.11507595701397        2.11099899340801       -1.17401977335696
C          273.36057255899277        1.03453963705627       -0.55709006124303
N          272.03076759478580        1.23143194791682       -0.73294208145672
H          275.04904369845246       -0.04143296340040        0.11421199204249
H          275.05658386375745       -2.32602532171822        1.43784731767715
H          273.16357867664340       -3.92129726607502        2.44754137332281
H          271.28015154059761       -0.65859215884941        0.54680265680842
H          269.35039021647935       -5.26194229226764        1.27905929668251
H          269.27195547031351       -7.34150995657197        2.61283758846414
H          269.86907037058188       -8.34086268418898        4.58439281629320
H          271.45464379162530       -5.41398745684056        5.75327526008401
H          271.52366098217846       -3.32530396810692        4.42272688510439
H          267.80366223357049       -3.63762279768714        2.66015226306537
H          265.98808597353013       -1.98186884882485        1.56854326576355
H          266.12276258867769        2.23886388400424       -1.55686491915844
H          268.02212811752793        3.80068698681860       -2.60240296798591
H          269.88604489694359        0.74972064058981       -0.35849599219882
H          269.64331230912546        5.37257481042876       -1.26205898129405
H          269.71148971660324        7.42566836433286       -2.64673410635000
H          271.30637554017386        7.52479381747236       -5.79217184299809
H          271.91455620404645        5.32154338658660       -5.65686433641446
H          271.83668619373060        3.26898117539257       -4.28228207202866
H          273.38642347806257        3.87148485260457       -2.24707758699253
H          275.19076507956493        2.19284688002179       -1.16428095471756
C          135.03367775611488       -0.11741755073094       -0.06277544383291
C          133.80543547392008       -0.10778805896883       -0.05445445732111
C          132.46090547356786       -0.09203985855043       -0.04347737598299
C          131.23729992186713       -0.06758083490712       -0.03371291764883
C          136.37816985697435       -0.12063893124700       -0.06548728171199
C          137.60219580807677       -0.11418047957947       -0.06535336781805
C          151.06143486781210        0.02759588491389       -0.04473165754189
C          149.83249533224972        0.02073237271952       -0.05650103613837
C          148.48943480424012        0.01264837353998       -0.06793426492732
C          147.26491074259653        0.00150118441215       -0.08085500593696
C          152.40450290209213        0.03053885973388       -0.03477800636901
C          153.62910878862601        0.03380761104622       -0.02461744121006
C          167.08637740253334        0.03404026113351       -0.03259523294955
C          165.85737124920362        0.03987727152569       -0.03841545206633
C          164.51438851313657        0.04368162030038       -0.04582017377781
C          163.28976828456283        0.04374988515960       -0.05136769120986
C          168.42935481533183        0.02843307641277       -0.02558720344738
C          169.65398661598556        0.02414665694968       -0.01406717819097
C          183.10794346472795       -0.04857567957433        0.08384391927882
C          181.87891891996796       -0.04590096417994        0.07899727010113
C          180.53602631755109       -0.04090292285200        0.06942783073311
C          179.31138404364020       -0.03762376427435        0.05735042319223
C          184.45081103440359       -0.05054040463741        0.08777473618780
C          185.67525566323212       -0.04913682230685        0.09301845702653
C          199.12695428735611       -0.02757200475499        0.05538413148795
C          197.89798617924222       -0.02687113408907        0.05064823756950
C          196.55514742181614       -0.02471075375053        0.04626831604466
C          195.33056334147759       -0.02531790018698        0.04071821364442
C          200.46980005934677       -0.02927054947000        0.05907493491095
C          201.69440228463108       -0.02807997694293        0.06294750892717
C          215.14455642272043       -0.02485119549429        0.04840377643498
C          213.91560346925320       -0.02314598313835        0.04414309792073
C          212.57279678718749       -0.02066048792652        0.03696611946356
C          211.34823170833121       -0.01924353123025        0.02999782266908
C          216.48737820540308       -0.02646570921817        0.05311534578434
C          217.71199958218818       -0.02527253775615        0.05619489600461
C          231.16244209879019        0.01066267840564       -0.02566646258933
C          229.93349392069331        0.01006030566596       -0.02695957821153
C          228.59063044929377        0.01125409385836       -0.02651520114835
C          227.36602054184945        0.00976926959533       -0.02814855878631
C          232.50533215244579        0.00775053177441       -0.02417768585247
C          233.72993974796267        0.00960373510798       -0.01908952977303
C          247.18267541031744        0.04695817901346       -0.06386611126214
C          245.95373631540033        0.03857151671062       -0.06536951507742
C          244.61071483259869        0.03353532235707       -0.06624847194492
C          243.38611586458617        0.02792129994398       -0.06823472001718
C          248.52569898705718        0.05627264634549       -0.06156035042700
C          249.75020074517835        0.06801693606733       -0.05873599730527
C          263.20655267679882        0.13475012031453       -0.02151283433191
C          261.97871237279458        0.14220432260915       -0.03476772539859
C          260.63381956073175        0.14528845888837       -0.04674940499643
C          259.41009313161567        0.14190401427449       -0.05876508736629
C          264.55156515712349        0.12364052522851       -0.00776354518453
C          265.77496984115714        0.10685309949410        0.00843672976878
C          139.00756483803602       -0.10476884462400       -0.05962474555768
C          139.64393337806547       -1.21499403106097       -0.64713906476935
C          139.00310816411300       -2.31535286133961       -1.27275579332897
C          139.97469752726514       -3.15337613459148       -1.74794814442990
C          141.23811362634444       -2.59297196126160       -1.41635679683098
N          140.98699936381868       -1.42091711131327       -0.75401041678153
C          142.50231869428850       -3.10808777196121       -1.72962798376539
C          142.52824908923370       -4.40671811957355       -2.44725740359525
C          143.09877329910591       -4.50067133564492       -3.71718132883434
C          143.12098764994477       -5.70876708733424       -4.39638438267191
C          142.57504561454883       -6.84506710453781       -3.80373395744506
O          142.57780929135205       -8.04870616691564       -4.43191902042857
C          142.00574607213210       -6.76586947888525       -2.53404883309647
C          141.98125695538039       -5.55382851793398       -1.86709277183267
C          143.72135746228204       -2.50040136889154       -1.42455982204514
C          145.01450992797587       -3.09856870563302       -1.70366407828242
C          145.94332541098908       -2.23166242214459       -1.24965122192203
N          143.88663669400759       -1.29991095582501       -0.80259977044101
C          145.21630301998078       -1.11062304895824       -0.68810992596504
C          145.86116158781238       -0.00582005234416       -0.09515533340351
C          145.22421077445668        1.09814410725824        0.50488658505426
C          145.86459446604417        2.19076713475458        1.14414192606295
C          144.89277997303859        3.03266939770262        1.61204764051716
C          143.62989713667679        2.48190191079587        1.26287608257215
N          143.88159467485187        1.31044337182406        0.59917208946686
C          142.36567451388856        3.00637122592568        1.55867276230879
C          142.33956626079345        4.30880319172890        2.26889028873975
C          142.90652553117334        5.44750594804940        1.69113641818883
C          142.88224263618000        6.66368751308966        2.35042528426353
C          142.29305082181267        6.75560898617409        3.61015514110728
O          142.29100093145675        7.96294673814413        4.23109959156735
C          141.72732526256306        5.62779614026346        4.20050150673311
C          141.74945821826375        4.41550704870736        3.52885570766958
C          141.14639453770403        2.40375865107849        1.24282976392985
C          139.85356752884493        3.01057725765630        1.50412323786827
C          138.92482074844483        2.14101589916670        1.05517323412189
C          139.65154858688217        1.01015016782215        0.51333911046094
N          140.98170741710007        1.19764123229864        0.63298810550074
H          137.93502517734120       -2.43716219663821       -1.35360352741839
H          139.83003194702582       -4.07243708655146       -2.29190692647653
H          141.70367104390695       -0.79195449622902       -0.40741664606420
H          143.51301264665491       -3.61428218411156       -4.18454603332018
H          143.55944602695877       -5.77390559827376       -5.38641068600374
H          143.00016447106921       -7.99258542564864       -5.29960565151876
H          141.58962162315663       -7.65832562787517       -2.08324445883738
H          141.55077300659252       -5.49635590560879       -0.87353917461564
H          145.16950542571732       -4.05968159619946       -2.16647892054217
H          147.01751213279172       -2.32268205617524       -1.27225075332968
H          146.93237897688877        2.30601736639271        1.23740774864553
H          145.03681441092033        3.94819876732400        2.16209514005806
H          143.16521593837561        0.68748775785419        0.24133007005966
H          143.35259927733208        5.38010780474663        0.70510518355002
H          143.31378134976265        7.54961837852684        1.90122911469125
H          141.85342629955630        7.91605005752260        5.09176243156747
H          141.27363041326413        5.70279620894366        5.18292339722644
H          141.31995164452866        3.53566695490285        3.99478425690564
H          139.69883367057582        3.97826943839409        1.95308970861718
H          137.85088479410524        2.23626024741312        1.06923418161521
C          155.03284770865781        0.02767766889653       -0.01418052313828
C          155.65671251193237       -1.07057958786616       -0.63841985811038
C          155.00268098431781       -2.14329306737256       -1.29699383145447
C          155.96408006613518       -2.98351407216451       -1.78917654260408
C          157.23374548448126       -2.45156922834683       -1.43633449586244
N          156.99680985006785       -1.29302997952797       -0.74525947544765
C          158.49159553842568       -2.97933213507421       -1.75445223432148
C          158.50077163486097       -4.26472094137684       -2.49558304921324
C          159.07860551820866       -4.34666154733728       -3.76303096168379
C          159.08488053308645       -5.54315483132394       -4.46281061819815
C          158.51536677969335       -6.67990962467954       -3.89364965183531
O          158.50206522210664       -7.87244306112062       -4.54241094909209
C          157.93828967781258       -6.61270912039550       -2.62675972428170
C          157.92984294907095       -5.41207562623075       -1.93921637447701
C          159.71784886743450       -2.39515234847023       -1.43317886026447
C          161.00385145428757       -3.00415556678208       -1.72118711793699
C          161.94261551482612       -2.15628801173727       -1.25185401058887
N          159.89690511250956       -1.20840688095945       -0.78888428700295
C          161.22859306891698       -1.03700071549438       -0.67062775366129
C          161.88615494980149        0.04977572525097       -0.05853116049310
C          161.26247472405473        1.14677180091359        0.56796389082446
C          161.91662766502890        2.21833886056793        1.22832759344753
C          160.95528686949069        3.05738611308037        1.72255279194357
C          159.68550201646073        2.52621169562176        1.36873428118610
N          159.92243400095390        1.36886814212623        0.67554266721996
C          158.42768392883116        3.05377777936742        1.68696118947301
C          158.41876626392093        4.33797969118003        2.43015362965013
C          158.99145386253974        5.48568204311714        1.87627910251456
C          158.98432866509313        6.68497816458949        2.56614625427321
C          158.40682334844348        6.75046558499118        3.83293850377817
O          158.42175942590657        7.94163305808906        4.48416502557918
C          157.83534501694567        5.61340986457250        4.39952267692591
C          157.84030170064162        4.41826638512605        3.69741401007075
C          157.20127995025101        2.47064230404218        1.36371028188367
C          155.91538787073836        3.08038840081180        1.65063066234242
C          154.97653213499541        2.23378094437053        1.17909760596496
C          155.69034161323469        1.11421102677401        0.59824588627288
N          157.02215569203611        1.28465927936483        0.71824611734267
H          153.93339790410641       -2.24712159827937       -1.38620791740508
H          155.80833193124309       -3.88552837420571       -2.35801618709209
H          157.72110752166418       -0.68483401409404       -0.37808512587613
H          159.51096634188391       -3.45962417325011       -4.21238903719071
H          159.52913026043393       -5.59885000138132       -5.45082812144996
H          158.93196654722576       -7.80899833325724       -5.40587325642060
H          157.50362940360816       -7.50542905576392       -2.19432197774150
H          157.49318549956354       -5.36412753513637       -0.94784657650739
H          161.14773803879311       -3.95892491603644       -2.20040349184014
H          163.01565367736501       -2.25981123868426       -1.27525298170598
H          162.98595778084007        2.32186731254134        1.31751080412089
H          161.11114833287110        3.95819591883524        2.29326753387655
H          159.19812553498073        0.76123325078658        0.30747089890252
H          159.42854588583967        5.43907026913913        0.88503385882520
H          159.42053012505977        7.57790729948311        2.13570838605996
H          157.99152842711109        7.87706093337219        5.34737649541342
H          157.39076628057515        5.66777949230548        5.38746586663022
H          157.40651639177827        3.53095763845224        4.14484785780811
H          155.77173989876829        4.03483723618612        2.13058090181608
H          153.90353599707512        2.33805199742351        1.20115806043126
C          171.05743466214278        0.00908152093932        0.00584092832451
C          171.67900295416712       -1.09341493438004       -0.61316545968695
C          171.02318729821872       -2.16010130007849       -1.27974260382080
C          171.98279872117541       -3.00783772764798       -1.76244597347091
C          173.25294295272028       -2.48708226205450       -1.39496693437590
N          173.01822539635933       -1.32688750269418       -0.70585314255199
C          174.50988649457409       -3.02574316810136       -1.69798029105511
C          174.51755536141664       -4.31115399475356       -2.43897060134750
C          175.11239874516400       -4.39858884446738       -3.69818524605828
C          175.11829208164301       -5.59537555939535       -4.39745226843568
C          174.53109577669699       -6.72698286196152       -3.83604007914008
O          174.51686921602413       -7.91967119557772       -4.48445596762140
C          173.93665758310198       -6.65424771939147       -2.57750434351221
C          173.92886173882536       -5.45332514578417       -1.89047330735696
C          175.73694417312171       -2.45198652594685       -1.36112733177496
C          177.02141192151333       -3.07151291091249       -1.63297008876028
C          177.96114509515186       -2.23083872337062       -1.15272337354552
N          175.91760421222730       -1.26658599503368       -0.71483527681196
C          177.24908034174996       -1.10555374349352       -0.58074535174551
C          177.90799370005070       -0.02337629814892        0.03794131027231
C          177.28646593035384        1.07798183231578        0.65887663692413
C          177.94235879754922        2.14312935603260        1.32784204272107
C          176.98281999282000        2.99039633322924        1.81143199088076
C          175.71269076914277        2.47090724863563        1.44204641872746
N          175.94732075673232        1.31167084544202        0.75129999964840
C          174.45579951761565        3.01005133769000        1.74414139690943
C          174.44868990753852        4.29443699734179        2.48682284399560
C          175.04084414522268        5.43633691449727        1.94144633030461
C          175.03525761087903        6.63579510745943        2.63102929896344
C          174.43955772210208        6.70729636005457        3.88904160573015
O          174.45645010573671        7.89841479310745        4.54025285227147
C          173.84853975310304        5.57603861241887        4.44716775132009
C          173.85226473408414        4.38074793531267        3.74536212244975
C          173.22875533928490        2.43731907013422        1.40531415025360
C          171.94446822350918        3.05793571294393        1.67535399073847
C          171.00466055685359        2.21778575225694        1.19429286988960
C          171.71650329067620        1.09166941150747        0.62369776542174
N          173.04801218059904        1.25187697451723        0.75915526789447
H          169.95409007204537       -2.25465425998346       -1.38077129195607
H          171.82575387021799       -3.90790285789284       -2.33401707905997
H          173.74373406174053       -0.72545045847245       -0.33002998174540
H          175.55867610477048       -3.51550373531111       -4.14167638428716
H          175.57600948878093       -5.65528872104965       -5.37905824207319
H          174.95976876446849       -7.86043183538191       -5.34163848760925
H          173.48824284776200       -7.54301036223405       -2.15100688546027
H          173.47879174923355       -5.40130546027438       -0.90532944110770
H          177.16354822814080       -4.02774748179582       -2.10978798158773
H          179.03350807772321       -2.34304695160195       -1.16281150350699
H          179.01142820837111        2.23697192875944        1.42981925476448
H          177.13997361539606        3.88930555997125        2.38478060581300
H          175.22183650015219        0.71104596125895        0.37414075095802
H          175.49211192936693        5.38529610705007        0.95679270701166
H          175.48659645997967        7.52429034334356        2.20705691929225
H          174.01260629732607        7.83837996728480        5.39689488970635
H          173.38977823288769        5.63501698404432        5.42834201746721
H          173.40326142787569        3.49782354245770        4.18642198181733
H          171.80259930854092        4.01455256694158        2.15149019931051
H          169.93237780608575        2.33088690261020        1.20307211885351
C          187.07885700054391       -0.05191620179298        0.09568953679810
C          187.70194158233102       -1.14918718305956       -0.53100133747463
C          187.04657876141306       -2.22273864255106       -1.18699495029510
C          188.00701040732702       -3.06110388652635       -1.68419604251039
C          189.27737663897304       -2.52747858321565       -1.33655221384363
N          189.04179318206462       -1.36956856506624       -0.64389588778858
C          190.53487507344218       -3.05296416467892       -1.65948247938642
C          190.54436834820567       -4.33762335963973       -2.40172169646813
C          191.11960749369564       -4.41756882947956       -3.67049131143896
C          191.12639236238917       -5.61349204705288       -4.37123467450039
C          190.56007642914327       -6.75168540361323       -3.80173325291618
O          190.54740790023865       -7.94372732550640       -4.45137399147472
C          189.98564213817727       -6.68646428438046       -2.53353099984630
C          189.97660806392494       -5.48639361433914       -1.84502522371578
C          191.76081204242851       -2.46678408780895       -1.34054542350452
C          193.04735078973201       -3.07326399342424       -1.63114058121278
C          193.98531447812695       -2.22463284184100       -1.16157047914132
N          191.93869059141272       -1.28047027822683       -0.69516532442076
C          193.27021386428819       -1.10712244914614       -0.57819210578720
C          193.92705639713387       -0.01992061186780        0.03379308531258
C          193.30408579311467        1.07779257830813        0.65967324609549
C          193.95942256213078        2.15066941674324        1.31676274794028
C          192.99899293489972        2.99113227885260        1.81039570760571
C          191.72871018835494        2.45917815674926        1.45983650986380
N          191.96431146671469        1.30028982454908        0.76886113427322
C          190.47115762049253        2.98670086641590        1.77928411159546
C          190.46230753501695        4.27289196583269        2.51883024212858
C          191.03413577354596        5.41929665090933        1.96133230163613
C          191.02693080032071        6.62054002307918        2.64780319844787
C          190.45026594570575        6.68936268484939        3.91480344150731
O          190.46507583337163        7.88236565153795        4.56261064027897
C          189.87976471970413        5.55361176489879        4.48504516603556
C          189.88479088067197        4.35649958553156        3.78633858762954
C          189.24520160848022        2.40034948158222        1.46056425602367
C          187.95862885362459        3.00765232933469        1.74930984651961
C          187.02065410096282        2.15685596927234        1.28364418660725
C          187.73573964675722        1.03757813535392        0.70366873669680