219
 energy: -386.200209214850 gnorm: 1.966732804086 xtb: 6.5.1 (b24c23e)
Ni          33.61616600000000       -0.01831600000000       -0.03757600000000
C           30.27211500000000        0.11130100000000        0.05479700000000
C           30.93998900000000        0.89579100000000        0.90528000000000
C           30.29510000000000        1.77511500000000        1.87354300000000
C           31.24099300000000        2.42556400000000        2.52502200000000
C           32.54292000000000        1.99438300000000        1.99940600000000
N           32.35966200000000        1.01896700000000        0.97340400000000
C           33.73651300000000        2.47269100000000        2.40208500000000
C           35.03004200000000        2.01988600000000        1.83004200000000
C           36.32160600000000        2.63718600000000        2.15241100000000
C           37.25597800000000        1.98178800000000        1.49468600000000
N           35.16772000000000        1.02313400000000        1.01007000000000
C           36.56848099999999        0.93464900000000        0.74827200000000
C           37.16161600000000        0.00171600000000       -0.01521300000000
C           36.40121200000000       -1.04615500000000       -0.73551900000000
C           36.94784800000000       -2.14015300000000       -1.25146500000000
C           35.89934399999999       -2.86227800000000       -1.94377900000000
C           34.77984400000000       -2.16140000000000       -1.80756500000000
C           33.48514600000000       -2.52734400000000       -2.43761700000000
C           33.48900900000000       -3.53652800000000       -3.52690000000000
C           34.01665400000000       -3.19782200000000       -4.78904600000000
O           34.51468200000000       -1.89908000000000       -4.98846000000000
C           35.07788200000000       -1.42778700000000       -6.20777500000000
C           34.02790100000000       -4.16278800000000       -5.81288200000000
C           33.52330500000000       -5.44220900000000       -5.58110300000000
C           33.00629200000000       -5.77942600000000       -4.33032300000000
C           32.98827000000000       -4.83297200000000       -3.28933900000000
O           32.48889100000000       -5.14362300000000       -2.01301100000000
C           31.94146400000000       -6.40512000000000       -1.64479300000000
C           32.32213000000000       -1.96718100000000       -2.05643200000000
C           31.00547200000000       -2.24903400000000       -2.62483500000000
C           30.14492300000000       -1.53020700000000       -1.93055300000000
C           30.90353000000000       -0.78337100000000       -0.92825700000000
N           32.17407300000000       -1.03075200000000       -0.99181100000000
N           35.00628900000000       -0.97938900000000       -1.03637800000000
C           33.78058500000000        3.51200900000000        3.45667500000000
C           33.91100500000000        3.13222200000000        4.80669100000000
O           33.99623800000000        1.76525600000000        5.12000800000000
C           34.11784400000000        1.24526300000000        6.44012600000000
C           33.95072300000000        4.12749500000000        5.80054300000000
C           33.86402300000000        5.47561400000000        5.45128100000000
C           33.73906600000000        5.85065800000000        4.11304100000000
C           33.69779000000000        4.87284200000000        3.10203900000000
O           33.57726500000000        5.21238100000000        1.74389700000000
C           33.49835700000000        6.54515900000000        1.24866100000000
H           29.18872200000000        0.13410200000000        0.07725400000000
H           29.23129600000000        1.88969500000000        2.03859000000000
H           31.06065700000000        3.15477200000000        3.30439600000000
H           36.49819300000000        3.47861600000000        2.80960000000000
H           38.31525100000000        2.19772300000000        1.53083200000000
H           37.98621700000000       -2.43706700000000       -1.19051700000000
H           36.01829600000000       -3.78864900000000       -2.49062700000000
H           34.32270800000000       -1.47557900000000       -7.02053200000000
H           35.39264900000000       -0.37207200000000       -6.07687000000000
H           35.96948700000000       -2.03308800000000       -6.47551100000000
H           34.42378600000000       -3.93375400000000       -6.79280400000000
H           33.53581800000000       -6.17806400000000       -6.37491800000000
H           32.62706400000000       -6.78106200000000       -4.18199100000000
H           31.62299000000000       -6.36557000000000       -0.58321300000000
H           31.05474299999999       -6.63398400000000       -2.27293200000000
H           32.70708500000000       -7.20193400000000       -1.75716900000000
H           30.75866500000000       -2.91237500000000       -3.44366800000000
H           29.07431400000000       -1.50666000000000       -2.08610800000000
H           34.16533000000000        0.13844100000000        6.39001800000000
H           33.23448200000000        1.53616900000000        7.04711000000000
H           35.05011499999999        1.62062200000000        6.91355400000000
H           34.04694500000000        3.87019200000000        6.84661600000000
H           33.89480200000000        6.23471600000000        6.22247100000000
H           33.67604900000000        6.90383900000000        3.87565100000000
H           34.41634799999999        7.10875100000000        1.52076700000000
H           33.41467200000000        6.51586900000000        0.14318100000000
H           32.59989900000000        7.05179400000000        1.66013800000000
Ni          55.63003300000000        0.02100700000000        0.00779200000000
C           58.97408399999999       -0.05201700000000       -0.13363100000000
C           58.30621000000000       -0.78243800000000       -1.03097700000000
C           58.95110000000000       -1.61597400000000       -2.03892700000000
C           58.00520600000000       -2.16845000000000       -2.77532300000000
C           56.70327900000000       -1.70941400000000       -2.27385000000000
N           56.88653699999999       -0.83237400000000       -1.16258200000000
C           55.50968599999999       -2.04006500000000       -2.80450900000000
C           54.21615700000000       -1.53814500000000       -2.27503700000000
C           52.92459299999999       -1.76955600000000       -2.93187000000000
C           51.99022100000000       -1.21160100000000       -2.18968800000000
N           54.07847900000000       -0.86807700000000       -1.17191500000000
C           52.67771799999999       -0.62150300000000       -1.04713900000000
C           52.08458400000000        0.00171600000000       -0.01521300000000
C           52.84498700000000        0.56586700000000        1.12435200000000
C           52.29835100000000        0.92117900000000        2.28054700000000
C           53.34685499999999        1.50389400000000        3.09369300000000
C           54.46635500000000        1.46862100000000        2.38057300000000
C           55.76105400000000        2.04030200000000        2.83230500000000
C           55.75718999999999        2.97518300000000        3.98598900000000
C           55.22954500000000        4.27264400000000        3.83000600000000
O           54.73151699999999        4.65452300000000        2.57276100000000
C           54.16831700000000        5.92842000000000        2.27945100000000
C           55.21829900000000        5.14902400000000        4.93062300000000
C           55.72289400000000        4.73785300000000        6.16414500000000
C           56.23990700000000        3.45185400000000        6.32026900000000
C           56.25792900000000        2.55587000000000        5.23554100000000
O           56.75730799999999        1.24835700000000        5.36173800000000
C           57.30473500000000        0.70467700000000        6.55813700000000
C           56.92406900000000        1.74255300000000        2.22367500000000
C           58.24072700000000        2.26515400000000        2.58341200000000
C           59.10127600000000        1.68002300000000        1.77325100000000
C           58.34266900000000        0.79398000000000        0.89161100000000
N           57.07212599999999        0.82174800000000        1.14551200000000
N           54.23990999999999        0.87315900000000        1.10100000000000
C           55.46561400000000       -2.93632500000000       -3.98309300000000
C           55.33519400000000       -4.32660100000000       -3.79892700000000
O           55.24996099999999       -4.83091900000000       -2.49033100000000
C           55.12835500000000       -6.21151500000000       -2.16313400000000
C           55.29547600000000       -5.16899500000000       -4.92528600000000
C           55.38217700000000       -4.63177400000000       -6.21012100000000
C           55.50713300000000       -3.25382900000000       -6.39126400000000
C           55.54840900000000       -2.39197800000000       -5.27975000000000
O           55.66893400000000       -0.99937700000000       -5.42292100000000
C           55.74784200000000       -0.31984100000000       -6.67183500000000
H           60.05747700000000       -0.07100800000000       -0.15939100000000
H           60.01490300000000       -1.76307200000000       -2.17579000000000
H           58.18554300000000       -2.83633600000000       -3.60784800000000
H           52.74800599999999       -2.30055600000000       -3.85812100000000
H           50.93094900000000       -1.21670600000000       -2.40856700000000
H           51.25998199999999        0.81867100000000        2.56579200000000
H           53.22790300000000        1.91360500000000        4.08834900000000
H           54.92349200000000        6.72614700000000        2.44221100000000
H           53.85354999999999        5.94880700000000        1.21584700000000
H           53.27671200000000        6.10745800000000        2.91664600000000
H           54.82241300000000        6.15154300000000        4.84311000000000
H           55.71038100000000        5.41908900000000        7.00530000000000
H           56.61913500000000        3.16274300000000        7.29067700000000
H           57.62320900000000       -0.34052000000000        6.36819000000000
H           58.19145699999999        1.29393600000000        6.87390800000000
H           56.53911400000000        0.70272600000000        7.36283400000000
H           58.48753400000000        2.98145600000000        3.35634200000000
H           60.17188500000000        1.83734600000000        1.77204000000000
H           55.08086900000000       -6.31914000000000       -1.06041800000000
H           56.01171700000000       -6.77102100000000       -2.53731200000000
H           54.19608500000000       -6.62682200000000       -2.60193700000000
H           55.19925400000000       -6.24101100000000       -4.81918700000000
H           55.35139700000000       -5.28731300000000       -7.07107300000000
H           55.57015100000000       -2.86924200000000       -7.40004400000000
H           54.82985100000000       -0.50913000000000       -7.26836500000000
H           55.83152700000000        0.77026800000000       -6.48580800000000
H           56.64630000000000       -0.65517800000000       -7.23178300000000
C           38.90730000000000        0.00171600000000       -0.01521300000000
C           40.12921800000000        0.00171600000000       -0.01521300000000
C           49.11698100000000        0.00171600000000       -0.01521300000000
C           50.33889900000000        0.00171600000000       -0.01521300000000
Ni          44.53217200000000        0.00395400000000       -0.05784200000000
C           41.17669600000000       -0.00357800000000        0.03171200000000
C           41.83391500000000       -0.05153200000000        1.20513100000000
C           41.19276800000000       -0.16796500000000        2.51703300000000
C           42.13292500000000       -0.14920300000000        3.44059100000000
C           43.43174700000000       -0.01771500000000        2.77420600000000
N           43.25263000000000        0.04078900000000        1.35746000000000
C           44.61712000000000        0.06111000000000        3.41222900000000
C           45.91788400000000        0.18107200000000        2.70931900000000
C           47.18972599999999        0.44716900000000        3.39179100000000
C           48.14393399999999        0.43629300000000        2.48394500000000
N           46.08522399999999        0.01200600000000        1.43456500000000
C           47.48771500000000        0.15973400000000        1.21214700000000
C           48.10584200000000       -0.00357800000000        0.03171200000000
C           47.36296800000000       -0.28086300000000       -1.21710400000000
C           47.91580000000000       -0.74804500000000       -2.32942600000000
C           46.88112999999999       -0.77685100000000       -3.34458700000000
C           45.76575500000000       -0.32411800000000       -2.78385800000000
C           44.49830600000000       -0.09001100000000       -3.51625400000000
C           44.54427700000000       -0.00486000000000       -4.99750100000000
C           44.05299500000000       -1.06954100000000       -5.77982400000000
O           43.52868500000000       -2.20089300000000       -5.13192800000000
C           43.00376099999999       -3.34336600000000       -5.79963800000000
C           44.10534100000000       -0.97413600000000       -7.18267800000000
C           44.64435000000000        0.15853400000000       -7.79280600000000
C           45.13866999999999        1.20780100000000       -7.01818400000000
C           45.09471900000000        1.13651100000000       -5.61362300000000
O           45.58051300000000        2.17561800000000       -4.80234300000000
C           46.15371099999999        3.38321800000000       -5.29223900000000
C           43.32413200000000        0.06742400000000       -2.87791300000000
C           42.04083599999999        0.34656300000000       -3.51308800000000
C           41.15009100000000        0.36934500000000       -2.54317300000000
C           41.85361800000000        0.10845300000000       -1.28181000000000
N           43.12531300000000       -0.06735400000000       -1.47081100000000
N           45.97906800000000        0.00934400000000       -1.41286000000000
C           44.64650500000000        0.02117300000000        4.89338900000000
C           44.89298900000000       -1.19824100000000        5.55348600000000
O           45.09979000000000       -2.35502200000000        4.78329900000000
C           45.35689299999999       -3.64792100000000        5.32069500000000
C           44.92355799999999       -1.22541100000000        6.95978100000000
C           44.71460600000000       -0.05655400000000        7.69177400000000
C           44.47536100000000        1.15149300000000        7.03692800000000
C           44.44072900000000        1.20331900000000        5.63130700000000
O           44.20985200000000        2.40290500000000        4.93737900000000
C           43.99840900000000        3.66675600000000        5.55760900000000
H           40.13505499999999       -0.25384900000000        2.72686600000000
H           41.94902700000000       -0.21760900000000        4.50516700000000
H           47.33974700000000        0.61978200000000        4.44943800000000
H           49.19618900000000        0.59674200000000        2.67736100000000
H           48.95123999999999       -1.02712500000000       -2.47068500000000
H           47.00911199999999       -1.07354600000000       -4.37758500000000
H           42.13618600000000       -3.05203400000000       -6.42860300000000
H           42.66346700000000       -4.08029700000000       -5.04350000000000
H           43.79088500000000       -3.81464800000000       -6.42570600000000
H           43.73419400000000       -1.77158700000000       -7.81147500000000
H           44.68082299999999        0.22277700000000       -8.87284600000000
H           45.55162400000000        2.07123200000000       -7.52192500000000
H           46.45107699999999        4.01711000000000       -4.43243200000000
H           45.41085200000000        3.93850000000000       -5.90291400000000
H           47.05664100000000        3.15856400000000       -5.89838700000000
H           41.83467000000000        0.50637700000000       -4.56367000000000
H           40.09304399999999        0.55524300000000       -2.67955500000000
H           44.50298900000000       -3.97603500000000        5.95012900000000
H           45.48152300000000       -4.36796600000000        4.48609500000000
H           46.29149800000000       -3.63349000000000        5.92015000000000
H           45.10831700000000       -2.14512000000000        7.49747500000000
H           44.74047100000000       -0.08673000000000        8.77340300000000
H           44.32084500000000        2.04023300000000        7.63327100000000
H           44.88554200000000        3.94784500000000        6.16339000000000
H           43.09213200000000        3.63040000000000        6.19840000000000
H           43.84723600000000        4.43475900000000        4.77176600000000
219
 energy: -386.739457913578 gnorm: 0.490398206724 xtb: 6.5.1 (b24c23e)
Ni          33.62194728060657       -0.01616932969414       -0.03479733832343
C           30.27261504061420        0.10308075027620        0.04550548894231
C           30.94644341702906        0.89666787169322        0.90665066567575
C           30.29429006793685        1.77181662649082        1.87015965642664
C           31.24757424896945        2.42665978934987        2.52592103346255
C           32.54149984122989        1.98914738979778        1.99493361179249
N           32.34994364738734        1.02436231389772        0.97811632543632
C           33.74742842756668        2.47035951786465        2.39865798279508
C           35.02345671674890        2.02736225156682        1.83765753621463
C           36.31240653185765        2.64101929164944        2.15753525699822
C           37.25586768325764        1.97738423306426        1.49128495040832
N           35.17214861112375        1.01977491696418        1.00258377101248
C           36.57114825594587        0.93428926962348        0.74776314004982
C           37.17457448164257       -0.00789919870442       -0.02011268130273
C           36.39798781712468       -1.03289543117986       -0.73190184905506
C           36.94840835563107       -2.15346621596992       -1.26077695719365
C           35.91476261663189       -2.86449439626576       -1.94286130656228
C           34.76941917459235       -2.15069261247431       -1.80569503879779
C           33.49480990277238       -2.52327849393924       -2.43286527141022
C           33.49199632947350       -3.53639035830485       -3.52503253906599
C           34.01885671329298       -3.19674508574455       -4.79215923839389
O           34.51171835528930       -1.90380523912939       -4.98458921678004
C           35.07598279165707       -1.43231053438911       -6.20654763744322
C           34.02753014792651       -4.16193175386149       -5.81170878593461
C           33.52329366810803       -5.43904391959086       -5.57767596572552
C           33.00639076593881       -5.77819247509324       -4.32942405998758
C           32.98668908792159       -4.83609904415201       -3.28859152496083
O           32.49144196080071       -5.13924585053511       -2.01730395857308
C           31.94337983167463       -6.40359983348804       -1.64926349590293
C           32.32149042618808       -1.96539992152053       -2.05504319628388
C           31.01181070433913       -2.24972004086144       -2.62448386884766
C           30.13964290878255       -1.52470698309786       -1.92417605796575
C           30.89093840232363       -0.77782407677967       -0.92258105431827
N           32.17955005317130       -1.03152367223175       -0.99569547876764
N           35.00744268655718       -0.98313071832352       -1.03293815513816
C           33.78246089750489        3.51262734823048        3.45679219115785
C           33.91145354214901        3.13132374364736        4.81052897308035
O           33.99566670536569        1.77013105389882        5.11558678736679
C           34.11753911717349        1.25015915494139        6.43845641213559
C           33.95053518562671        4.12689901563837        5.79947732412874
C           33.86390592653435        5.47234179724360        5.44794061628391
C           33.73903360472117        5.84962149691267        4.11244157823745
C           33.69770146128380        4.87684184730015        3.10126685378313
O           33.57784299679586        5.20787125539881        1.74867307654470
C           33.49881798109526        6.54341492209992        1.25348506455732
H           29.18901036078240        0.13282582288946        0.07538545750834
H           29.23139778918265        1.88717755106040        2.03601107790789
H           31.06497322437085        3.15490787021729        3.30445759142674
H           36.49457764428335        3.47959561975408        2.81089322691552
H           38.31475050365641        2.19448172037109        1.52813026320061
H           37.98627557257423       -2.43888267574201       -1.19153360320974
H           36.02034950811017       -3.78894910415219       -2.49000009345055
H           34.32556272630760       -1.47566140212186       -7.01931794133836
H           35.38990627979236       -0.37782585383839       -6.07452880577006
H           35.96698185990991       -2.03138952157048       -6.47604991633177
H           34.42392438336407       -3.93292503706919       -6.79249917349494
H           33.53579060935255       -6.17716348851136       -6.37393699897421
H           32.62687581528657       -6.78084153681620       -4.18112055004932
H           31.62569636183870       -6.36275588853111       -0.58868920585934
H           31.05724137497306       -6.63464243352912       -2.27127491291377
H           32.70423011343910       -7.20066141492584       -1.75714557601106
H           30.76282150731848       -2.91236739021188       -3.44297774011363
H           29.07310971548761       -1.50447320867845       -2.08380231222781
H           34.16485642306505        0.14449741226119        6.38712284475798
H           33.23748665425562        1.53546434670730        7.04661048054034
H           35.04712002681146        1.61958610083593        6.91346117567340
H           34.04697999611463        3.86940580429400        6.84639108090250
H           33.89477221869657        6.23377395491737        6.22151473453506
H           33.67599390177714        6.90366744265144        3.87486486502982
H           34.41324877106171        7.10831855412556        1.52014578053565
H           33.41522187946308        6.51285688274270        0.14917043082422
H           32.60281680175725        7.05164940051763        1.65904506614512
Ni          55.62422762116522        0.01857083916005        0.00526279280325
C           58.97356807493694       -0.04401582398732       -0.12421274992091
C           58.29980886547921       -0.78367466598827       -1.03205214687776
C           58.95192508576768       -1.61309510233571       -2.03517967206325
C           57.99862117494457       -2.16917407275459       -2.77652758476267
C           56.70476884400568       -1.70566162519384       -2.26795860172757
N           56.89622052320397       -0.83633092143525       -1.16860961592392
C           55.49858754079530       -2.03699929782802       -2.80171609548315
C           54.22287471740385       -1.54476103993565       -2.28360207905051
C           52.93381094125709       -1.77410828060565       -2.93647570851431
C           51.99069057870976       -1.20892636536376       -2.18491652404319
N           54.07393496397931       -0.86106715003086       -1.16740387975327
C           52.67538081597665       -0.62078769223367       -1.04721852158175
C           52.07182245181250        0.00563817857798       -0.00464149179689
C           52.84826658391216        0.56388466134486        1.11121431529293
C           52.29809259968903        0.92853779508825        2.29511054346925
C           53.33149833439115        1.50272451710891        3.09582350997560
C           54.47679176267173        1.46833414994101        2.36972779859517
C           55.75136753255364        2.03619401740987        2.82763137825031
C           55.75420082796328        2.97335788652911        3.98560780756326
C           55.22730374706280        4.27590757175844        3.82934257666255
O           54.73452261854819        4.64997560183088        2.57692478973106
C           54.17018383247989        5.92660298623662        2.28375268704600
C           55.21867794281611        5.14798403630311        4.92961160268823
C           55.72290093523672        4.73491400842100        6.16051281920416
C           56.23980620786634        3.45113726476955        6.31891718295422
C           56.25952209746561        2.55469172257196        5.23854361450508
O           56.75475476395442        1.25321158805971        5.35799401699498
C           57.30282601661663        0.70931359580053        6.55728035234251
C           56.92472134450537        1.74142553643744        2.22170904326647
C           58.23438210604635        2.26470602089608        2.58403994105071
C           59.10655474237559        1.67449317700180        1.76690387835821
C           58.35523537798373        0.78918375224202        0.88535618492080
N           57.06666924331756        0.82549427474985        1.14681685626799
N           54.23865511458038        0.86919022996616        1.10420647476144
C           55.46373171194874       -2.93635912583075       -3.98374794078894
C           55.33472927689632       -4.33055900037025       -3.79854866531730
O           55.25056391400334       -4.82580428083288       -2.49455226700994
C           55.12864122162294       -6.20920111285721       -2.16774065312091
C           55.29567193652416       -5.16801810869820       -4.92454804759292
C           55.38229481487026       -4.62893501047081       -6.20639729002119
C           55.50716782202530       -3.25338406799396       -6.39014736390326
C           55.54849513779799       -2.39064728757769       -5.28361742497551
O           55.66836194472049       -1.00472828981316       -5.41910907083941
C           55.74737987861010       -0.32486081349213       -6.67080625859171
H           60.05717858868010       -0.06934607364543       -0.15786416181932
H           60.01479729511815       -1.76087500337894       -2.17293087790420
H           58.18121637394162       -2.83636948575078       -3.60798094564532
H           52.75160729674599       -2.30169091077024       -3.85927913377026
H           50.93196688826438       -1.21460768109494       -2.40504559155001
H           51.26024461487390        0.81949087905037        2.56784694180967
H           53.22585045494493        1.91294819581676        4.08856918174294
H           54.92063734126015        6.72492668905326        2.44211914694850
H           53.85629487539217        5.94566803599937        1.22121172056065
H           53.27922579536558        6.10822212692713        2.91503935701195
H           54.82227679229160        6.15134584673012        4.84224400272897
H           55.71040754816502        5.41824046451920        7.00426307871672
H           56.61932226855877        3.16190908879761        7.29032898307898
H           57.62050342932091       -0.33470058639947        6.36618368539236
H           58.18895684213005        1.29220247510694        6.87432225138230
H           56.54196874237112        0.70288430682212        7.36156914382400
H           58.48337240343336        2.98076659440565        3.35623075877899
H           60.17308093447292        1.83537076452232        1.76954488291259
H           55.08134203074823       -6.31541047354045       -1.06600299823333
H           56.00871070966555       -6.77062206441337       -2.53654232976343
H           54.19908315702990       -6.62686623244575       -2.60089786485063
H           55.19921749858442       -6.24088582107289       -4.81837354382802
H           55.35142528374440       -5.28649458276615       -7.06999757181085
H           55.57020472216867       -2.86848525477897       -7.39975412586650
H           54.83295010156498       -0.50857776269996       -7.26784571436677
H           55.83097717226926        0.76391232104479       -6.48367863953484
H           56.64338119305575       -0.65411725763754       -7.23148252547738
C           38.82491179896136        0.00119019585597       -0.01548542147790
C           40.00820385834056        0.00139788475336       -0.02461117075873
C           49.25486973066710        0.00273352761818       -0.02856409860505
C           50.43115174639495        0.00185936311285       -0.01684757752957
Ni          44.53946667677697        0.00293001214831       -0.05434094090278
C           41.27145999925884       -0.00147226700133        0.02394668167015
C           41.86794407747400       -0.05245937917089        1.22106907745829
C           41.19310048977600       -0.16765458800672        2.50938025253235
C           42.14056201245013       -0.14872755466305        3.44285494029454
C           43.43083078168276       -0.01847612895914        2.76994731969246
N           43.24985889272883        0.04061996878320        1.36874698224417
C           44.62799037693680        0.06223994365465        3.40995904383372
C           45.90951539248481        0.18097963177700        2.72502739313375
C           47.17918048731533        0.44608329122067        3.39955437622350
C           48.14116499209766        0.43482926036933        2.47635703918536
N           46.07989612490913        0.01508028387998        1.43298765020279
C           47.45159267707328        0.16299445562224        1.22907253965652
C           47.98808682323465       -0.00631829613761        0.02691917197838
C           47.32964229355277       -0.27844668287964       -1.21701978728177