219
 energy: -387.032629281752 gnorm: 0.000331185777 xtb: 6.5.1 (b24c23e)
Ni          33.74695615747646        0.14911704928022       -0.07163341454901
C           30.36753202839735        0.39614365368801       -0.28325430390118
C           31.01802588356190        1.19303100771968        0.63554368794477
C           30.33958766217889        2.09905543008034        1.51198587488859
C           31.28257466767118        2.63305034910316        2.32250347214952
C           32.53865788222451        2.06599848711703        1.92889071413149
N           32.36675380682194        1.18820032586644        0.88756081109249
C           33.74369236476043        2.35437781320061        2.55212367102692
C           34.95356264814266        1.82123239948396        2.13373204679245
C           36.21302195698211        2.16945456603795        2.71777612378061
C           37.16869351302168        1.55069496931378        1.98470702672780
N           35.13619863761086        0.97556880314610        1.06293604339027
C           36.49148007642069        0.81763434696167        0.96201137204469
C           37.15892514008367        0.07562276697516       -0.01395004886012
C           36.49084073816478       -0.68496626066639       -0.97502822314347
C           37.16950939762384       -1.52272138489297       -1.91306994498252
C           36.21333302408841       -2.19155270190963       -2.59983544978624
C           34.95098229435344       -1.74446099917143       -2.09471844847015
C           33.72960944027243       -2.22052188298243       -2.54830766851796
C           33.71851636886738       -3.27043733423390       -3.60473758690154
C           34.12374084255998       -2.96860451502050       -4.91161652911917
O           34.50647764555099       -1.68307434970230       -5.13240867360578
C           34.95422937176186       -1.27746709443254       -6.40975347325785
C           34.11050697297463       -3.95285013970059       -5.89938398731628
C           33.69433478732658       -5.23544267067541       -5.57578969564679
C           33.28799246809216       -5.55738671467357       -4.28969682189562
C           33.29736851891745       -4.57216611357441       -3.30267588609630
O           32.92213507797135       -4.79066303048370       -2.01471740631408
C           32.48022094718407       -6.06869959586720       -1.60453802322103
C           32.51504692885529       -1.73895778739265       -2.08188889931373
C           31.24499107074609       -2.15113885125021       -2.60315951389022
C           30.30476804401866       -1.39584966608912       -1.98924434130517
C           31.00010722787467       -0.53063192422798       -1.08545887220577
N           32.35291341077045       -0.75261669463251       -1.14093530240537
N           35.13403574722834       -0.81345398465288       -1.09719045903999
C           33.74463025805579        3.30334266798436        3.70052357396441
C           33.97868367505992        2.84043864181610        5.00165670353938
O           34.18738948102201        1.50326555754357        5.12646179385775
C           34.44138936971147        0.93361555807239        6.39443510680506
C           33.97971311245432        3.72920742876910        6.07644773659038
C           33.75314488200214        5.07738400485575        5.84396677227372
C           33.52326345116106        5.55896592445365        4.56402512709945
C           33.51672499657967        4.66951780607137        3.49000290483025
O           33.30605061679151        5.04387340755622        2.20038013289749
C           33.07175882268834        6.39927666020581        1.87666928130379
H           29.29001119221155        0.48505301850137       -0.36105480844713
H           29.27591009458755        2.27796864114769        1.50123732134651
H           31.15463297728345        3.34787975927211        3.11908433958912
H           36.33768127165646        2.81639220258114        3.57077215257003
H           38.23899136490823        1.58145479347790        2.11038832988364
H           38.24108505070829       -1.59369335493758       -2.00843605553211
H           36.34011045446522       -2.92309364657942       -3.38088617851532
H           34.16895474671922       -1.39287661131902       -7.16671198853169
H           35.21233382982158       -0.22068554526709       -6.31940337758848
H           35.84308451569217       -1.83970232467094       -6.72104485121393
H           34.41900017289495       -3.72894052923780       -6.91180412151805
H           33.68568377965305       -6.00128674902008       -6.34362753567543
H           32.96852150830730       -6.56635027361369       -4.06561598025569
H           32.24043929856452       -5.98097068995342       -0.54324165953131
H           31.58157694672693       -6.37800329568309       -2.15216165213389
H           33.26276873852048       -6.82594911428797       -1.73541332847240
H           31.10737439927089       -2.91383405617310       -3.35239009670258
H           29.23423176833092       -1.40825472070296       -2.12092620295585
H           34.58446965227836       -0.13504320483784        6.22413032917113
H           33.59547893971362        1.07932035148934        7.07728193062740
H           35.34891788265639        1.35057309530962        6.84783012127440
H           34.15468993237118        3.38161176854905        7.08582611533986
H           33.75602807722988        5.76884187214479        6.67947044412982
H           33.35197670160561        6.61622746085243        4.41186507939767
H           33.92590126365569        7.03102603464086        2.14921189823263
H           32.93185707549306        6.43313862866547        0.79460729237097
H           32.16813969750027        6.77974747536395        2.36838711765329
Ni          55.49658619182715        0.07193960302138       -0.14271002716774
C           58.87176092932837        0.36257481723533       -0.39372623919075
C           58.22811160986009       -0.48369692920560       -1.27253573684072
C           58.91216465631162       -1.26816920955473       -2.25527302104822
C           57.96406144390061       -1.96669404954964       -2.92194462350574
C           56.69962542021897       -1.59013382197975       -2.36185706788750
N           56.87419166280011       -0.69669200779075       -1.33404594249813
C           55.47858974377517       -2.04233200646880       -2.83964111734290
C           54.26483256130136       -1.63294044310394       -2.30694835279041
C           52.99708813379762       -2.01518792435465       -2.84945851401371
C           52.04961944149844       -1.42760935835731       -2.08110456630569
N           54.09419435315883       -0.80813285370550       -1.21827609975037
C           52.73866337589504       -0.69235655291669       -1.06821137841935
C           52.08235684001810       -0.02141099318081       -0.03399306566816
C           52.76621158988011        0.63482352312274        0.99177222935110
C           52.10735013435971        1.25425432425166        2.09787330301285
C           53.07489680601442        1.79586367158101        2.87489675788711
C           54.32261156042031        1.52639758179887        2.22817042848669
C           55.54174960286422        1.99713958919647        2.69096724266023
C           55.56543052676272        2.81961321551667        3.93277997903308
C           55.04925295891891        4.12212637701476        3.92983465615107
O           54.54894714677602        4.55878584520064        2.74421538880336
C           53.98941473027454        5.85175496097728        2.63449793940794
C           55.07637422293165        4.89340096202613        5.09133238973474
C           55.61594999763904        4.35720785224272        6.25080489750700
C           56.13150152639773        3.07017179172810        6.27748412608563
C           56.10883608887445        2.30035348530566        5.11474279675259
O           56.58457696547607        1.02932978512710        5.04042950369196
C           57.14069472727162        0.40559030384282        6.17986974748487
C           56.73839039402137        1.76428569217027        2.02974836809576
C           57.99410516271418        2.31933503090133        2.44073103885195
C           58.92303816629833        1.88367704320991        1.55815826840289
C           58.23516056764909        1.05488150177401        0.61511278088838
N           56.89387686067931        1.00102570767021        0.89984957468429
N           54.12238565907350        0.79253001777857        1.08046275969312
C           55.46377119662264       -2.98381287070146       -3.99350887027092
C           55.05031350739436       -4.31103094306956       -3.81601292556016
O           54.69358556712273       -4.65713851671823       -2.55134251204312
C           54.22777719125264       -5.96119627260155       -2.26955240581077
C           55.03150063428404       -5.19442548419018       -4.89492864754798
C           55.41983838855494       -4.74563503508691       -6.14812741348118
C           55.82878085085346       -3.43591387004255       -6.34878376674057
C           55.85257762905437       -2.55362171971314       -5.26911151017632
O           56.22875611046261       -1.25095737279302       -5.36821788108745
C           56.64854615619392       -0.71882366070108       -6.60804538140822
H           59.94698373116856        0.46708820131924       -0.48290982115124
H           59.98181361024418       -1.27551914379042       -2.39442676561205
H           58.09316660688570       -2.66946308598958       -3.72896015477381
H           52.86188879739047       -2.64945946151154       -3.71028789741267
H           50.97746787129000       -1.48900470747158       -2.17250810744568
H           51.04022540683282        1.26344203945723        2.24900784280435
H           52.96534444040589        2.34060844598127        3.79836650995452
H           54.73208576256285        6.63052086964149        2.84659895068900
H           53.65253499525778        5.94986106159138        1.60084925751075
H           53.13141124194200        5.97653978199245        3.30618513565237
H           54.68383361991767        5.90143380012902        5.09902318664487
H           55.63564767264405        4.95652085584371        7.15447381056615
H           56.54541159334050        2.67781081870842        7.19673507245594
H           57.43848763725752       -0.59570334079338        5.86317136267761
H           58.02358267439341        0.94558510625301        6.54320578369615
H           56.40720260242665        0.32324529778481        6.99120208979110
H           58.12974869863289        2.96272591321644        3.29508153394385
H           59.98225055206984        2.08629695978528        1.53454192255939
H           53.98691432706133       -5.97402241655364       -1.20497292404967
H           54.99685591217545       -6.71607467632616       -2.47377258638851
H           53.32521133033215       -6.19826829080778       -2.84583952241245
H           54.71860834886559       -6.22203421875447       -4.76702831780872
H           55.40298638776918       -5.43195408048174       -6.98767300170273
H           56.12302447797350       -3.11220011724834       -7.33817891605540
H           55.84810581609806       -0.76336304599398       -7.35658670509048
H           56.90473623277619        0.32536828877735       -6.41920823296936
H           57.53274792742046       -1.24250652368860       -6.99151349932715
C           38.56976659818994        0.06708137072168       -0.00914499687039
C           39.78528678591390        0.05924999675212       -0.00959420126343
C           49.45598279209138       -0.03047445150232        0.00725740766873
C           50.67195146398346       -0.02924915780773       -0.01036134716926
Ni          44.61938931519759       -0.01068362016865        0.00272416143279
C           41.19582332089958        0.04190238883029       -0.00658973347732
C           41.86180834628591        0.09928770804061        1.21861423202624
C           41.17874127014493        0.14622658057877        2.47263835846626
C           42.13218547670360        0.18029048485599        3.43344284454378
C           43.39546985584725        0.16063576853972        2.76208971036576
N           43.21810418490664        0.10173679998355        1.39832705643517
C           44.61320518440289        0.18856801540053        3.42384075512111
C           45.83326300781884        0.15598877746225        2.76615966867415
C           47.09317933552203        0.22302771959170        3.44034109981465
C           48.05062387864136        0.16905427557031        2.48437532757471
N           46.01692155313263        0.07088016149374        1.40458630112955
C           47.37412278783331        0.07399645547105        1.22986648520140
C           48.04551516153692       -0.03148054565969        0.01012269382485
C           47.37690043297727       -0.14081334648857       -1.21109490209895
C           48.05742625376606       -0.26321300856723       -2.46109447526267
C           47.10337598583236       -0.32544147359743       -3.41969251572242
C           45.84162497724661       -0.22890564981826       -2.75255378464208
C           44.62470109899125       -0.23951633169253       -3.41686523473092
C           44.63103845647026       -0.32249719287026       -4.90415522938646
C           44.19109119213952       -1.48284696623300       -5.55413634025200
O           43.77900074223542       -2.49552731334294       -4.74666301530471
C           43.31282120346403       -3.70893687150256       -5.30068827037219
C           44.20199806843546       -1.55780597969304       -6.94671969919228
C           44.64949980209359       -0.47115995813066       -7.68286006077012
C           45.08792141419871        0.68835771887441       -7.06142922987458
C           45.08045255506271        0.76239107816788       -5.66891495680841
O           45.48343446429803        1.85489631099392       -4.96870830838993
C           45.97314594299760        2.99752496476711       -5.64068998475572
C           43.40464135658986       -0.16632749351567       -2.76262400964209
C           42.14491244581149       -0.14873330015125       -3.44068715479117
C           41.18799303962361       -0.07329399606696       -2.48556015383384
C           41.86584455785282       -0.03951801246099       -1.22822849215412
N           43.22221305159761       -0.08900456833689       -1.40046781888168
N           46.02061996801849       -0.12612623690904       -1.39150037292021
C           44.61103174647398        0.25615569119297        4.91211120299819
C           45.00720903520179       -0.85403381568099        5.66949234673814
O           45.37120578537555       -1.95522755301182        4.96153652618266
C           45.79866130038666       -3.12635335338036        5.62687128586748
C           45.00269811222508       -0.79458304821647        7.06280638156202
C           44.60570343054881        0.37561781592600        7.69200872817050
C           44.21105762778886        1.48730121859553        6.96301385468186
C           44.21157809355112        1.42682419890341        5.56970831665605
O           43.84837165774621        2.46293141253010        4.76858119475632
C           43.40813811949108        3.68249231084956        5.33025998048652
H           40.10680916105076        0.14439023983497        2.58734711586166
H           42.00375449893667        0.21467186528149        4.50294039899251
H           47.21662366739269        0.30142940331318        4.50813101905204
H           49.12171535154477        0.18588081532001        2.60354762900966
H           49.12854409144756       -0.29386404908056       -2.57619194267951
H           47.23102609529896       -0.42544738116156       -4.48510121979441
H           42.42497206298286       -3.55058354682780       -5.92500176747037
H           43.04730617771478       -4.34650673426044       -4.45539115456826
H           44.08999923632760       -4.20446858611338       -5.89519228946929
H           43.86726418093555       -2.45022249779612       -7.45842251414719
H           44.65685460788465       -0.52933160717472       -8.76579268110537
H           45.43028476991669        1.52130141625161       -7.66081553152199
H           46.23588789189491        3.71725840063084       -4.86320724150871
H           45.21061521956035        3.43683963684731       -6.29525588197711
H           46.86701230002927        2.76347744077182       -6.23159952503773
H           42.02129608084801       -0.18778597943072       -4.51059701172559
H           40.11722952167285       -0.03611844707866       -2.60582458899389
H           45.00766596736642       -3.53709515466613        6.26611578160137
H           46.03878793568877       -3.84912458617178        4.84491150737647
H           46.69395699307983       -2.94020289305691        6.23246537857077
H           45.30363547755350       -1.64706294356005        7.65693714861060
H           44.60358814367346        0.42226023325043        8.77553083230127
H           43.90793827596239        2.38754455428989        7.48068319217155
H           44.19420997274803        4.15523111888876        5.93169228332439
H           42.51432026645949        3.54005445028935        5.94981569361182
H           43.16095179589934        4.33260281896823        4.48895098508861
