150
 energy: -263.092427931070 gnorm: 2.837162281133 xtb: 6.5.1 (b24c23e)
Co          13.43189900000000       -0.02019600000000       -0.02231700000000
C           10.08784800000000        0.10942000000000        0.07005500000000
C           10.75572200000000        0.89391000000000        0.92053800000000
C           10.11083200000000        1.77323400000000        1.88880200000000
C           11.05672600000000        2.42368300000000        2.54028000000000
C           12.35865300000000        1.99250200000000        2.01466400000000
N           12.17539500000000        1.01708600000000        0.98866200000000
C           13.55224600000000        2.47081000000000        2.41734300000000
C           14.84577500000000        2.01800500000000        1.84530000000000
C           16.13733900000000        2.63530500000000        2.16766900000000
C           17.07171100000000        1.97990700000000        1.50994500000000
N           14.98345300000000        1.02125300000000        1.02532900000000
C           16.38421400000000        0.93276800000000        0.76353100000000
C           16.97734800000000       -0.00016500000000        0.00004500000000
C           16.21694500000000       -1.04803600000000       -0.72026100000000
C           16.76358100000000       -2.14203400000000       -1.23620700000000
C           15.71507700000000       -2.86415900000000       -1.92852100000000
C           14.59557700000000       -2.16328100000000       -1.79230600000000
C           13.30087800000000       -2.52922500000000       -2.42235900000000
C           13.30474200000000       -3.53840900000000       -3.51164200000000
C           13.83238700000000       -3.19970300000000       -4.77378800000000
O           14.33041500000000       -1.90096100000000       -4.97320200000000
C           14.89361500000000       -1.42966800000000       -6.19251700000000
C           13.84363300000000       -4.16466900000000       -5.79762400000000
C           13.33903800000000       -5.44409000000000       -5.56584500000000
C           12.82202500000000       -5.78130700000000       -4.31506500000000
C           12.80400300000000       -4.83485300000000       -3.27408000000000
O           12.30462400000000       -5.14550400000000       -1.99775300000000
C           11.75719600000000       -6.40700100000000       -1.62953500000000
C           12.13786300000000       -1.96906200000000       -2.04117400000000
C           10.82120500000000       -2.25091500000000       -2.60957600000000
C            9.96065600000000       -1.53208800000000       -1.91529400000000
C           10.71926300000000       -0.78525200000000       -0.91299900000000
N           11.98980600000000       -1.03263300000000       -0.97655200000000
N           14.82202200000000       -0.98127000000000       -1.02111900000000
C           13.59631800000000        3.51012800000000        3.47193300000000
C           13.72673700000000        3.13034100000000        4.82195000000000
O           13.81197100000000        1.76337500000000        5.13526700000000
C           13.93357700000000        1.24338200000000        6.45538400000000
C           13.76645600000000        4.12561400000000        5.81580200000000
C           13.67975500000000        5.47373400000000        5.46654000000000
C           13.55479900000000        5.84877700000000        4.12829900000000
C           13.51352300000000        4.87096100000000        3.11729700000000
O           13.39299800000000        5.21050000000000        1.75915500000000
C           13.31409000000000        6.54327800000000        1.26391900000000
H            9.00445500000000        0.13222100000000        0.09251300000000
H            9.04702900000000        1.88781400000000        2.05384900000000
H           10.87638900000000        3.15289200000000        3.31965400000000
H           16.31392600000000        3.47673500000000        2.82485900000000
H           18.13098300000000        2.19584200000000        1.54609000000000
H           17.80195000000000       -2.43894800000000       -1.17525800000000
H           15.83402900000000       -3.79053000000000       -2.47536900000000
H           14.13844000000000       -1.47746000000000       -7.00527400000000
H           15.20838200000000       -0.37395300000000       -6.06161100000000
H           15.78522000000000       -2.03496800000000       -6.46025300000000
H           14.23951900000000       -3.93563500000000       -6.77754600000000
H           13.35155100000000       -6.17994500000000       -6.35966000000000
H           12.44279700000000       -6.78294300000000       -4.16673200000000
H           11.43872300000000       -6.36745100000000       -0.56795500000000
H           10.87047500000000       -6.63586500000000       -2.25767400000000
H           12.52281800000000       -7.20381500000000       -1.74191100000000
H           10.57439800000000       -2.91425600000000       -3.42841000000000
H            8.89004700000000       -1.50854100000000       -2.07085000000000
H           13.98106300000000        0.13656000000000        6.40527700000000
H           13.05021500000000        1.53428800000000        7.06236900000000
H           14.86584700000000        1.61874100000000        6.92881200000000
H           13.86267800000000        3.86831100000000        6.86187500000000
H           13.71053500000000        6.23283500000000        6.23773000000000
H           13.49178100000000        6.90195800000000        3.89091000000000
H           14.23208100000000        7.10687000000000        1.53602600000000
H           13.23040500000000        6.51398800000000        0.15843900000000
H           12.41563200000000        7.04991300000000        1.67539700000000
Co          28.92436500000000        0.01912600000000        0.02305100000000
C           32.26841600000000       -0.05389800000000       -0.11837300000000
C           31.60054200000000       -0.78431900000000       -1.01571900000000
C           32.24543100000000       -1.61785500000000       -2.02366800000000
C           31.29953700000000       -2.17033100000000       -2.76006500000000
C           29.99761100000000       -1.71129500000000       -2.25859200000000
N           30.18086900000000       -0.83425500000000       -1.14732300000000
C           28.80401800000000       -2.04194600000000       -2.78925100000000
C           27.51048900000000       -1.54002500000000       -2.25977800000000
C           26.21892400000000       -1.77143700000000       -2.91661100000000
C           25.28455200000000       -1.21348200000000       -2.17442900000000
N           27.37281000000000       -0.86995800000000       -1.15665700000000
C           25.97205000000000       -0.62338400000000       -1.03188000000000
C           25.37891500000000       -0.00016500000000        0.00004500000000
C           26.13931800000000        0.56398600000000        1.13961100000000
C           25.59268300000000        0.91929800000000        2.29580500000000
C           26.64118700000000        1.50201300000000        3.10895100000000
C           27.76068600000000        1.46674000000000        2.39583100000000
C           29.05538500000000        2.03842100000000        2.84756300000000
C           29.05152100000000        2.97330200000000        4.00124700000000
C           28.52387700000000        4.27076300000000        3.84526500000000
O           28.02584800000000        4.65264200000000        2.58802000000000
C           27.46264900000000        5.92653900000000        2.29471000000000
C           28.51263000000000        5.14714300000000        4.94588100000000
C           29.01722600000000        4.73597200000000        6.17940400000000
C           29.53423800000000        3.44997300000000        6.33552700000000
C           29.55226100000000        2.55398900000000        5.25079900000000
O           30.05164000000000        1.24647600000000        5.37699600000000
C           30.59906700000000        0.70279600000000        6.57339500000000
C           30.21840000000000        1.74067200000000        2.23893300000000
C           31.53505800000000        2.26327400000000        2.59867000000000
C           32.39560800000000        1.67814200000000        1.78850900000000
C           31.63700100000000        0.79209900000000        0.90687000000000
N           30.36645800000000        0.81986700000000        1.16077000000000
N           27.53424200000000        0.87127800000000        1.11625900000000
C           28.75994600000000       -2.93820600000000       -3.96783500000000
C           28.62952600000000       -4.32848200000000       -3.78366900000000
O           28.54429300000000       -4.83280000000000       -2.47507300000000
C           28.42268700000000       -6.21339600000000       -2.14787600000000
C           28.58980800000000       -5.17087600000000       -4.91002700000000
C           28.67650799999999       -4.63365500000000       -6.19486300000000
C           28.80146500000000       -3.25571000000000       -6.37600500000000
C           28.84274000000000       -2.39385900000000       -5.26449100000000
O           28.96326600000000       -1.00125800000000       -5.40766200000000
C           29.04217400000000       -0.32172200000000       -6.65657700000000
H           33.35180900000000       -0.07288900000000       -0.14413300000000
H           33.30923500000000       -1.76495300000000       -2.16053200000000
H           31.47987400000000       -2.83821700000000       -3.59258900000000
H           26.04233800000000       -2.30243700000000       -3.84286300000000
H           24.22528000000000       -1.21858700000000       -2.39330900000000
H           24.55431300000000        0.81679000000000        2.58105100000000
H           26.52223500000000        1.91172400000000        4.10360800000000
H           28.21782300000000        6.72426600000000        2.45747000000000
H           27.14788200000000        5.94692600000000        1.23110600000000
H           26.57104400000000        6.10557700000000        2.93190400000000
H           28.11674500000000        6.14966200000000        4.85836900000000
H           29.00471200000000        5.41720800000000        7.02055900000000
H           29.91346700000000        3.16086200000000        7.30593600000000
H           30.91754100000000       -0.34240100000000        6.38344800000000
H           31.48578800000000        1.29205500000000        6.88916600000000
H           29.83344600000000        0.70084500000000        7.37809200000000
H           31.78186500000000        2.97957600000000        3.37160100000000
H           33.46621700000000        1.83546500000000        1.78729800000000
H           28.37520000000000       -6.32102100000000       -1.04515900000000
H           29.30604900000000       -6.77290200000000       -2.52205400000000
H           27.49041600000000       -6.62870300000000       -2.58667900000000
H           28.49358600000000       -6.24289200000000       -4.80392900000000
H           28.64572900000000       -5.28919400000000       -7.05581400000000
H           28.86448200000000       -2.87112300000000       -7.38478500000000
H           28.12418300000000       -0.51101000000000       -7.25310700000000
H           29.12585800000000        0.76838700000000       -6.47055000000000
H           29.94063200000000       -0.65705900000000       -7.21652500000000
C           21.78205200000000        0.00114700000000        0.00847800000000
C           20.57311300000000       -0.01230800000000        0.00003000000000
C           19.15158400000000       -0.00348900000000       -0.01195300000000
C           17.93991400000000        0.00395000000000       -0.00109000000000
C           23.19865600000000       -0.00552800000000        0.00901100000000
C           24.41935200000000        0.00395000000000       -0.00109000000000
150
 energy: -263.822401612422 gnorm: 0.481171431987 xtb: 6.5.1 (b24c23e)
Co          13.43568795302659       -0.01807593303190       -0.02050373335681
C           10.08847779741409        0.10316225868344        0.06293805138117
C           10.76080896937945        0.89496286194714        0.92159344576499
C           10.10977822034566        1.77060849788496        1.88612774333704
C           11.06178524378996        2.42467356245079        2.54106226253473
C           12.35700435306478        1.98826629285007        2.01064829757955
N           12.16924557503498        1.01955936668282        0.99228951030677
C           13.56120152564126        2.46936165404915        2.41493496048892
C           14.83943951009068        2.02675125520228        1.85377557727171
C           16.12926280876243        2.63912514946301        2.17240751723997
C           17.07075829393668        1.97453008591530        1.50566261133226
N           14.98070600032622        1.02119405509801        1.02261471763429
C           16.35044943695853        0.94626385076214        0.77470494674119
C           16.83756331764170       -0.00636890947980       -0.00306573926025
C           16.18808667920844       -1.04730203867830       -0.72262414450293
C           16.76307562963088       -2.15105560392007       -1.24242660374352
C           15.72628165973005       -2.86646469473133       -1.92825616013160
C           14.58559823189423       -2.15599310368429       -1.79200907341101
C           13.30763655306312       -2.52665329114845       -2.41907951171733
C           13.30654572194744       -3.53829642361096       -3.51049815468847
C           13.83419461818337       -3.19857698227291       -4.77651654280441
O           14.32820889244570       -1.90453398156079       -4.97034676351116
C           14.89245661551336       -1.43269393155517       -6.19200484890072
C           13.84332043084824       -4.16414545987381       -5.79669527115675
C           13.33903019346981       -5.44175763936501       -5.56333485548778
C           12.82217244360683       -5.78033219691287       -4.31448852247066
C           12.80257259380716       -4.83758705061071       -3.27329865058823
O           12.30653669342390       -5.14231466784662       -2.00096657421675
C           11.75839672350098       -6.40628087048138       -1.63255935097478
C           12.13699255028247       -1.96789597900191       -2.04000573717314
C           10.82608310083632       -2.25191263995612       -2.60988728976106
C            9.95653887105878       -1.52794194325537       -1.91062851886825
C           10.70999548807580       -0.78094502019204       -0.90869531934945
N           11.99431524491839       -1.03331041829848       -0.97952516049364
N           14.81648681366745       -0.98694958698478       -1.02084736677037
C           13.59738012147403        3.51057959550543        3.47207045243789
C           13.72710607556744        3.12929686479039        4.82515597995956
O           13.81150796855004        1.76701929323735        5.13201144675866
C           13.93341199488978        1.24666588200990        6.45457361107865
C           13.76631329598162        4.12526363458130        5.81488522155114
C           13.67966214784165        5.47130545169242        5.46406763366628
C           13.55479441410843        5.84786919217271        4.12793524959042
C           13.51339210187978        4.87426047985656        3.11638740421262
O           13.39339249719256        5.20717871067973        1.76270249777144
C           13.31440196862616        6.54240923705606        1.26715964757642
H            9.00464832426778        0.13144772348009        0.09146984272974
H            9.04707360934526        1.88620503943635        2.05218786015449
H           10.87912964486524        3.15294792241010        3.31965657003735
H           16.31182867213319        3.47735140907057        2.82566708258050
H           18.13043859534850        2.19311470025242        1.54381311136308
H           17.80179326483793       -2.43917203750208       -1.17526332445455
H           15.83526850049354       -3.79070709686213       -2.47498075572318
H           14.14044392176518       -1.47746604762750       -7.00437525888719
H           15.20659821002162       -0.37774054614135       -6.06013740298365
H           15.78346135330705       -2.03372370060840       -6.46058493645055
H           14.23962760959583       -3.93507824708110       -6.77736101751936
H           13.35153768950764       -6.17947746916195       -6.35914978060503
H           12.44266636693714       -6.78282401771267       -4.16614562805224
H           11.44048318255959       -6.36566444727950       -0.57155930346540
H           10.87222820550523       -6.63628500556568       -2.25645538146424
H           12.52080944348892       -7.20288574267756       -1.74183958920873
H           10.57697804034023       -2.91431973881618       -3.42804700908058
H            8.88939768951650       -1.50716734485786       -2.06938774697243
H           13.98075511959097        0.14053607606631        6.40343441509175
H           13.05231875908584        1.53373445069553        7.06197141445855
H           14.86373942675086        1.61795753851665        6.92869479105821
H           13.86270409053389        3.86776835838456        6.86172021351877
H           13.71051828351784        6.23233654605499        6.23722320208074
H           13.49174467493606        6.90183936234274        3.89036359571140
H           14.22990108241343        7.10651956304550        1.53553054709377
H           13.23076301005518        6.51207045711809        0.16237217252970
H           12.41767294269678        7.04976568012984        1.67457179028164
Co          28.92058456629479        0.01763015710904        0.02068774459059
C           32.26778640108515       -0.04774314752914       -0.11116925220364
C           31.59545584725802       -0.78521468451259       -1.01691376476786
C           32.24648620106230       -1.61558077032873       -2.02068891580614
C           31.29447661931352       -2.17096421672540       -2.76115644613985
C           29.99926395169209       -1.70792160002098       -2.25382963253111
N           30.18701392842836       -0.83749472770739       -1.15027926872266
C           28.79505896150052       -2.03976863885798       -2.78747525911542
C           27.51681288397769       -1.54719726020140       -2.26967448618885
C           26.22703267364501       -1.77560030527953       -2.92107730710002
C           25.28548880827392       -1.21000664695457       -2.16848369359185
N           27.37551418488011       -0.86727118051472       -1.15621813158557
C           26.00585996023838       -0.63265200910741       -1.04713956368076
C           25.51957586300728        0.00203018156646        0.00594373754450
C           26.16845499556630        0.56646195879926        1.13923286725580
C           25.59321517935823        0.92414186450779        2.30557206568018
C           26.62999697635962        1.50142370102043        3.11119499554525
C           27.77066037602822        1.46748482457344        2.38858634831826
C           29.04863541218036        2.03554090686990        2.84455396365401
C           29.04971741823625        2.97218630968302        4.00097254234696
C           28.52206893394752        4.27362413576106        3.84453794431503
O           28.02805401290511        4.64930764416477        2.59115095403957
C           27.46380731314412        5.92560272030294        2.29763255053439
C           28.51294271171374        5.14629795036952        4.94523099532030
C           29.01723376189801        4.73381848859007        6.17673866188718
C           29.53409052617204        3.44954091898123        6.33448021254279
C           29.55369180237288        2.55282654902354        5.25339428623929
O           30.04972698817791        1.25011060444306        5.37429517091871
C           30.59786655084551        0.70589175860316        6.57311213742899
C           30.21927013734320        1.73968198990657        2.23761664648108
C           31.53018145571254        2.26344131901550        2.59970201934011
C           32.39972510272166        1.67411414839381        1.78374374485642
C           31.64626466332048        0.78845344326598        0.90199832051912
N           30.36195265897482        0.82271209992071        1.16186021563226
N           27.53983083452445        0.87023422418493        1.12184766995776
C           28.75888445624925       -2.93827711464725       -3.96830090914114
C           28.62915654107455       -4.33180376091138       -3.78309009037364
O           28.54475655668854       -4.82905950063858       -2.47821793688376
C           28.42285172770779       -6.21212753419085       -2.15101136061936
C           28.58995078740326       -5.17001807934621       -4.90954982181457
C           28.67660093789966       -4.63155264189465       -6.19210787963501
C           28.80146955016343       -3.25547881771759       -6.37505447004467
C           28.84287092569507       -2.39248933125617       -5.26762790486897
O           28.96287188443171       -1.00524139255250       -5.40487809421231
C           29.04186188572827       -0.32505314991975       -6.65617754438087
H           33.35161567530293       -0.07196673883151       -0.14321914245573
H           33.30919037632619       -1.76353705063171       -2.15870331812994
H           31.47713323281408       -2.83821147900784       -3.59264465748088
H           26.04443653066346       -2.30315023833001       -3.84358914386061
H           24.22581916719635       -1.21671381080236       -2.39027596678089
H           24.55447407977684        0.81675939444996        2.58125991289965
H           26.52099408101735        1.91131363559279        4.10372699943021
H           28.21581913765038        6.72337544866895        2.45734832989012
H           27.14966577996031        5.94492934815179        1.23464571517971
H           26.57280263817498        6.10608232841329        2.93071947146922
H           28.11663638355839        6.14955798953662        4.85779154240881
H           29.00472532834360        5.41676932683933        7.02002366944923
H           29.91359753782344        3.16029846883826        7.30573464784109
H           30.91578075979488       -0.33857941281680        6.38219153491312
H           31.48403476958404        1.29078907571896        6.88940857895013
H           29.83545448477448        0.70090629922669        7.37716198150350
H           31.77928522512232        2.97920768927018        3.37161263250331
H           33.46686627469480        1.83421282009322        1.78573066539635
H           28.37550790018339       -6.31863225583166       -1.04883317546569
H           29.30394522574847       -6.77258707221938       -2.52144957947617
H           27.49252369180577       -6.62869815249307       -2.58588680543427
H           28.49355991057314       -6.24281556354592       -4.80336974679231
H           28.64574568834055       -5.28876312371820       -7.05524858834497
H           28.86451830665388       -2.87059895057139       -7.38458973128413
H           28.12636292346238       -0.51056942726924       -7.25268964762148
H           29.12550002097789        0.76422133737921       -6.46921057348156
H           29.93859105292505       -0.65626310331508       -7.21626191981768
C           21.78833719046027        0.00097052315796        0.00832134169777
C           20.56676852844284       -0.01215598392842        0.00019608640957
C           19.21896452605164       -0.00492449625639       -0.01359726799068
C           18.07473532811776       -0.00068685675199       -0.00719695168859
C           23.13403412043923       -0.00486893623227        0.00958709587025
C           24.28056215398257        0.01030932774693        0.00643158205384
150
 energy: -263.935793507468 gnorm: 0.291261898368 xtb: 6.5.1 (b24c23e)
Co          13.44080876499483       -0.00757337984089       -0.01179058678629
C           10.08978560851131        0.09191226829825        0.04966656724963
C           10.76688870978152        0.89126516423251        0.91870198254140
C           10.11412346283564        1.76298214065078        1.87846080633181
C           11.07513964714921        2.42209320791229        2.53823117881872
C           12.35852015326291        1.98102391738439        2.00507794780042
N           12.15559708484860        1.02394639808047        0.99965227588232
C           13.56979130687645        2.47101470872703        2.41474858283445
C           14.81705955760869        2.04812850045688        1.87302478556389
C           16.10567776519514        2.64726688815563        2.18558033255460
C           17.04577055595167        1.96934194904630        1.50253766216951
N           14.95206221444248        1.04021712981992        1.02089678302368
C           16.30484354450201        0.95788700981631        0.77945066358865
C           16.78814625591365       -0.02363054422015       -0.01427682168319
C           16.14149983969854       -1.04910165166872       -0.72776130885332
C           16.75004569073359       -2.16583967089114       -1.25989657676489
C           15.74060983377478       -2.86815116074658       -1.93504041934365
C           14.56998189750264       -2.15014920077726       -1.79632735960092
C           13.32110269908202       -2.51952546664841       -2.41292992711502
C           13.31793625353359       -3.53878118163667       -3.50453709095241
C           13.83846308525454       -3.20040508358761       -4.77625434456079
O           14.32141489844252       -1.91564801619918       -4.95875440031663
C           14.88438417829134       -1.44867295880952       -6.18378813790896
C           13.84280926719587       -4.16113319953776       -5.79420055294925
C           13.33908439717666       -5.43484496398529       -5.55582035954595
C           12.82184428310960       -5.77729896618098       -4.31135700581050
C           12.80313361675647       -4.83762766675737       -3.27388593694704
O           12.31328384620448       -5.12942670807629       -2.01078721288677
C           11.76633072486606       -6.39650486879289       -1.64801115195739
C           12.14020016981852       -1.95986664823085       -2.03443309288021
C           10.83591536766699       -2.24623303395629       -2.60103675865195
C            9.95022746159739       -1.51929201993068       -1.89759150886179
C           10.69628649626424       -0.77305666002706       -0.90111553256243
N           12.00016147765754       -1.02401035168676       -0.98651611819769
N           14.78430162849233       -1.01156376450457       -1.01079774564706
C           13.60119394273162        3.51408348029791        3.47436188454144
C           13.72800449368426        3.13193404695239        4.82839094589703
O           13.80995349877470        1.77942909397778        5.11929820974353
C           13.93190526216854        1.26381088462908        6.44440436753814
C           13.76579740925518        4.12367797515465        5.81401227709953
C           13.67938300435841        5.46512332515551        5.45772903569945
C           13.55457832489923        5.84733213448369        4.12641531087714
C           13.51419556323159        4.87817402779581        3.11900320661621
O           13.39496887359449        5.19447737480992        1.77470923099464
C           13.31599125251726        6.53204706987699        1.28395583176724
H            9.00609679025269        0.12545898171502        0.08271198369673
H            9.05027899584465        1.87503019007981        2.04058232516907
H           10.89910270253787        3.15143489813693        3.31761995952321
H           16.29666352887626        3.48411340588798        2.83473590970510
H           18.11225745200881        2.17471484091358        1.53020074701514
H           17.79309066135791       -2.44082414589216       -1.17818105402418
H           15.84446627144127       -3.79406210440766       -2.47540858088238
H           14.14617611563337       -1.48114229482076       -7.00088891956292
H           15.19458973280008       -0.39938171326015       -6.04639475500622
H           15.77602644017041       -2.03289178588915       -6.46148762336646
H           14.23961982951903       -3.93133419007223       -6.77532161868773
H           13.35135636123971       -6.17380018246874       -6.35294402386652
H           12.44196466275544       -6.78054969247637       -4.16218936958522
H           11.45225221446741       -6.35013094467325       -0.59196902385392
H           10.87965767915436       -6.63720481353597       -2.25583960600627
H           12.51514167076297       -7.19877929057376       -1.74516753267908
H           10.59530224322104       -2.91118883944742       -3.42110260380902
H            8.88436759133550       -1.49821352858326       -2.05881095987303
H           13.97854575185218        0.16358702633518        6.38714162651898
H           13.05955992536292        1.53558410903808        7.05999240588748
H           14.85614223247372        1.61892415149477        6.92768318228405
H           13.86270843786164        3.86467648633807        6.86079161509237
H           13.71032924887551        6.22707010625248        6.23190973147858
H           13.49143652977679        6.90129298887635        3.88735180129587
H           14.22252984695897        7.10466117876029        1.53754873343939
H           13.23299291014187        6.49538718769217        0.18499028909251
H           12.42516676827561        7.04866279132388        1.67537449309504
Co          28.91545415715874        0.01040904748245        0.00892113805304
C           32.26647792470771       -0.03621083910832       -0.09815366627599
C           31.58937448989772       -0.78288081738048       -1.01284748094529
C           32.24211412276500       -1.60908287025002       -2.01206032351260
C           31.28106859070880       -2.16852455895230       -2.75819908192648
C           29.99764964857044       -1.70342157025585       -2.24585466818394
N           30.20066568678984       -0.84416800384733       -1.15568573366073
C           28.78625392483231       -2.03925673464831       -2.78895047551376
C           27.53870001225049       -1.56306467242496       -2.29337891323435