187
 energy: -336.432421103039 gnorm: 3.673526145328 xtb: 6.5.1 (b24c23e)
Fe          31.66962900000000       -0.02113700000000        0.00244900000000
C           28.30787600000000        0.11397000000000       -0.11657500000000
C           28.97393599999999        1.26766200000000       -0.01614200000000
C           28.32411000000000        2.56926100000000        0.07778900000000
C           29.26421400000000        3.48348000000000        0.22301200000000
C           30.56955000000000        2.80841400000000        0.22397300000000
N           30.39217800000000        1.39984700000000        0.06913900000000
C           31.75896400000000        3.42075100000000        0.39702600000000
C           31.79529500000000        4.88769200000000        0.58956400000000
C           32.05015700000000        5.42540800000000        1.85921200000000
C           32.08890100000000        6.81060100000000        2.04235800000000
C           31.86855600000000        7.67608900000000        0.95671500000000
C           31.90188100000000        9.13961400000000        1.13057600000000
O           32.13623000000000        9.65591600000000        2.25582700000000
C           31.61247000000000        7.13418400000000       -0.31248500000000
C           31.57845400000000        5.74894300000000       -0.49601800000000
C           33.05470600000000        2.68983400000000        0.41371200000000
C           34.34948900000000        3.33167300000000        0.67241400000000
C           35.28364400000000        2.40837100000000        0.57957800000000
N           33.19340200000000        1.42342500000000        0.16256300000000
C           34.59534000000000        1.16631500000000        0.25085400000000
C           35.19145200000000       -0.01238100000000        0.00353100000000
C           34.43656500000000       -1.23583400000000       -0.35491300000000
C           34.99018600000000       -2.32427700000000       -0.87491000000000
C           33.94621900000000       -3.31922600000000       -1.00863100000000
C           32.82151500000000       -2.77555600000000       -0.55965300000000
N           33.04003500000000       -1.43110400000000       -0.12548900000000
C           31.52481400000000       -3.49574100000000       -0.47337900000000
C           31.53430200000000       -4.97576900000000       -0.54887900000000
C           30.97197100000000       -5.63496800000000       -1.65334400000000
C           31.00146900000000       -7.03023300000000       -1.73044100000000
C           31.59833600000000       -7.78483200000000       -0.70813300000000
C           31.62606100000000       -9.25541300000000       -0.80949400000000
O           32.20210400000000       -9.95677600000000        0.06304500000000
C           32.16603600000000       -7.12231100000000        0.39483500000000
C           32.13665200000000       -5.72694000000000        0.47088600000000
C           30.35657200000000       -2.84239000000000       -0.32970100000000
C           29.03487000000000       -3.45604700000000       -0.21253300000000
C           28.17442400000000       -2.46045200000000       -0.12707400000000
C           28.93733900000000       -1.21445000000000       -0.17702300000000
N           30.21080100000000       -1.42422000000000       -0.29517900000000
H           27.22460600000000        0.14678400000000       -0.13341400000000
H           27.26027100000000        2.76702800000000        0.05051600000000
H           29.07569800000000        4.54342300000000        0.33329200000000
H           32.21959500000000        4.77073500000000        2.70545100000000
H           32.28951800000000        7.20319000000000        3.03133500000000
H           31.72439100000000        9.78950700000000        0.28332400000000
H           31.43954700000000        7.78352000000000       -1.16212600000000
H           31.38143000000000        5.34610900000000       -1.48222500000000
H           34.53204000000000        4.37503800000000        0.89143200000000
H           36.34460600000000        2.57576700000000        0.70956600000000
H           36.03029900000000       -2.46117800000000       -1.13809600000000
H           34.07017900000000       -4.32432200000000       -1.38985100000000
H           30.51559700000000       -5.06707300000000       -2.45568800000000
H           30.56360000000000       -7.52082300000000       -2.59202300000000
H           31.15451900000000       -9.74828100000000       -1.64970900000000
H           32.63228200000000       -7.68138600000000        1.19717800000000
H           32.57980000000000       -5.23117200000000        1.32630200000000
H           28.78375900000000       -4.50857500000000       -0.19352700000000
H           27.10141500000000       -2.56252400000000       -0.02893800000000
Fe          59.28710000000000       -0.00355900000000        0.00370700000000
C           62.64885300000000       -0.12033900000000       -0.13334400000000
C           61.98279300000000       -1.27657600000000       -0.19822900000000
C           62.63261899999999       -2.57828500000000       -0.29061200000000
C           61.69251499999999       -3.50386800000000       -0.27706000000000
C           60.38717900000000       -2.83581800000000       -0.17997500000000
N           60.56455100000000       -1.41955800000000       -0.13264100000000
C           59.19776600000000       -3.46655900000000       -0.09588700000000
C           59.16143399999999       -4.94596800000000       -0.11421400000000
C           58.90657200000000       -5.65901000000000        1.06592000000000
C           58.86782800000000       -7.05616700000000        1.04993800000000
C           59.08817300000000       -7.75823100000000       -0.14789200000000
C           59.05484800000000       -9.23159900000000       -0.18421900000000
O           58.82049900000000       -9.90288200000000        0.85603900000000
C           59.34425900000000       -7.04110600000000       -1.32698500000000
C           59.37827500000000       -5.64384700000000       -1.31138000000000
C           57.90202299999999       -2.74546700000000        0.02471700000000
C           56.60724000000000       -3.41760600000000        0.18938000000000
C           55.67308600000000       -2.49049400000000        0.22897500000000
N           57.76332700000000       -1.45620000000000       -0.04352600000000
C           56.36138900000000       -1.21428400000000        0.08047900000000
C           55.76527700000000       -0.01238100000000        0.00353100000000
C           56.52016400000000        1.24964900000000       -0.17703200000000
C           55.96654299999999        2.40104900000000       -0.53672700000000
C           57.01051000000000        3.40490100000000       -0.52739700000000
C           58.13521399999999        2.80283500000000       -0.16041700000000
N           57.91669400000000        1.41025700000000        0.07786200000000
C           59.43191599999999        3.50339400000000        0.02753700000000
C           59.42242699999999        4.97908800000000        0.16357200000000
C           59.98475800000000        5.78885300000000       -0.83576200000000
C           59.95526099999999        7.18087600000000       -0.71337700000000
C           59.35839300000000        7.78220100000000        0.40597200000000
C           59.33066800000000        9.25222900000000        0.51506500000000
O           58.75462500000000        9.82218800000000        1.47859000000000
C           58.79069299999999        6.96936200000000        1.40335100000000
C           58.82007700000000        5.57738200000000        1.27991600000000
C           60.60015700000000        2.83624000000000        0.07670900000000
C           61.92185899999999        3.42695700000000        0.28007200000000
C           62.78230599999999        2.42934000000000        0.22288000000000
C           62.01938999999999        1.20315000000000       -0.00400000000000
N           60.74592800000000        1.42760700000000       -0.09107900000000
H           63.73212399999999       -0.15042200000000       -0.15468400000000
H           63.69645800000000       -2.77015300000000       -0.34577000000000
H           61.88103099999999       -4.56871200000000       -0.31884700000000
H           58.73713400000000       -5.13152000000000        1.99676500000000
H           58.66721200000000       -7.58559200000000        1.97292800000000
H           59.23233800000000       -9.75421400000000       -1.11538500000000
H           59.51718199999999       -7.56283000000000       -2.26043700000000
H           59.57529900000000       -5.10467500000000       -2.23016900000000
H           56.42468900000000       -4.48152700000000        0.25758400000000
H           54.61212400000000       -2.67469500000000        0.33380000000000
H           54.92643000000000        2.57403500000000       -0.77773500000000
H           56.88655000000000        4.45404200000000       -0.76159900000000
H           60.44113200000000        5.34100500000000       -1.71080000000000
H           60.39312900000000        7.78916200000000       -1.49631400000000
H           59.80221000000000        9.85972700000000       -0.24639900000000
H           58.32444700000000        7.40848000000000        2.27713200000000
H           58.37692900000000        4.96485000000000        2.05601400000000
H           62.17296999999999        4.46605100000000        0.44877100000000
H           63.85531400000000        2.51639600000000        0.33455100000000
C           38.31861700000000        0.00005600000000        0.00597300000000
C           37.06634600000000       -0.01912500000000        0.00162400000000
C           39.63228500000000       -0.00071000000000        0.00790500000000
C           41.13541800000000       -0.01912500000000        0.00162400000000
C           51.16358699999999        0.00005600000000        0.00597300000000
C           49.91131699999999       -0.01912500000000        0.00162400000000
C           52.47725499999999       -0.00071000000000        0.00790500000000
C           53.98038900000000       -0.01912500000000        0.00162400000000
Fe          45.46256500000000       -0.01592800000000        0.01410600000000
C           42.02033100000000        0.02777400000000       -0.00740200000000
C           42.67658300000000        1.16280200000000        0.30201300000000
C           42.03563300000000        2.45374400000000        0.56460000000000
C           42.97583800000000        3.32891100000000        0.86697400000000
C           44.27381300000000        2.64935600000000        0.82155000000000
N           44.09393799999999        1.27796900000000        0.45655400000000
C           45.45883200000000        3.23060000000000        1.10344600000000
C           45.49341099999999        4.64814500000000        1.52625300000000
C           45.99472500000000        5.62845000000000        0.65718500000000
C           46.03897000000000        6.96660200000000        1.05657700000000
C           45.58385500000000        7.34085700000000        2.33326500000000
C           45.60800300000000        8.74629300000000        2.77474000000000
O           46.07307200000000        9.64760300000000        2.03107400000000
C           45.09165800000000        6.35691500000000        3.20126000000000
C           45.04804700000000        5.01877000000000        2.80051600000000
C           46.75499100000000        2.51510300000000        1.01302200000000
C           48.02302699999999        3.05786000000000        1.51538300000000
C           48.97494700000000        2.19644800000000        1.22044000000000
N           46.92262100000000        1.36570400000000        0.43596700000000
C           48.32060400000000        1.09371400000000        0.52812400000000
C           48.93625300000000        0.02777400000000       -0.00740200000000
C           48.18766000000000       -1.05612200000000       -0.67610400000000
C           48.72070900000000       -1.92780200000000       -1.52174000000000
C           47.68903699999999       -2.89299800000000       -1.85083700000000
C           46.59700200000000       -2.54348900000000       -1.18322500000000
N           46.82209499999999       -1.36602200000000       -0.41029500000000
C           45.34184900000000       -3.33037100000000       -1.15794500000000
C           45.40344400000000       -4.76744700000000       -1.51346700000000
C           46.17055199999999       -5.64841800000000       -0.73682100000000
C           46.24284600000000       -7.00334900000000       -1.07186800000000
C           45.55433299999999       -7.49481700000000       -2.19220600000000
C           45.63839100000000       -8.92795400000000       -2.52302700000000
O           45.01838299999999       -9.40600600000000       -3.51184300000000
C           44.79554399999999       -6.60935200000000       -2.97816800000000
C           44.72347300000000       -5.25382100000000       -2.64215400000000
C           44.16865900000000       -2.77411700000000       -0.79884800000000
C           42.89173500000000       -3.46993200000000       -0.67629500000000
C           42.00071500000000       -2.55024700000000       -0.36230100000000
C           42.69820700000000       -1.26197100000000       -0.27605300000000
N           43.96573200000000       -1.38708800000000       -0.52698800000000
H           40.97888199999999        2.68522300000000        0.52168900000000
H           42.79162800000000        4.36955700000000        1.10138100000000
H           46.34835400000000        5.35480600000000       -0.32940900000000
H           46.42649500000000        7.70735500000000        0.36797700000000
H           45.21464099999999        9.01872700000000        3.75417300000000
H           44.74057899999999        6.62369000000000        4.18904700000000
H           44.66837300000000        4.27096800000000        3.48216200000000
H           48.17260100000000        3.99532100000000        2.03474100000000
H           50.02479600000000        2.31398700000000        1.45654300000000
H           49.74111100000000       -1.94206500000000       -1.87850300000000
H           47.80335600000000       -3.75843700000000       -2.48971000000000
H           46.70708700000000       -5.28603400000000        0.13201800000000
H           46.83568100000000       -7.66920900000000       -0.45525700000000
H           46.23823600000000       -9.59016900000000       -1.90998800000000
H           44.26265600000000       -6.96292800000000       -3.85243800000000
H           44.14079100000000       -4.58217700000000       -3.26196700000000
H           42.68958499999999       -4.52586600000000       -0.80326000000000
H           40.94825299999999       -2.73982900000000       -0.19504300000000
187
 energy: -337.436130976164 gnorm: 0.668293995073 xtb: 6.5.1 (b24c23e)
Fe          31.67187063145417       -0.02052420565329        0.00122807575336
C           28.30846172686039        0.10627561015835       -0.11693645167056
C           28.97804862524397        1.26914743307778       -0.01584691648844
C           28.32305553049583        2.56614986552576        0.07732106434005
C           29.26832357286547        3.48482229424547        0.22333617279858
C           30.56785093954853        2.80411589736172        0.22315262535318
N           30.38757321835929        1.40388847604401        0.06982911581361
C           31.76613157650392        3.41874761731068        0.39731180915331
C           31.79611187206438        4.88858459057658        0.58972082197617
C           32.05031599914426        5.42746561494948        1.85833491740235
C           32.08861942607425        6.80930794730907        2.04114293372393
C           31.86845405238569        7.67645102366103        0.95626846645231
C           31.90402787417108        9.14106502129415        1.14067565554290
O           32.13459604061747        9.65216063086560        2.24804786739584
C           31.61254039754791        7.13242619506319       -0.31189469686531
C           31.57841798497941        5.75028033125259       -0.49476860474451
C           33.05059078936069        2.69712218191680        0.41465633927327
C           34.34410068045749        3.33585951353709        0.67248226097171
C           35.28454043425363        2.40486034746912        0.57888616780363
N           33.19625999426133        1.41862101782410        0.16333268264779
C           34.59742034310333        1.16671158754191        0.25105083248470
C           35.20367569641665       -0.01755307125781        0.00139411369418
C           34.43519932186511       -1.22763086740564       -0.34985003107848
C           34.99089512210932       -2.33367300015787       -0.87802668090519
C           33.95557717860232       -3.31997991257169       -1.01035858924024
C           32.81381242149051       -2.77064689523009       -0.55505656969150
N           33.04066190500816       -1.43085166599762       -0.12845982651710
C           31.53015722689658       -3.49285041842656       -0.47343992326027
C           31.53569928071832       -4.97587989474651       -0.54951544656745
C           30.97221959845565       -5.63632961343662       -1.65234317219309
C           31.00178562081967       -7.02857365539050       -1.72954277736983
C           31.59803151014841       -7.78503973681789       -0.70850866531987
C           31.63150309223005       -9.25854194576713       -0.80128468533680
O           32.19807747475002       -9.95181101502353        0.05721299810820
C           32.16540682894873       -7.12077795301354        0.39396262410762
C           32.13638062156578       -5.72864603137313        0.46970464375863
C           30.35544545304343       -2.84099444192427       -0.32954311376330
C           29.03861918994366       -3.45718538113653       -0.21289340742834
C           28.17100040537693       -2.45566870318600       -0.12696746273286
C           28.92982378849067       -1.20947859238850       -0.17662980331896
N           30.21426153561918       -1.42693416990913       -0.29376920352240
H           27.22475766021083        0.14592645052131       -0.13339926783268
H           27.26031977626200        2.76542217041605        0.05028523786394
H           29.07762964103408        4.54350653967594        0.33334310001593
H           32.21949898533236        4.77080083492581        2.70508736590424
H           32.28940836367660        7.20377932649519        3.03097824928998
H           31.72409300985506        9.78924135722556        0.28190677422699
H           31.43961773889490        7.78358471774612       -1.16193175197893
H           31.38154484183559        5.34599204664215       -1.48189787833450
H           34.53043457339242        4.37567324671462        0.89146005158210
H           36.34443789697312        2.57385405208399        0.70923250392835
H           36.03027358130474       -2.46174794641932       -1.13835995749813
H           34.07087610217172       -4.32415053929508       -1.39008089221658
H           30.51580605071110       -5.06701554171824       -2.45534444196904
H           30.56373627781750       -7.52087143897894       -2.59177940709182
H           31.15373345456875       -9.74779334557415       -1.65090575848340
H           32.63204769608615       -7.68184848338432        1.19667661954775
H           32.57961569074428       -5.23115133523078        1.32593588837629
H           28.78557097309028       -4.50846998303894       -0.19369949660137
H           27.10108147438316       -2.56113539687388       -0.02892091609198
Fe          59.28487592564883       -0.00398393248143        0.00238678834298
C           62.64826309258477       -0.11267137358774       -0.13260497043832
C           61.97866953132929       -1.27810081946402       -0.19814591239736
C           62.63368163891706       -2.57514529987828       -0.29063261899704
C           61.68841015729572       -3.50524294768604       -0.27692570022721
C           60.38892219479927       -2.83138215525314       -0.18018935388429
N           60.56919884036242       -1.42373671301281       -0.13253900681783
C           59.19049979339101       -3.46460737681163       -0.09531496879904
C           59.16061609704886       -4.94687370329678       -0.11418703035038
C           58.90641447470511       -5.66091970871257        1.06475907929919
C           58.86811029007181       -7.05471425996439        1.04891997545152
C           59.08827488202105       -7.75852625039168       -0.14838502685590
C           59.05270398198264       -9.23446893460500       -0.17442894453486
O           58.82212894022052       -9.89806129556128        0.84887310518152
C           59.34418817940784       -7.03944976702677       -1.32615155037526
C           59.37831125601227       -5.64534819267754       -1.31033438002372
C           57.90619891339220       -2.75295292426372        0.02465488531975
C           56.61271334395255       -3.42181102541691        0.18885072618543
C           55.67225170377134       -2.48686530928800        0.22879059827984
N           57.76029215900274       -1.45140330866849       -0.04201748179064
C           56.35972840688541       -1.21528976342178        0.08050728721013
C           55.75060411280212       -0.00686245505767        0.00214726491577
C           56.52163091992112        1.24109958929709       -0.17308269675282
C           55.96586012578655        2.41081079673497       -0.53850286717227
C           57.00113597847112        3.40589254946613       -0.52899309924168
C           58.14292311022604        2.79730815730181       -0.15657659122119
N           57.91596684535340        1.41042929476582        0.07486848820289
C           59.42655627083498        3.50053846754637        0.02705565108606
C           59.42102813059350        4.97928987107920        0.16296398558749
C           59.98451013799546        5.79005395803886       -0.83457741729578
C           59.95494195130384        7.17910671423235       -0.71272113214273
C           59.35869721756352        7.78245225108838        0.40563050225660
C           59.32521770357104        9.25417043239320        0.52364313525119
O           58.75866502276928        9.81809637231096        1.47210205802271
C           58.79132307852711        6.96797134060971        1.40226820310595
C           58.82034781624352        5.57923669751746        1.27899050402845
C           60.60129230845293        2.83482704434274        0.07666792302149
C           61.91810253614879        3.42813374857926        0.27987668923635
C           62.78573015758500        2.42458384652304        0.22230158216666
C           62.02690571935649        1.19818299563266       -0.00431923146907
N           60.74245197820456        1.43008438066301       -0.08927604300056
H           63.73197187567182       -0.14957559916826       -0.15454832682891
H           63.69641041602232       -2.76853096482271       -0.34577005107279
H           61.87909860016956       -4.56880217789019       -0.31880801850492
H           58.73722992629948       -5.13153331665590        1.99639513120946
H           58.66732130075939       -7.58612406708343        1.97249100680453
H           59.23263627618208       -9.75374925915151       -1.11675032004055
H           59.51711153027928       -7.56292159282219       -2.26025412638356
H           59.57518398097197       -5.10460618884081       -2.22982881988096
H           56.42629178361841       -4.48216180149208        0.25751575347401
H           54.61227123877451       -2.67270208201366        0.33373232259097
H           54.92644040564937        2.57461786724351       -0.77791358668779
H           56.88584745126877        4.45390002589157       -0.76184506305838
H           60.44092299620589        5.34089855425119       -1.71046917709507
H           60.39299257416281        7.78917435216156       -1.49606598846997
H           59.80299536746836        9.85941472547124       -0.24765302104392
H           58.32468033281542        7.40900925385660        2.27670064776438
H           58.37711308060778        4.96488184503750        2.05564851951519
H           62.17115694261443        4.46597049896045        0.44858465330377
H           63.85564730887021        2.51501817781827        0.33436984783647
C           38.31215644108254       -0.00044799652440        0.00606352123402
C           37.05092773473704       -0.01979670901105        0.00147791100327
C           39.62639898445246       -0.00123908803767        0.00765062758464
C           40.92335917820142       -0.03224999781793        0.00108576265175
C           51.20617637886528       -0.00151180131635        0.00620029799289
C           50.02618116344127       -0.02882802236296        0.00087392258890
C           52.51460699922337       -0.00065145726926        0.00790475398586
C           53.96586293225028       -0.01766740935327        0.00163360098699
Fe          45.46196508094023       -0.01630331329961        0.01359628866874
C           42.17512375069936        0.02883572708783       -0.00945152134453
C           42.71163153758659        1.18229684807707        0.30691934357729
C           42.03499350925540        2.44760739460385        0.56298408229311
C           42.98128829275399        3.33093047051684        0.86799573621776
C           44.27116532390797        2.64725799662537        0.82082220616076
N           44.09207160767258        1.28531388735801        0.45720060395867
C           45.46599837036040        3.22893694966777        1.10394108552291
C           45.49437174168656        4.64888871331247        1.52656079265815
C           45.99462891187215        5.62989575963139        0.65872131748456
C           46.03846430715187        6.96502856657337        1.05712070333912
C           45.58357953924656        7.34093382176008        2.33379386583318
C           45.61206783906538        8.75173883703474        2.76730307779509
O           46.06989153446704        9.64150827383921        2.03612149673822
C           45.09180267298246        6.35542859644791        3.20004089854281
C           45.04815643392799        5.02048313669474        2.80008345856484
C           46.75091168869555        2.52503469826237        1.01655373963145
C           48.01608613511350        3.06280109869178        1.51624307927078
C           48.97529221211269        2.19111833738246        1.21767421986598
N           46.92348014838631        1.36257666933781        0.43703048136488
C           48.29624232475994        1.10797908416765        0.53480301044398
C           48.82628964878889        0.02692455145917       -0.01148594920457
C           48.16649858687367       -1.05829033482017       -0.67444891354372
C           48.72084138918136       -1.93560099509785       -1.52683232151226
C           47.69843733612586       -2.89333811270700       -1.85329801373712
C           46.58956240023917       -2.54123945018841       -1.17720163025289
N           46.82064371310839       -1.36671349869650       -0.41430590416978
C           45.34713786017500       -3.32772200859112       -1.15771040258873
C           45.40458070263506       -4.76735481153385       -1.51419470520061
C           46.17031998281983       -5.64956270110101       -0.73801590269359
C           46.24214231356606       -7.00156003508988       -1.07208496607513
C           45.55463884910115       -7.49502861791603       -2.19186900240251
C           45.63237276958638       -8.92949003219360       -2.53167051405974
O           45.02282645726955       -9.40233678598504       -3.50473357260258
C           44.79617556497400       -6.60800066557119       -2.97683953486342
C           44.72396677928220       -5.25566283724871       -2.64135216952890
C           44.16713947584900       -2.77411549416377       -0.79877807551825
C           42.89595765644377       -3.47100230575114       -0.67730027393262
C           41.99725584476511       -2.54406139099335       -0.36091838889448
C           42.71234028465739       -1.27000182824095       -0.27705857994646
N           43.97309459842943       -1.39259916251036       -0.52699152174403
H           40.97888170819202        2.68253412341501        0.52102510367265
H           42.79339863116319        4.36951682307455        1.10156829759911
H           46.34820900598891        5.35469784514164       -0.32908666759004
H           46.42631130637874        7.70772057595475        0.36853607247399
H           45.21440858299452        9.01771496925453        3.75453468047937
H           44.74060308529393        6.62382150498338        4.18909006658604
H           44.66838848615808        4.27075249814910        3.48211343891123
H           48.17106189568813        3.99592227755297        2.03478749145825
H           50.02446632334397        2.31185238602154        1.45544963196889
H           49.74102385890258       -1.94220345131240       -1.87888777279646
H           47.80415911421100       -3.75815132494922       -2.49008473346915
H           46.70687963169289       -5.28588207078232        0.13174784292279
H           46.83549101904382       -7.66916267623016       -0.45549698392338
H           46.23895710692866       -9.58989799868534       -1.90892175991969
H           44.26298036899004       -6.96344993362663       -3.85213067382726
H           44.14109952640977       -4.58225932762118       -3.26162195757220
H           42.69121891112651       -4.52548841883985       -0.80351798573442
H           40.94780936520233       -2.73772135709007       -0.19465608835835
187
 energy: -337.642410437728 gnorm: 0.370495387627 xtb: 6.5.1 (b24c23e)
Fe          31.68035208388860       -0.01445870185220       -0.00696910431922
C           28.31038938401810        0.09080123962006       -0.11731263261776
C           28.98471418525637        1.26628045647380       -0.01526712320863
C           28.32649576916384        2.55749933139064        0.07612719944536
C           29.28103539237936        3.48320678657163        0.22346640833711
C           30.57094362965273        2.79560273608347        0.22164803749167
N           30.37780493794889        1.41101488351149        0.07286855381992