229
 energy: -347.263460066210 gnorm: 1.728174020131 xtb: 6.5.1 (b24c23e)
Zn          32.36915800000000       -0.01955800000000       -0.01726800000000
C           28.99529000000000        0.11296000000000        0.02201500000000
C           29.66400600000000        1.16560000000000        0.50062700000000
C           29.02068900000000        2.34712900000000        1.06341100000000
C           29.96770300000000        3.19959200000000        1.40853600000000
C           31.26814700000000        2.60229700000000        1.07815100000000
N           31.08358000000000        1.30810400000000        0.50572500000000
C           32.46190600000000        3.19983000000000        1.26046700000000
C           32.50746100000000        4.56772400000000        1.84002800000000
C           32.42372700000000        5.70096100000000        0.99682800000000
C           32.28593200000000        5.55051100000000       -0.49620500000000
C           32.46666800000000        6.98623800000000        1.55836700000000
C           32.58626400000000        7.15889700000000        2.94223600000000
C           32.67216300000000        8.53883800000000        3.52570900000000
C           32.69501800000000        6.03728700000000        3.77238100000000
C           32.64821000000000        4.74118300000000        3.23687900000000
C           32.75957400000000        3.55496500000000        4.15937600000000
C           33.75498900000000        2.56038200000000        0.90713900000000
C           35.04712600000000        3.25108100000000        0.97933000000000
C           35.98232400000000        2.39209500000000        0.63130600000000
N           33.89238000000000        1.32508700000000        0.53173700000000
C           35.29457500000000        1.14032300000000        0.33543400000000
C           35.88957500000000       -0.01340800000000       -0.01308200000000
C           35.13232800000000       -1.25537000000000       -0.30071400000000
C           35.68861500000000       -2.45423400000000       -0.42358800000000
C           34.63963300000000       -3.38330000000000       -0.79019900000000
C           33.50825200000000       -2.69295000000000       -0.86668100000000
N           33.72855400000000       -1.31453000000000       -0.56057100000000
C           32.20656800000000       -3.27257200000000       -1.28674000000000
C           32.19609000000000       -4.63467700000000       -1.88505800000000
C           32.43475900000000       -4.80237100000000       -3.26924400000000
C           32.70248600000000       -3.61730400000000       -4.16069500000000
C           32.43146400000000       -6.09229400000000       -3.82130900000000
C           32.19271300000000       -7.21339500000000       -3.01913300000000
C           32.16714000000000       -8.57941800000000       -3.63994400000000
C           31.94359300000000       -7.04579000000000       -1.65147600000000
C           31.95429200000000       -5.76774100000000       -1.07217200000000
C           31.69321400000000       -5.62406400000000        0.40518300000000
C           31.04489400000000       -2.60983200000000       -1.14324000000000
C           29.72489500000000       -3.10540800000000       -1.52604200000000
C           28.86375500000000       -2.17829300000000       -1.15493300000000
C           29.62591400000000       -1.08980500000000       -0.54443700000000
N           30.89919300000000       -1.33083600000000       -0.53136800000000
H           27.91211500000000        0.13831700000000        0.04434300000000
H           27.95760200000000        2.51311000000000        1.18132300000000
H           29.78986000000000        4.17090300000000        1.85181200000000
H           31.33430900000000        5.03112000000000       -0.73436000000000
H           33.13596300000000        4.95855300000000       -0.89576400000000
H           32.28140500000000        6.53484400000000       -1.01062700000000
H           32.40745600000000        7.85822200000000        0.91750200000000
H           32.24830300000000        8.55754400000000        4.55246900000000
H           33.73498400000000        8.85675900000000        3.56640200000000
H           32.10026100000000        9.26341200000000        2.90755800000000
H           32.81438100000000        6.17681100000000        4.84049200000000
H           33.67456900000000        2.97559400000000        3.91518000000000
H           32.81843300000000        3.86530900000000        5.22394100000000
H           31.87027700000000        2.90085300000000        4.04142700000000
H           35.22277700000000        4.27969200000000        1.26584900000000
H           37.04250500000000        2.60386500000000        0.58867000000000
H           36.73422400000000       -2.70138900000000       -0.29976300000000
H           34.76697500000000       -4.43945500000000       -0.98943000000000
H           31.86738700000000       -2.88935700000000       -4.08282700000000
H           32.79831100000000       -3.91677700000000       -5.22585500000000
H           33.64804900000000       -3.12398100000000       -3.85249800000000
H           32.61322300000000       -6.22873800000000       -4.88121000000000
H           33.06808900000000       -8.72345600000000       -4.27433600000000
H           32.15802000000000       -9.37758000000000       -2.86660200000000
H           31.25854400000000       -8.68236000000000       -4.27060600000000
H           31.74473500000000       -7.91466800000000       -1.03522900000000
H           30.73871100000000       -5.08108200000000        0.56562400000000
H           32.52077900000000       -5.05844900000000        0.88239800000000
H           31.62046900000000       -6.61143200000000        0.90863300000000
H           29.47705500000000       -4.04319800000000       -2.00619300000000
H           27.79053400000000       -2.22911600000000       -1.28313900000000
Zn          60.52761300000000       -0.00607200000000       -0.01184500000000
C           63.90148000000000       -0.12889200000000       -0.07524500000000
C           63.23276400000000       -1.21981500000000       -0.45865800000000
C           63.87608200000000       -2.46201900000000       -0.87056700000000
C           62.92906800000000       -3.31608100000000       -1.21171400000000
C           61.62862400000000       -2.65634700000000       -1.03659100000000
N           61.81319000000000       -1.32617300000000       -0.55363900000000
C           60.43486500000000       -3.21374000000000       -1.31872200000000
C           60.38930999999999       -4.60203600000000       -1.84755200000000
C           60.47304400000000       -4.83599100000000       -3.24056200000000
C           60.61083900000000       -3.69376100000000       -4.21374900000000
C           60.43010200000000       -6.15219400000000       -3.72519700000000
C           60.31050600000000       -7.23487300000000       -2.84615700000000
C           60.22460800000000       -8.63456900000000       -3.38050300000000
C           60.20175200000000       -7.00026900000000       -1.47061700000000
C           60.24856100000000       -5.69428000000000       -0.95969800000000
C           60.13719600000000       -5.47699400000000        0.52721200000000
C           59.14178200000000       -2.50770600000000       -1.13097100000000
C           57.84964500000000       -3.05608300000000       -1.55706900000000
C           56.91444700000000       -2.19530700000000       -1.21349800000000
N           59.00439100000000       -1.35643700000000       -0.54662600000000
C           57.60219500000000       -1.08720900000000       -0.56035800000000
C           57.00719600000000       -0.01340800000000       -0.01308200000000
C           57.76444299999999        1.08190600000000        0.63921200000000
C           57.20815600000000        2.03205600000000        1.38055400000000
C           58.25713799999999        2.95627000000000        1.75923300000000
C           59.38851900000000        2.51107500000000        1.22609600000000
N           59.16821599999999        1.30450200000000        0.49266100000000
C           60.69020200000000        3.22013900000000        1.32427700000000
C           60.70068100000000        4.61724400000000        1.83556300000000
C           60.46201099999999        5.69655900000000        0.95285500000000
C           60.19428400000000        5.45861000000000       -0.51085500000000
C           60.46530700000000        7.00955600000000        1.44754400000000
C           60.70405699999999        7.26315600000000        2.80255000000000
C           60.72963099999999        8.67866000000000        3.30031800000000
C           60.95317800000000        6.19534800000000        3.67339100000000
C           60.94247900000000        4.87206100000000        3.20657900000000
C           61.20355700000000        3.74557300000000        4.17314200000000
C           61.85187700000000        2.64256800000000        0.96899000000000
C           63.17187500000000        3.26519200000000        1.03586800000000
C           64.03301500000001        2.33927200000000        0.66178600000000
C           63.27085600000000        1.13117400000000        0.34872000000000
N           61.99757800000000        1.29605000000000        0.52502300000000
H           64.98465500000000       -0.16264700000000       -0.07668800000000
H           64.93916900000001       -2.66342100000000       -0.90039600000000
H           63.10691099999999       -4.32385500000000       -1.56431800000000
H           61.56246100000000       -3.15409500000000       -4.02601000000000
H           59.76080800000000       -2.98998800000000       -4.09223500000000
H           60.61536500000000       -4.04789100000000       -5.26642900000000
H           60.48931499999999       -6.33771500000000       -4.79133300000000
H           60.64846800000000       -9.35892200000000       -2.65256100000000
H           59.16178600000000       -8.89214900000000       -3.57124500000000
H           60.79650999999999       -8.72944700000000       -4.32819400000000
H           60.08239000000000       -7.84043000000000       -0.79648100000000
H           59.22220100000000       -4.88986500000000        0.75211900000000
H           60.07833800000000       -6.43796100000000        1.08052500000000
H           61.02649300000000       -4.92333800000000        0.89496200000000
H           57.67399400000000       -3.99667700000000       -2.06245700000000
H           55.85426600000000       -2.31859800000000       -1.39087800000000
H           56.16254700000000        2.12467200000000        1.64101700000000
H           58.12979500000000        3.85630700000000        2.34667500000000
H           61.02938300000000        4.87942500000000       -0.95864400000000
H           60.09846000000000        6.41214400000000       -1.07212400000000
H           59.24872199999999        4.88926300000000       -0.63000600000000
H           60.28354800000000        7.84181000000000        0.77720100000000
H           59.82868199999999        9.22180200000000        2.94227300000000
H           60.73875100000000        8.71919400000000        4.41093900000000
H           61.63822699999999        9.18956500000000        2.91651200000000
H           61.15203600000000        6.39567100000000        4.71961200000000
H           62.15805900000000        3.24268800000000        3.91299300000000
H           60.37599199999999        3.00704500000000        4.12590200000000
H           61.27630200000000        4.10948800000000        5.22000500000000
H           63.41971600000000        4.27430700000000        1.33865700000000
H           65.10623699999999        2.46470500000000        0.60446200000000
C           39.15093499999999       -0.00097200000000       -0.01064000000000
C           37.89866399999999       -0.02015300000000       -0.01498900000000
C           40.46460299999999       -0.00173700000000       -0.00870800000000
C           41.96773600000000       -0.02015300000000       -0.01498900000000
C           52.27131099999999       -0.00097200000000       -0.01064000000000
C           51.01904000000000       -0.02015300000000       -0.01498900000000
C           53.58497899999999       -0.00173700000000       -0.00870800000000
C           55.08811300000000       -0.02015300000000       -0.01498900000000
Zn          46.44289899999999       -0.02753200000000        0.00307400000000
C           42.99704000000000        0.02939200000000        0.02816500000000
C           43.65556100000000        0.19120100000000        1.19091400000000
C           43.01378699999999        0.42548200000000        2.48684600000000
C           43.95385300000000        0.50088600000000        3.40633800000000
C           45.25340100000000        0.32041200000000        2.75352100000000
N           45.07503300000000        0.12745100000000        1.34876700000000
C           46.43841300000000        0.31358100000000        3.39641500000000
C           46.46266300000000        0.48551900000000        4.87307900000000
C           46.61922999999999        1.77479400000000        5.43434000000000
C           46.78016900000000        2.99015900000000        4.55783300000000
C           46.64856399999999        1.92352600000000        6.82935000000000
C           46.50062299999999        0.81431500000000        7.67061600000000
C           46.56391600000000        0.98185000000000        9.16068400000000
C           46.36255899999999       -0.46246100000000        7.11403100000000
C           46.34364099999999       -0.64026900000000        5.72223000000000
C           46.17889500000000       -2.02717300000000        5.15667200000000
C           47.74285500000000        0.14478100000000        2.70968900000000
C           49.01965200000000        0.00169800000000        3.41875500000000
C           49.97473500000000       -0.07798700000000        2.51605300000000
N           47.90799699999999        0.15418100000000        1.42306000000000
C           49.31465799999999        0.01535700000000        1.21982300000000
C           49.93385900000000        0.02939200000000        0.02816500000000
C           49.19548199999999        0.12106300000000       -1.25213800000000
C           49.76344400000000        0.37474300000000       -2.42426600000000
C           48.72976200000000        0.27763200000000       -3.43459800000000
C           47.59694000000000       -0.02719600000000       -2.81333400000000
N           47.79950500000000       -0.13995900000000       -1.40464600000000
C           46.31829599999999       -0.31473100000000       -3.50731200000000
C           46.35048599999999       -0.56159500000000       -4.97408200000000
C           46.10325100000000        0.49712500000000       -5.88029100000000
C           45.80007200000000        1.88861500000000       -5.38731200000000
C           46.14155999999999        0.24961500000000       -7.26099200000000
C           46.41864800000000       -1.03194300000000       -7.75082600000000
C           46.50304200000000       -1.27229500000000       -9.22957100000000
C           46.68818699999999       -2.07212300000000       -6.85389800000000
C           46.64456100000000       -1.85426800000000       -5.46844800000000
C           46.93955099999999       -2.99730900000000       -4.53157100000000
C           45.14233200000000       -0.37486800000000       -2.85573800000000
C           43.85079000000000       -0.66786100000000       -3.46649000000000
C           42.95945400000000       -0.56759400000000       -2.50268700000000
C           43.67110399999999       -0.21419100000000       -1.26896100000000
N           44.94852300000000       -0.10090700000000       -1.46856000000000
H           41.95544999999999        0.52026700000000        2.68972400000000
H           43.77015900000000        0.66535300000000        4.46030000000000
H           47.73564600000000        2.92110800000000        3.99757300000000
H           46.79121499999999        3.92735600000000        5.15339800000000
H           45.93758500000000        3.05358800000000        3.83803800000000
H           46.78427800000000        2.90687700000000        7.26452500000000
H           47.60905600000000        0.83476000000000        9.50433800000000
H           45.90834600000000        0.23969900000000        9.66420400000000
H           46.22401700000000        1.99639100000000        9.45968800000000
H           46.27188199999999       -1.32050000000000        7.76986400000000
H           45.20309099999999       -2.10286900000000        4.63317300000000
H           46.99750400000000       -2.24443300000000        4.43908400000000
H           46.20892299999999       -2.80171300000000        5.95232400000000
H           49.17221800000000       -0.03108300000000        4.48964500000000
H           51.03043400000000       -0.18532600000000        2.72726200000000
H           50.80837600000000        0.58520400000000       -2.60810000000000
H           48.86999700000000        0.39539300000000       -4.50125800000000
H           44.84987400000000        1.88432800000000       -4.81348200000000
H           45.69482800000000        2.60921600000000       -6.22622000000000
H           46.62217900000000        2.24421400000000       -4.73109200000000
H           45.95944000000000        1.05751200000000       -7.96012500000000
H           46.19325200000000       -2.31052600000000       -9.47536100000000
H           47.54790299999999       -1.11585200000000       -9.57016500000000
H           45.83443300000000       -0.57638800000000       -9.78023000000000
H           46.93172100000000       -3.05570300000000       -7.23869700000000
H           47.02187499999999       -3.96278400000000       -5.07475200000000
H           46.12438499999999       -3.09758600000000       -3.78459900000000
H           47.89866099999999       -2.80931200000000       -4.00553700000000
H           43.63966700000000       -0.91225000000000       -4.49952400000000
H           41.89645300000000       -0.72397700000000       -2.62676200000000
229
 energy: -347.766087734572 gnorm: 0.555044038269 xtb: 6.5.1 (b24c23e)
Zn          32.37073577874800       -0.01907982347511       -0.01696387589587
C           28.99587950192322        0.10113998684126        0.01635444466310
C           29.66965393086068        1.16756374553902        0.50132392188505
C           29.01955304835813        2.34289005099395        1.06148188718707
C           29.97427354989492        3.20172642430098        1.40902952322991
C           31.26614587337108        2.59768670712525        1.07636583519239
N           31.06892530611442        1.32126095886444        0.51284849716191
C           32.47386011073058        3.19853411877415        1.25907901266910
C           32.50984768990634        4.57149772502052        1.84118308135167
C           32.42395195270384        5.70182838488323        0.99983514024498
C           32.28607518576516        5.54995282508122       -0.49686386786703
C           32.46648277523410        6.98299883193235        1.56044804547588
C           32.58764610429233        7.15695730868890        2.94123670096696
C           32.67094117766024        8.54063445968680        3.52658848267203
C           32.69409127346197        6.03649772926025        3.76868977355520
C           32.64835295328734        4.74390628403085        3.23530845694830
C           32.75944121035180        3.55409244731393        4.15935748740396
C           33.74991066607399        2.57196895324911        0.91215664088252
C           35.03840083891073        3.25811720960712        0.98267518830134
C           35.98351390859908        2.38749192439318        0.63002610378006
N           33.90425245239441        1.32360486771065        0.52840088268840
C           35.30394665779676        1.13913170852794        0.33493194278715
C           35.91073025968692       -0.02357863811241       -0.01376158989087
C           35.13336806532936       -1.24112766871808       -0.30172207562462
C           35.69060937361486       -2.47171364162363       -0.42771204352753
C           34.65684654162412       -3.38570579552860       -0.78877741617853
C           33.49846429313177       -2.68223520920079       -0.86833993316570
N           33.73737484289615       -1.31985232770412       -0.55938251964627
C           32.21696828450791       -3.26820833546613       -1.28432878865473
C           32.19947291327121       -4.63707285228742       -1.88517943676022
C           32.43483878656289       -4.80468588516939       -3.26754706466577
C           32.70233471937991       -3.61634934515468       -4.16070779286068
C           32.43072601458315       -6.09127432673385       -3.81739926202424
C           32.19178193398640       -7.21166444303190       -3.01780446096366
C           32.16781060392384       -8.58139367794267       -3.64036519557043
C           31.94449548741472       -7.04237027944923       -1.65349326191088
C           31.95457530167925       -5.76792228155016       -1.07505940778161
C           31.69351513799863       -5.62348450544382        0.40593584769345
C           31.04332849549367       -2.60889687719907       -1.14312726661757
C           29.73047392481938       -3.10659348541233       -1.52564745282486
C           28.85701675130858       -2.17089707928891       -1.15164413379942
C           29.61161441295491       -1.08355235648604       -0.54151886359441
N           30.89861332699165       -1.33873308033561       -0.53682352614393
H           27.91237851008279        0.13604160134800        0.04299439637301
H           27.95754403167627        2.50938185685883        1.17969165945685
H           29.79468455416457        4.17134883209798        1.85188404224521
H           31.33901326051970        5.03241697750392       -0.73425199964735
H           33.13149648310117        4.96007806872995       -0.89475254817766
H           32.28137355555329        6.53029858765967       -1.00740325502605
H           32.40725353297049        7.85695996169510        0.91784102599499
H           32.25109153902115        8.55784986831472        4.54838605225538
H           33.72985707896799        8.85653969944858        3.56678074917116
H           32.10363354354455        9.26083493460800        2.91010800642216
H           32.81393829151748        6.17615092031683        4.83939781646128
H           33.66996661200008        2.97681904424772        3.91624127344586
H           32.81824735923453        3.86446790532965        5.21845428143840
H           31.87485644420230        2.90242936443545        4.04165441784260
H           35.21885517513753        4.28181053598218        1.26691922145617
H           37.04237937717500        2.59934375745612        0.58730589175614
H           36.73485599355399       -2.70425815860978       -0.29997800737651
H           34.76959008332396       -4.43986114854553       -0.98863722466969
H           31.87185370099648       -2.89135579569707       -4.08278794551105
H           32.79786245366151       -3.91601160951882       -5.22033106404724
H           33.64340294616573       -3.12481147870673       -3.85380789511737
H           32.61313457642120       -6.22794438529354       -4.87992773681888
H           33.06340936684272       -8.72349923338494       -4.27248903644814
H           32.15759049956743       -9.37394961916106       -2.87026738771282
H           31.26318691598371       -8.68302636984817       -4.26838573612388
H           31.74517545243183       -7.91338742701182       -1.03555327627516
H           30.74333655388283       -5.08256949196318        0.56594356876510
H           32.51643220011771       -5.05977572548793        0.88092400821856
H           31.62070244071282       -6.60688136545104        0.90537526378671
H           29.48165621539609       -4.04309242601297       -2.00591893334916
H           27.78862074466281       -2.22592994708030       -1.28182332208706
Zn          60.52605752878905       -0.00662040605614       -0.01195901650066
C           63.90088071081210       -0.11646111040653       -0.07115032738007
C           63.22713768696696       -1.22172443674231       -0.45951532723527
C           63.87722280115105       -2.45762696481510       -0.86902447427721
C           62.92249413953881       -3.31795810451565       -1.21282981788156
C           61.63065437240594       -2.65174306522608       -1.03467280750235
N           61.82782771312348       -1.34061185622736       -0.55762095785159
C           60.42280778501654       -3.21182007076085       -1.31882134138989
C           60.38691566259340       -4.60556348579261       -1.84933908691758
C           60.47282187126776       -4.83869371160903       -3.23900446224306
C           60.61069558847754       -3.69289967374169       -4.21384130362605
C           60.43028757426216       -6.15129638305796       -3.72144952316732
C           60.30912034181900       -7.23279229171818       -2.84553988474712
C           60.22583277384555       -8.63647223461869       -3.38111107907685
C           60.20268047160398       -6.99714033939206       -1.47273559034832
C           60.24841703923894       -5.69515829240550       -0.96270852664318
C           60.13732938753315       -5.47635156527036        0.52780689078745
C           59.14690071122216       -2.51957298277909       -1.13535197752282
C           57.85845229659184       -3.06353416081099       -1.55953789566093
C           56.91331858666013       -2.19118463650152       -1.21128441336935
N           58.99207619171140       -1.35272119183047       -0.54788936392058
C           57.59257922541862       -1.08627210830971       -0.56020927343287
C           56.98071601384026       -0.00571451745260       -0.00660216634506
C           57.76281305442207        1.07237407279433        0.62877998052485
C           57.20611371167548        2.04757296059924        1.38972605388847
C           58.23997190519135        2.95701384694467        1.76190932088973
C           59.39824773390756        2.50444192829637        1.21743588111121
N           59.15904702033465        1.30729227802620        0.49715256262250
C           60.67980894937168        3.21532279167303        1.32298864292683
C           60.69729420917488        4.61906362324245        1.83713829821534
C           60.46192545643394        5.69705888466482        0.95566919249404
C           60.19443520188365        5.45793059830825       -0.51152939707497
C           60.46604671056279        7.00610921616253        1.44966062418789
C           60.70498991815747        7.26100100955872        2.80231284064646
C           60.72895834799654        8.68037351897146        3.30138356445181
C           60.95227501874498        6.19427612968384        3.66956446493029
C           60.94219895606609        4.87418925372132        3.20463030741834
C           61.20325657732388        3.74463039297034        4.17328729198282
C           61.85343228353459        2.64181479538735        0.96842639034077
C           63.16630582234108        3.26577195111245        1.03697187655086
C           64.03974818086323        2.33167469138853        0.65904271199589
C           63.28513516292870        1.12466159623544        0.34650248202227
N           61.99815322205398        1.30550177170223        0.52655183638333
H           64.98438327578005       -0.16007366555519       -0.07608597627917
H           64.93922196741561       -2.65960017763475       -0.89899225418035
H           63.10207991974786       -4.32421883779214       -1.56457202674902
H           61.55775786938609       -3.15510549230688       -4.02683283192920
H           59.76527374435266       -2.99178790129300       -4.09256434652764
H           60.61539612288419       -4.04684275468197       -5.26095117869886
H           60.48951708813735       -6.33703449487632       -4.79020862798022
H           60.64567785916189       -9.35631208341184       -2.65571911248695
H           59.16691665092905       -8.89224738412948       -3.57081741802799
H           60.79313559537907       -8.72934990985896       -4.32456728764575
H           60.08283338639163       -7.83918830057399       -0.79681488144073
H           59.22680182317283       -4.89148537444411        0.75203959270946
H           60.07852377628128       -6.43355241568602        1.07714510525953
H           61.02191493750517       -4.92463473447362        0.89403844218685
H           57.67792268107743       -3.99894516243780       -2.06315428808192
H           55.85435373415152       -2.31432428010345       -1.38869602369866
H           56.16186663158479        2.12689355451975        1.64285333480029
H           58.12718971162476        3.85603281402090        2.34751755952822
H           61.02491714095056        4.88084197828213       -0.95723523747951
H           60.09890884163638        6.40776357817796       -1.06866371663467
H           59.25336682457128        4.89077273635729       -0.63037912345612
H           60.28363719491250        7.84034071975834        0.77757887625768
H           59.83336476850067        9.22054922288494        2.94363447263275
H           60.73918077918162        8.71910974436570        4.40577797066509
H           61.63358073624659        9.18850269357827        2.91857418323811
H           61.15159440769752        6.39496651852177        4.71848641727724
H           62.15343548877429        3.24353933604354        3.91425686834617
H           60.38033832081408        3.00902077366774        4.12576193622149
H           61.27606803056819        4.10845945491918        5.21450018685237
H           63.41511317251891        4.27403500484553        1.33877994539468
H           65.10814187159862        2.46149407602434        0.60320560716104
C           39.13593958339808       -0.00186956009528       -0.01137091809987
C           37.87233937272707       -0.02126775352393       -0.01551927127196
C           40.47037531754987       -0.00215410156938       -0.00849513672890
C           41.79288255130245       -0.02397762598153       -0.02455459875091
C           52.33405521562259       -0.00272287285052       -0.01186789454029