258
 energy: -491.900314211677 gnorm: 0.806279445307 xtb: 6.5.1 (b24c23e)
Co          52.27904200000000        0.02127800000000       -0.00935100000000
C           48.86101800000000       -0.08573700000000        0.07987000000000
C           49.52630900000000       -0.18733000000000        1.23400300000000
C           48.87844700000000       -0.32986000000000        2.53258700000000
C           49.82057200000000       -0.35087500000000        3.45703100000000
C           51.12361100000000       -0.22062500000000        2.79120800000000
N           50.94413200000000       -0.12196200000000        1.37814100000000
C           52.31276699999999       -0.14969400000000        3.42233400000000
C           53.60425300000000        0.00997600000000        2.70475100000000
C           54.89097900000000        0.22679800000000        3.37725700000000
C           55.82546399999999        0.28441100000000        2.45048300000000
N           53.74678900000000       -0.06855100000000        1.41695200000000
C           55.14391199999999        0.09730300000000        1.17535500000000
C           55.74023900000000        0.01683200000000       -0.02556000000000
C           54.98250099999999       -0.19321900000000       -1.28027400000000
C           55.52560699999999       -0.60582600000000       -2.41873600000000
C           54.48181000000000       -0.59411200000000       -3.42431600000000
C           53.36963699999999       -0.17098800000000       -2.83491400000000
C           52.08164100000000        0.05200500000000       -3.54108200000000
C           52.09942700000000        0.18794700000000       -5.01807100000000
C           51.45628400000000       -0.75906800000000       -5.82907000000000
C           51.49174499999999       -0.63664800000000       -7.22088100000000
C           52.17806200000000        0.43196800000000       -7.82538300000000
C           52.21911300000000        0.56601200000000       -9.29822000000000
O           52.90311199999999        1.62613300000000       -9.88781000000000
O           51.63598900000000       -0.27675100000000      -10.03280400000000
C           52.82920700000000        1.37279600000000       -7.00884600000000
C           52.79222500000000        1.24953100000000       -5.61704000000000
C           50.91512200000000        0.13525500000000       -2.87294800000000
C           49.59948900000000        0.38748200000000       -3.45858100000000
C           48.73804499999999        0.33828100000000       -2.46118700000000
C           49.49422300000000        0.06841700000000       -1.23957900000000
N           50.76420400000000       -0.05127700000000       -1.46715300000000
N           53.59528900000000        0.10096600000000       -1.45031900000000
C           52.35251699999999       -0.22137200000000        4.89816900000000
C           52.28829300000000       -1.46234600000000        5.54522200000000
C           52.32760900000000       -1.53081700000000        6.94074000000000
C           52.43297599999999       -0.35712400000000        7.70949900000000
C           52.47551700000000       -0.42389400000000        9.18684200000000
O           52.57870100000000        0.74317300000000        9.93954700000000
O           52.41894000000000       -1.53623600000000        9.77787200000000
C           52.49782100000000        0.88465000000000        7.05310200000000
C           52.45778500000000        0.95129100000000        5.65748200000000
H           47.77777099999999       -0.10436300000000        0.10804700000000
H           47.81500800000000       -0.39808900000000        2.72280500000000
H           49.63646399999999       -0.43767300000000        4.52010800000000
H           55.06597400000000        0.31964700000000        4.44093200000000
H           56.88180400000000        0.42962700000000        2.63341900000000
H           56.55901600000000       -0.88092200000000       -2.58160300000000
H           54.59866200000000       -0.85998400000000       -4.46695700000000
H           50.93051300000000       -1.59406700000000       -5.38225400000000
H           50.98444200000000       -1.38013600000000       -7.82286100000000
H           52.93735499999999        1.72729200000000      -10.89520800000000
H           53.36863300000000        2.20454900000000       -7.44409200000000
H           53.30131800000000        1.98383200000000       -5.00463200000000
H           49.35250000000000        0.58148600000000       -4.49402000000000
H           47.66876600000000        0.48139300000000       -2.54548100000000
H           52.20760700000000       -2.37540000000000        4.96806900000000
H           52.27589100000000       -2.50192000000000        7.41694100000000
H           52.60862500000000        0.70871400000000       10.95156700000000
H           52.57962200000000        1.80546400000000        7.61667600000000
H           52.50910100000000        1.91595700000000        5.16749200000000
Co          96.00780399999998        0.02311700000000       -0.04114900000000
C           99.42582899999999       -0.07289500000000       -0.14211500000000
C           98.76053699999999       -0.04072600000000       -1.30026400000000
C           99.40839899999999       -0.03256300000000       -2.60662100000000
C           98.46627399999998        0.05316100000000       -3.52732100000000
C           97.16323499999999        0.10576500000000       -2.85092000000000
N           97.34271399999999        0.04082700000000       -1.43590200000000
C           95.97407900000000        0.24899800000000       -3.46965700000000
C           94.68259399999999        0.32485800000000       -2.73844900000000
C           93.39586799999999        0.61778100000000       -3.38146700000000
C           92.46138200000000        0.56814300000000       -2.45423100000000
N           94.54005699999999        0.09835700000000       -1.46829600000000
C           93.14293400000000        0.23524500000000       -1.20918500000000
C           92.54660699999998        0.01683200000000       -0.02556000000000
C           93.30434599999998       -0.33650100000000        1.19656300000000
C           92.76123900000000       -0.87763300000000        2.27985200000000
C           93.80503600000000       -0.98195200000000        3.28007500000000
C           94.91720900000000       -0.49368600000000        2.74339600000000
C           96.20520500000001       -0.35361000000000        3.47056700000000
C           96.18741900000001       -0.38888900000000        4.95337900000000
C           96.83056199999999       -1.42310400000000        5.64976700000000
C           96.79510199999999       -1.46199200000000        7.04641000000000
C           96.10878399999999       -0.47021100000000        7.77010300000000
C           96.06773300000000       -0.50689500000000        9.24857200000000
O           95.38373500000000        0.47816700000000        9.95647300000000
O           96.65085699999999       -1.42874300000000        9.88107600000000
C           95.45763899999999        0.55849700000000        7.06750100000000
C           95.49462099999998        0.59654600000000        5.67076500000000
C           97.37172400000000       -0.19387200000000        2.81648900000000
C           98.68735800000000       -0.01085700000000        3.42730000000000
C           99.54880100000000        0.05528100000000        2.43088600000000
C           98.79262300000001       -0.07191700000000        1.18630900000000
N           97.52264200000000       -0.21705500000000        1.39856300000000
N           94.69155700000000       -0.06388600000000        1.39939600000000
C           95.93433000000000        0.34797900000000       -4.94391300000000
C           95.99855299999999       -0.81010400000000       -5.72974800000000
C           95.95923700000000       -0.71719900000000       -7.12385200000000
C           95.85387000000000        0.53731200000000       -7.75214300000000
C           95.81132900000000        0.64134200000000       -9.22733100000000
O           95.70814499999999        1.88741900000000       -9.84043800000000
O           95.86790599999999       -0.39542700000000       -9.94268400000000
C           95.78902599999999        1.69511300000000       -6.95693400000000
C           95.82906199999999        1.60037700000000       -5.56293900000000
H          100.50907500000000       -0.08814800000000       -0.17225200000000
H          100.47183800000001       -0.07840300000000       -2.80343700000000
H           98.65038300000001        0.08952700000000       -4.59331600000000
H           93.22087200000000        0.83266500000000       -4.42734000000000
H           91.40504199999998        0.73348400000000       -2.61920300000000
H           91.72782999999998       -1.16967500000000        2.40991100000000
H           93.68818399999999       -1.36628000000000        4.28510200000000
H           97.35633300000001       -2.20101000000000        5.10964600000000
H           97.30240399999998       -2.26993600000000        7.55864100000000
H           95.34949200000000        0.46248700000000       10.96881600000000
H           94.91821299999998        1.33451300000000        7.59575400000000
H           94.98552799999999        1.39656700000000        5.14711500000000
H           98.93434600000001        0.06245500000000        4.47820300000000
H          100.61808100000000        0.18771800000000        2.53112000000000
H           96.07924000000000       -1.78362000000000       -5.26173100000000
H           96.01095500000000       -1.62691300000000       -7.70885700000000
H           95.67822099999999        1.96988800000000      -10.84968100000000
H           95.70722399999998        2.67477100000000       -7.41056800000000
H           95.77774499999998        2.50210700000000       -4.96498100000000
C           59.44641000000000        0.02926900000000       -0.02311900000000
C           58.19413900000000        0.01008800000000       -0.02746700000000
C           60.76007800000000        0.02850300000000       -0.02118600000000
C           62.26321200000000        0.01008800000000       -0.02746700000000
C           73.40616000000000        0.02926900000000       -0.02311900000000
C           72.15389000000000        0.01008800000000       -0.02746700000000
C           74.71982900000000        0.02850300000000       -0.02118600000000
C           76.22296200000000        0.01008800000000       -0.02746700000000
C           87.36591099999998        0.02926900000000       -0.02311900000000
C           86.11364099999999        0.01008800000000       -0.02746700000000
C           88.67957899999999        0.02850300000000       -0.02118600000000
C           90.18271300000001        0.01008800000000       -0.02746700000000
Co          67.15050500000000        0.01211600000000       -0.04140600000000
C           63.69805300000000       -0.01810000000000        0.02868100000000
C           64.35314800000000       -1.19379000000000        0.02009100000000
C           63.71251400000000       -2.50597000000000       -0.08717400000000
C           64.64969000000001       -3.43136500000000       -0.03018200000000
C           65.94665900000000       -2.76661900000000        0.12593100000000
N           65.76832200000000       -1.34812200000000        0.14919100000000
C           67.13171800000001       -3.40212800000000        0.24494000000000
C           68.42612200000001       -2.68442200000000        0.36459300000000
C           69.69036100000000       -3.33255200000000        0.74036900000000
C           70.64302000000001       -2.42218100000000        0.68690600000000
N           68.59642300000000       -1.42705100000000        0.09629300000000
C           69.99252700000000       -1.18341900000000        0.27866800000000
C           70.61020400000000       -0.01810000000000        0.02868100000000
C           69.86051900000000        1.19506700000000       -0.35756200000000
C           70.39367700000000        2.24718800000000       -0.96601600000000
C           69.36042100000000        3.26316000000000       -1.04854300000000
C           68.26859899999999        2.76154400000000       -0.48131800000000
C           67.01499400000000        3.51934400000000       -0.25502700000000
C           67.07242900000000        5.00103600000000       -0.26251600000000
C           67.84791400000000        5.67897900000000        0.68714600000000
C           67.92265099999999        7.07408800000000        0.66902100000000
C           67.22990700000000        7.81402500000000       -0.30691500000000
C           67.30174000000000        9.29097000000000       -0.32758400000000
O           66.66934600000000       10.01269500000000       -1.34027100000000
O           67.92805000000000        9.91040200000000        0.57493000000000
C           66.46491700000000        7.12934900000000       -1.26604500000000
C           66.38860099999999        5.73417900000000       -1.24459900000000
C           65.84582100000000        2.89070700000000       -0.02974100000000
C           64.57168400000000        3.53307700000000        0.27552100000000
C           63.68230700000000        2.56387600000000        0.35420900000000
C           64.37781099999999        1.29578100000000        0.10555500000000
N           65.64273799999999        1.47993700000000       -0.11588600000000
N           68.49434100000001        1.43116000000000       -0.01878600000000
C           67.17323000000000       -4.88253900000000        0.25093300000000
C           66.66076700000001       -5.60510700000000        1.33987200000000
C           66.72091100000000       -7.00184400000000        1.34963100000000
C           67.29956600000000       -7.69800400000000        0.27185100000000
C           67.36914600000000       -9.17621200000000        0.27822100000000
O           67.93967099999999       -9.85627100000000       -0.79469200000000
O           66.91418899999999       -9.83358500000000        1.25295400000000
C           67.81605600000000       -6.96813400000000       -0.81436200000000
C           67.75513800000000       -5.57174400000000       -0.82288000000000
H           62.65783600000000       -2.71427100000000       -0.20384200000000
H           64.46414400000000       -4.49550900000000       -0.09716600000000
H           69.83693800000000       -4.36918900000000        1.01433700000000
H           71.68974199999998       -2.59170500000000        0.90786300000000
H           71.41572499999999        2.34854500000000       -1.30615200000000
H           69.47456800000000        4.25901100000000       -1.45756400000000
H           68.39044499999999        5.12612300000000        1.44426200000000
H           68.52529799999999        7.57239900000000        1.41613900000000
H           66.71106300000000       11.02423400000000       -1.36256700000000
H           65.92297900000000        7.67054400000000       -2.03355900000000
H           65.80069200000000        5.22347300000000       -1.99778200000000
H           64.36996600000001        4.58641800000000        0.42142200000000
H           62.63219699999999        2.70515000000000        0.57348400000000
H           66.21655500000000       -5.08570500000000        2.18133000000000
H           66.31698000000000       -7.53609800000000        2.20155700000000
H           67.99165200000000      -10.86840200000000       -0.80023400000000
H           68.26946599999999       -7.47476100000000       -1.65808400000000
H           68.15991500000000       -5.02620700000000       -1.66758100000000
Co          81.11025499999998        0.01211600000000       -0.04140600000000
C           77.65780300000000       -0.01810000000000        0.02868100000000
C           78.31289900000000       -1.19379000000000        0.02009100000000
C           77.67226499999998       -2.50597000000000       -0.08717400000000
C           78.60944099999999       -3.43136500000000       -0.03018200000000
C           79.90640900000000       -2.76661900000000        0.12593100000000
N           79.72807200000000       -1.34812200000000        0.14919100000000
C           81.09146800000001       -3.40212800000000        0.24494000000000
C           82.38587200000001       -2.68442200000000        0.36459300000000
C           83.65011099999998       -3.33255200000000        0.74036900000000
C           84.60276999999999       -2.42218100000000        0.68690600000000
N           82.55617399999998       -1.42705100000000        0.09629300000000
C           83.95227800000001       -1.18341900000000        0.27866800000000
C           84.56995499999999       -0.01810000000000        0.02868100000000
C           83.82026900000000        1.19506700000000       -0.35756200000000
C           84.35342700000000        2.24718800000000       -0.96601600000000
C           83.32017200000000        3.26316000000000       -1.04854300000000
C           82.22834899999999        2.76154400000000       -0.48131800000000
C           80.97474500000000        3.51934400000000       -0.25502700000000
C           81.03218000000000        5.00103600000000       -0.26251600000000
C           81.80766399999999        5.67897900000000        0.68714600000000
C           81.88240199999998        7.07408800000000        0.66902100000000
C           81.18965799999998        7.81402500000000       -0.30691500000000
C           81.26148999999999        9.29097000000000       -0.32758400000000
O           80.62909600000000       10.01269500000000       -1.34027100000000
O           81.88780000000000        9.91040200000000        0.57493000000000
C           80.42466699999999        7.12934900000000       -1.26604500000000
C           80.34835099999999        5.73417900000000       -1.24459900000000
C           79.80557100000000        2.89070700000000       -0.02974100000000
C           78.53143499999999        3.53307700000000        0.27552100000000
C           77.64205799999999        2.56387600000000        0.35420900000000
C           78.33756200000001        1.29578100000000        0.10555500000000
N           79.60248799999999        1.47993700000000       -0.11588600000000
N           82.45409200000000        1.43116000000000       -0.01878600000000
C           81.13298000000000       -4.88253900000000        0.25093300000000
C           80.62051799999999       -5.60510700000000        1.33987200000000
C           80.68066100000000       -7.00184400000000        1.34963100000000
C           81.25931600000000       -7.69800400000000        0.27185100000000
C           81.32889600000000       -9.17621200000000        0.27822100000000
O           81.89942100000000       -9.85627100000000       -0.79469200000000
O           80.87393899999999       -9.83358500000000        1.25295400000000
C           81.77580699999999       -6.96813400000000       -0.81436200000000
C           81.71488900000000       -5.57174400000000       -0.82288000000000
H           76.61758700000000       -2.71427100000000       -0.20384200000000
H           78.42389500000000       -4.49550900000000       -0.09716600000000
H           83.79668799999999       -4.36918900000000        1.01433700000000
H           85.64949200000000       -2.59170500000000        0.90786300000000
H           85.37547599999999        2.34854500000000       -1.30615200000000
H           83.43431900000000        4.25901100000000       -1.45756400000000
H           82.35019600000000        5.12612300000000        1.44426200000000
H           82.48504800000001        7.57239900000000        1.41613900000000
H           80.67081399999999       11.02423400000000       -1.36256700000000
H           79.88272900000000        7.67054400000000       -2.03355900000000
H           79.76044200000000        5.22347300000000       -1.99778200000000
H           78.32971600000000        4.58641800000000        0.42142200000000
H           76.59194700000000        2.70515000000000        0.57348400000000
H           80.17630600000000       -5.08570500000000        2.18133000000000
H           80.27673100000000       -7.53609800000000        2.20155700000000
H           81.95140300000000      -10.86840200000000       -0.80023400000000
H           82.22921599999999       -7.47476100000000       -1.65808400000000
H           82.11966599999998       -5.02620700000000       -1.66758100000000
258
 energy: -492.210233914822 gnorm: 0.505063785976 xtb: 6.5.1 (b24c23e)
Co          52.27615072447548        0.01438669433028       -0.01015306104547
C           48.86280217858917       -0.08357020940528        0.06307582136799
C           49.53583148532995       -0.18690299380731        1.23241474564639
C           48.88016036098681       -0.32954590606966        2.52451457484684
C           49.83184425493693       -0.35065255835941        3.45738513704968
C           51.12506477532069       -0.22047343980714        2.78169198375823
N           50.93552927613651       -0.12155720257758        1.38783844333909
C           52.32922041290536       -0.14734562711199        3.41717914588112
C           53.59700601288075        0.00993517781927        2.71693442792690
C           54.87784762786490        0.22376625326393        3.38590886324321
C           55.82442198625228        0.28454873895527        2.44330044560491
N           53.75218548939228       -0.06316739959892        1.40615002948670
C           55.15579008290369        0.09748046003742        1.16843841714843
C           55.74115032579541        0.01184035738150       -0.04097373153006
C           54.98403456516711       -0.18392407357567       -1.26421419053590
C           55.52853345083216       -0.60954423263648       -2.43964027731463
C           54.50255163684913       -0.59508585011644       -3.42450330704937
C           53.35941574958646       -0.16128321884205       -2.81894165366960
C           52.09568601403677        0.05119691089514       -3.53146516549701
C           52.10757917824250        0.18423581197157       -5.01593889004321
C           51.45852872079347       -0.75346550320843       -5.83289687386197
C           51.49520232250092       -0.63049984222152       -7.22103655258990
C           52.18186778680503        0.43795634143900       -7.82990518525567
C           52.21446354980997        0.55956612860096       -9.31612646790733
O           52.89740585673234        1.61697669544186       -9.87536899355766
O           51.64661412772792       -0.26097775947934      -10.02571676939432
C           52.82798094243754        1.37182188158073       -7.00662249357135
C           52.79241304158850        1.24624140094825       -5.62030364921972
C           50.91656622867805        0.13559979302595       -2.86784727104665
C           49.60788082910364        0.38601924374209       -3.45625029453113
C           48.73013528068458        0.33592818034990       -2.44881198420640
C           49.48008878573381        0.06730467447206       -1.22904152911548
N           50.77196964269158       -0.04183794611725       -1.46869027676244
N           53.59546880707364        0.09270801954670       -1.44275329892281
C           52.35762206247919       -0.22079439374840        4.90068824475021
C           52.28845671879601       -1.45772227002811        5.55170919940063
C           52.32774529610487       -1.52415967819422        6.94297455218549
C           52.43358798393542       -0.35074849834103        7.71515852580871
C           52.47543274943455       -0.43419325346270        9.20360226736516
O           52.57764662042403        0.73423419339717        9.92581716930231
O           52.42008466819455       -1.51647000086738        9.77344666516047
C           52.49754699957829        0.88360459145603        7.05179475976558
C           52.45903870969997        0.94823983439474        5.66184910597612
H           47.77897421726353       -0.10315218680814        0.10227405391132
H           47.81652732164643       -0.39760930684600        2.71378080740062
H           49.64748489604781       -0.43739902670723        4.51988122494022
H           55.05686095787341        0.31854153726973        4.44503465918610
H           56.88061203246669        0.42884108206634        2.62340884775625
H           56.56012973258203       -0.88228515053652       -2.58785588546156
H           54.60389108135983       -0.86117299747677       -4.46592260365228
H           50.93253098160631       -1.59118600905147       -5.38379631498474
H           50.98693129464743       -1.37639065334163       -7.82478044245988
H           52.92675848362920        1.70996641315023      -10.86783607875486
H           53.36769410947797        2.20349485356292       -7.44493612961589
H           53.30027804108896        1.98201496564591       -5.00533598818192
H           49.36264360074342        0.57996022405555       -4.49239371331906
H           47.66539159800213        0.48031433455680       -2.53784759364104
H           52.20809863647285       -2.37211918068621        4.97047010649468
H           52.27627812131628       -2.49795608497929        7.41997294774121
H           52.60657419897327        0.69236702791138       10.92176114892139
H           52.57940353445788        1.80413581137281        7.61783072593984
H           52.50901942678979        1.91356938052494        5.16824060121488
Co          96.01096483902280        0.01634569515452       -0.04110041050863
C           99.42404795152278       -0.07266787401818       -0.12522472114116
C           98.75106567997400       -0.04042891310754       -1.29863467565591
C           99.40668948436124       -0.03317815162335       -2.59855798074598
C           98.45497312158898        0.05343899326095       -3.52763192705381
C           97.16175331280770        0.10478574811106       -2.84141013229775
N           97.35126999754937        0.04222899717405       -1.44548783967613
C           95.95744855285906        0.25061712791857       -3.46412679435715
C           94.68962846972413        0.32614899142176       -2.75021228248308
C           93.40897044750297        0.61582654745414       -3.39035839744678
C           92.46215719988447        0.56738194734141       -2.44731324958477
N           94.53345486775505        0.10281590704742       -1.45619876871378
C           93.12940612554355        0.23464931438393       -1.20214658417714
C           92.53877689726885        0.00994898208469       -0.01103264562402
C           93.30120286385210       -0.32509935091631        1.18161848777272
C           92.75797798206573       -0.88363591598718        2.30024585953573
C           93.78439422510652       -0.98296593339003        3.28008669865049
C           94.92721311200768       -0.48216902590978        2.72846605502232
C           96.19110720044890       -0.35326022158614        3.46087580445567
C           96.17926051645991       -0.39229807172010        4.95083239111774
C           96.82832008567466       -1.41797017031988        5.65419734275919
C           96.79163230278054       -1.45589452251134        7.04727278413463
C           96.10497360842956       -0.46477803000354        7.77527261298744
C           96.07235349460905       -0.51535890383927        9.26566017067552
O           95.38948825908383        0.47048271551261        9.94303996852483
O           96.64025956448950       -1.41225888092179        9.87582762080630
C           95.45886774541090        0.55778492823833        7.06518342510800
C           95.49442259964093        0.59291352014521        5.67361984733017
C           97.37023840830228       -0.19293785352913        2.81147882519229
C           98.67894915451095       -0.01205816440853        3.42481696655476
C           99.55669849524183        0.05436584346002        2.41833185192130
C           98.80673136208678       -0.07179175406654        1.17574794453255
N           97.51490007337685       -0.20787837136184        1.40116579393790
N           94.69034327005261       -0.07164922184005        1.39023946094030
C           95.92920413827589        0.34885169148233       -4.94629306624152
C           95.99839057764768       -0.80475244375292       -5.73564308348540
C           95.95909976642284       -0.71032540324845       -7.12529398040081
C           95.85325802108612        0.54430128189915       -7.75702960675093
C           95.81141874349524        0.63304746449920       -9.24514541477800
O           95.70919578264591        1.87695060168808       -9.82783643071919
O           95.86675051826653       -0.37631569979376       -9.93602824722693
C           95.78929835614741        1.69392561018809       -6.95574636166667
C           95.82781148097656        1.59785008577380       -5.56761432339338
H          100.50787387530002       -0.08762610682651       -0.16638649383496
H          100.47031860336884       -0.07897108180962       -2.79441947587856
H           98.63935082801142        0.08977528687929       -4.59304994029797
H           93.23003965256086        0.83204868989975       -4.43151861696477
H           91.40604971220350        0.73155934879833       -2.60939598660044
H           91.72654272530181       -1.17178382831270        2.41606019261824
H           93.68302666018364       -1.36733504381204        4.28389906638584
H           97.35431374528294       -2.19832961792975        5.11150331832148
H           97.29991068126567       -2.26643396713790        7.56097507843741
H           95.36005836568381        0.44844450502942       10.93962394924391
H           94.91915032723635        1.33336298431264        7.59646761243791
H           94.98656582277172        1.39468621395469        5.14760575757425
H           98.92419631585331        0.06112528742228        4.47640587387505
H          100.62144522799733        0.18753187990115        2.52340910490175
H           96.07874828320811       -1.78008405297602       -5.26373678748709
H           96.01056875849120       -1.62262486849426       -7.71140512112730
H           95.68027767273875        1.95021770458075      -10.82195434518376
H           95.70744134818511        2.67358373317794       -7.41186409980881
H           95.77782430068419        2.49982149035164       -4.96600030999555