132
 energy: -250.766532341979 gnorm: 1.012010681000 xtb: 6.5.1 (b24c23e)
Co          15.30413300000000        0.00347100000000        0.01552800000000
C           11.88610900000000       -0.10354400000000        0.10474900000000
C           12.55140100000000       -0.20513700000000        1.25888100000000
C           11.90353900000000       -0.34766600000000        2.55746600000000
C           12.84566400000000       -0.36868100000000        3.48191000000000
C           14.14870200000000       -0.23843100000000        2.81608700000000
N           13.96922300000000       -0.13976800000000        1.40301900000000
C           15.33785900000000       -0.16750100000000        3.44721200000000
C           16.62934400000000       -0.00783100000000        2.72962900000000
C           17.91607000000000        0.20899100000000        3.40213500000000
C           18.85055500000000        0.26660500000000        2.47536100000000
N           16.77188000000000       -0.08635800000000        1.44183100000000
C           18.16900400000000        0.07949600000000        1.20023300000000
C           18.76533000000000       -0.00097400000000       -0.00068200000000
C           18.00759200000000       -0.21102600000000       -1.25539600000000
C           18.55069900000000       -0.62363300000000       -2.39385700000000
C           17.50690100000000       -0.61191800000000       -3.39943800000000
C           16.39472900000000       -0.18879500000000       -2.81003600000000
C           15.10673200000000        0.03419800000000       -3.51620400000000
C           15.12451900000000        0.17014000000000       -4.99319300000000
C           14.48137500000000       -0.77687500000000       -5.80419200000000
C           14.51683600000000       -0.65445500000000       -7.19600300000000
C           15.20315400000000        0.41416100000000       -7.80050400000000
C           15.24420500000000        0.54820600000000       -9.27334100000000
O           15.92820300000000        1.60832600000000       -9.86293100000000
O           14.66108000000000       -0.29455800000000      -10.00792600000000
C           15.85429900000000        1.35498900000000       -6.98396800000000
C           15.81731700000000        1.23172400000000       -5.59216100000000
C           13.94021400000000        0.11744800000000       -2.84806900000000
C           12.62458000000000        0.36967500000000       -3.43370200000000
C           11.76313700000000        0.32047400000000       -2.43630900000000
C           12.51931500000000        0.05061000000000       -1.21470100000000
N           13.78929500000000       -0.06908300000000       -1.44227500000000
N           16.62038000000000        0.08315900000000       -1.42544000000000
C           15.37760800000000       -0.23917900000000        4.92304800000000
C           15.31338500000000       -1.48015300000000        5.57010000000000
C           15.35270100000000       -1.54862400000000        6.96561800000000
C           15.45806700000000       -0.37493100000000        7.73437800000000
C           15.50060800000000       -0.44170100000000        9.21172100000000
O           15.60379200000000        0.72536600000000        9.96442500000000
O           15.44403200000000       -1.55404300000000        9.80275100000000
C           15.52291200000000        0.86684300000000        7.07798000000000
C           15.48287600000000        0.93348400000000        5.68236000000000
H           10.80286200000000       -0.12216900000000        0.13292600000000
H           10.84009900000000       -0.41589600000000        2.74768300000000
H           12.66155500000000       -0.45548000000000        4.54498700000000
H           18.09106500000000        0.30184000000000        4.46581000000000
H           19.90689600000000        0.41182000000000        2.65829800000000
H           19.58410800000000       -0.89872900000000       -2.55672400000000
H           17.62375300000000       -0.87779100000000       -4.44207800000000
H           13.95560500000000       -1.61187400000000       -5.35737500000000
H           14.00953300000000       -1.39794300000000       -7.79798300000000
H           15.96244600000000        1.70948600000000      -10.87032900000000
H           16.39372400000000        2.18674200000000       -7.41921300000000
H           16.32640900000000        1.96602600000000       -4.97975300000000
H           12.37759100000000        0.56368000000000       -4.46914200000000
H           10.69385700000000        0.46358600000000       -2.52060200000000
H           15.23269800000000       -2.39320700000000        4.99294700000000
H           15.30098200000000       -2.51972700000000        7.44182000000000
H           15.63371600000000        0.69090800000000       10.97644500000000
H           15.60471400000000        1.78765700000000        7.64155500000000
H           15.53419300000000        1.89815000000000        5.19237100000000
Co          33.59653000000000        0.00531100000000       -0.01627000000000
C           37.01455499999999       -0.09070200000000       -0.11723600000000
C           36.34926300000000       -0.05853300000000       -1.27538500000000
C           36.99712500000000       -0.05037000000000       -2.58174200000000
C           36.05500000000000        0.03535400000000       -3.50244300000000
C           34.75196200000000        0.08795800000000       -2.82604200000000
N           34.93144100000000        0.02302000000000       -1.41102300000000
C           33.56280500000000        0.23119200000000       -3.44477900000000
C           32.27132000000000        0.30705100000000       -2.71357000000000
C           30.98459400000000        0.59997400000000       -3.35658800000000
C           30.05010800000000        0.55033600000000       -2.42935300000000
N           32.12878400000000        0.08055000000000       -1.44341800000000
C           30.73166000000000        0.21743800000000       -1.18430700000000
C           30.13533300000000       -0.00097400000000       -0.00068200000000
C           30.89307200000000       -0.35430700000000        1.22144100000000
C           30.34996500000000       -0.89544000000000        2.30473000000000
C           31.39376200000000       -0.99975900000000        3.30495400000000
C           32.50593500000000       -0.51149300000000        2.76827400000000
C           33.79393100000000       -0.37141700000000        3.49544500000000
C           33.77614500000000       -0.40669600000000        4.97825800000000
C           34.41928800000000       -1.44091000000000        5.67464500000000
C           34.38382800000000       -1.47979900000000        7.07128800000000
C           33.69751000000000       -0.48801800000000        7.79498100000000
C           33.65645900000000       -0.52470200000000        9.27345000000000
O           32.97246100000000        0.46036000000000        9.98135200000000
O           34.23958300000000       -1.44655000000000        9.90595400000000
C           33.04636500000000        0.54069100000000        7.09238000000000
C           33.08334700000000        0.57873900000000        5.69564400000000
C           34.96045000000000       -0.21167800000000        2.84136800000000
C           36.27608400000000       -0.02866400000000        3.45217900000000
C           37.13752700000000        0.03747400000000        2.45576500000000
C           36.38134900000000       -0.08972400000000        1.21118800000000
N           35.11136800000000       -0.23486100000000        1.42344100000000
N           32.28028400000000       -0.08169300000000        1.42427500000000
C           33.52305600000000        0.33017300000000       -4.91903500000000
C           33.58727900000000       -0.82791100000000       -5.70486900000000
C           33.54796300000000       -0.73500600000000       -7.09897400000000
C           33.44259600000000        0.51950500000000       -7.72726500000000
C           33.40005600000000        0.62353500000000       -9.20245300000000
O           33.29687100000000        1.86961200000000       -9.81556000000000
O           33.45663200000000       -0.41323400000000       -9.91780600000000
C           33.37775200000000        1.67730600000000       -6.93205500000000
C           33.41778800000000        1.58257100000000       -5.53806100000000
H           38.09780200000000       -0.10595400000000       -0.14737300000000
H           38.06056499999999       -0.09621000000000       -2.77855900000000
H           36.23910900000000        0.07172000000000       -4.56843700000000
H           30.80959900000000        0.81485800000000       -4.40246100000000
H           28.99376800000000        0.71567800000000       -2.59432400000000
H           29.31655599999999       -1.18748200000000        2.43478900000000
H           31.27691100000000       -1.38408600000000        4.30998100000000
H           34.94505900000000       -2.21881600000000        5.13452400000000
H           34.89113000000000       -2.28774300000000        7.58352000000000
H           32.93821800000000        0.44468000000000       10.99369500000000
H           32.50694000000000        1.31670700000000        7.62063200000000
H           32.57425400000000        1.37876000000000        5.17199400000000
H           36.52307300000000        0.04464800000000        4.50308200000000
H           38.20680700000000        0.16991100000000        2.55599900000000
H           33.66796600000000       -1.80142600000000       -5.23685200000000
H           33.59968200000000       -1.64471900000000       -7.68397800000000
H           33.26694700000000        1.95208200000000      -10.82480200000000
H           33.29595000000000        2.65696400000000       -7.38569000000000
H           33.36647100000000        2.48430100000000       -4.94010200000000
C           19.94802700000000        0.01510500000000        0.01056600000000
C           21.40625300000000       -0.00673200000000       -0.00730800000000
C           22.54018100000000       -0.02748500000000       -0.00879800000000
C           23.90156300000000       -0.04007500000000       -0.01099000000000
C           25.17578200000000       -0.02976900000000       -0.01575500000000
C           26.36424400000000       -0.01097100000000       -0.02191100000000
C           27.71660500000000        0.01381400000000       -0.00604300000000
C           28.81687200000000        0.01510500000000        0.01056600000000
132
 energy: -251.016952016427 gnorm: 0.391781724639 xtb: 6.5.1 (b24c23e)
Co          15.29722744243407       -0.00241343951170        0.01517435456995
C           11.88802057336345       -0.10135529946255        0.08865034599602
C           12.56042155895206       -0.20440744726209        1.25778554287860
C           11.90474189340663       -0.34736767708528        2.54933345837976
C           12.85671072556238       -0.36826709722764        3.48218668428201
C           14.14899004978460       -0.23845508222099        2.80661819220786
N           13.96174594146420       -0.14093769110035        1.41248583031053
C           15.35350673140645       -0.16577590668112        3.44448866229653
C           16.61786972464024       -0.00822526165962        2.75162849940352
C           17.89731234271777        0.20560951295242        3.41605046147310
C           18.84176604107224        0.26556410577172        2.46725975875436
N           16.76967073715958       -0.07774372428228        1.43839123864113
C           18.14101115293516        0.08276798079803        1.21936621199069
C           18.73455074763426       -0.00502456338974       -0.01552046173660
C           17.98187781380298       -0.20534437107765       -1.25609655828668
C           18.54900801028355       -0.62614027469490       -2.41414682000231
C           17.52369134219913       -0.61270046096775       -3.40269592352703
C           16.38148002215684       -0.17940105235276       -2.79890245582751
C           15.11897680634152        0.03378793402344       -3.50844677508068
C           15.13195804714141        0.16689066722547       -4.99161531027076
C           14.48347814701206       -0.77127029634120       -5.80819643157864
C           14.52036648991274       -0.64836637571343       -7.19624369318090
C           15.20696574822302        0.42015423926214       -7.80505143081623
C           15.23956363842456        0.54175784739056       -9.29128164277283
O           15.92246786258633        1.59916599454820       -9.85046255289334
O           14.67169143128229       -0.27876610443444      -10.00083126911545
C           15.85310953153281        1.35403142203431       -6.98179495519651
C           15.81752968348432        1.22851088270020       -5.59555573349280
C           13.94083750582558        0.11759408775503       -2.84391652064533
C           12.63271246316084        0.36830505657116       -3.43170040375801
C           11.75498126399765        0.31818981527462       -2.42409606652077
C           12.50546932226284        0.04971537599139       -1.20524177299790
N           13.79622244060407       -0.05940599643958       -1.44425998760019
N           16.61155103183472        0.07033715776148       -1.42364591690403
C           15.38168167406853       -0.23853457605518        4.92628920927010
C           15.31343284563913       -1.47561975870920        5.57673315826229
C           15.35293548432507       -1.54197314479130        6.96789086831158
C           15.45867763015453       -0.36854283187034        7.74007948203694
C           15.50052589293487       -0.45200797872228        9.22845726175204
O           15.60272156928753        0.71643586239088        9.95068804887887
O           15.44516517462797       -1.53427489752747        9.79835819532023
C           15.52267429064834        0.86581416826816        7.07672931957416
C           15.48398508768195        0.93054203396630        5.68689557417527
H           10.80410826911789       -0.12119138480274        0.12729045462216
H           10.84135877847151       -0.41540000051689        2.73861909180249
H           12.67254995187731       -0.45517839259050        4.54471110733084
H           18.08184512222819        0.30094726161027        4.47213717024944
H           19.90181629857836        0.41067592058038        2.64569878645374
H           19.58317089288294       -0.89979406238905       -2.56038700552491
H           17.62878374048861       -0.87916123486756       -4.44241036291285
H           13.95761138724677       -1.60898725751965       -5.35893501948614
H           14.01202706918107       -1.39420945072239       -7.79993685476079
H           15.95185176037116        1.69212936898854      -10.84292441103134
H           16.39280457152212        2.18569733657384       -7.42007669866296
H           16.32534666269587        1.96420118373154       -4.98044665589941
H           12.38758901215514        0.56218443404683       -4.46768369032403
H           10.69033349032827        0.46254613231170       -2.51291565576953
H           15.23318519363777       -2.38993748844665        4.99536732451555
H           15.30138376120212       -2.51576640126858        7.44484906708764
H           15.63166832027932        0.67452770146989       10.94659930463004
H           15.60452996203350        1.78633983384992        7.64272034559683
H           15.53410979330226        1.89575399035734        5.19312388434852
Co          33.60360906094278       -0.00154698821132       -0.01618517176949
C           37.01268894840963       -0.09041727212754       -0.10074611122136
C           36.34017062318078       -0.05807879958279       -1.27403769760718
C           36.99580048310934       -0.05098695895934       -2.57368184280931
C           36.04405296298037        0.03575398358682       -3.50275297463304
C           34.75141471750244        0.08678755759442       -2.81678676423734
N           34.93961336529163        0.02383672999875       -1.42101197011832
C           33.54760172874526        0.23238345438724       -3.44187360055016
C           32.28351599300478        0.30887152591908       -2.73304359044031
C           31.00059250823171        0.59839197073323       -3.36885685138292
C           30.05759873169717        0.54797361593342       -2.42163771711316
N           32.13508487996548        0.08964234885332       -1.43975602438410
C           30.75949070717259        0.22067789477666       -1.19449865764044
C           30.19426678560041       -0.00485187723612        0.01219256683317
C           30.91932283602070       -0.34685461998278        1.21783289384242
C           30.35135591079342       -0.89924797469787        2.32479200269761
C           31.37556155336038       -1.00098708704538        3.30747233828842
C           32.51940162633553       -0.50083879753405        2.75805126337298
C           33.78108812875750       -0.37086783556661        3.48759743673965
C           33.76861286105513       -0.40982482425314        4.97633000865020
C           34.41716003586214       -1.43581207303573        5.67929265609752
C           34.38032423978903       -1.47378270346480        7.07223815608253
C           33.69370050951483       -0.48259093766268        7.80021218074393
C           33.66110959349369       -0.53318098561912        9.29045766026461
O           32.97817651706635        0.45272183778240        9.96793538533186
O           34.22897232486631       -1.43005511633116        9.90077933869823
C           33.04754456473421        0.53999145473242        7.09011715783104
C           33.08317156156014        0.57514629102714        5.69866680085016
C           34.95963379620988       -0.21086109922900        2.83697107429447
C           36.26783343476644       -0.02986363692960        3.44987124219633
C           37.14563742082503        0.03655763130731        2.44320306217266
C           36.39541943262390       -0.08956719072515        1.20126887445404
N           35.10412909398080       -0.22528592946992        1.42661966782152
N           32.29015004801784       -0.09501117801924        1.42097606104250
C           33.51886566944947        0.33113525560215       -4.92229359690498
C           33.58721235056622       -0.82264017037958       -5.71102819402918
C           33.54774814355751       -0.72816711851589       -7.10051718327392
C           33.44198359739448        0.52650781141790       -7.73222043441660
C           33.40016083963963        0.61521788171017       -9.22021964502124
O           33.29792057235854        1.85918197266664       -9.80296228381418
O           33.45547934973774       -0.39410824664643       -9.91120336291227
C           33.37796530789660        1.67616873541559       -6.93096421350767
C           33.41663573434529        1.58015093879838       -5.54296755674394
H           38.09658017606923       -0.10554636265185       -0.14159710859147
H           38.05925645000458       -0.09678895970663       -2.76952002426712
H           36.22816733495753        0.07197485440796       -4.56818774239336
H           30.81827178041857        0.81458209473954       -4.40809102639476
H           28.99835925125844        0.71329304631763       -2.58278460585233
H           29.31762159993393       -1.18902133829371        2.43864267223377
H           31.27156719529432       -1.38553535051484        4.30990065528242
H           34.94305205147938       -2.21612180433648        5.13641530405856
H           34.88864107016881       -2.28426733835826        7.58590160145907
H           32.94882124988677        0.43058945754206       10.96447048587625
H           32.50785552933835        1.31557396184644        7.62137674520242
H           32.57531912876575        1.37685089845581        5.17248076054923
H           36.51301102235252        0.04331964334660        4.50137951161164
H           38.21030323938889        0.16974915476012        2.54822742204904
H           33.66749217143290       -1.79788049708304       -5.23889428178245
H           33.59928397062486       -1.64045189012273       -7.68656812372889
H           33.26900597366612        1.93236156761444      -10.79704662097750
H           33.29614439911323        2.65581118594955       -7.38702812281092
H           33.36657158557826        2.48199387927200       -4.94114039267417
C           20.03026918089446        0.01566475031588       -0.00659762473887
C           21.33587298315943       -0.00510103593503       -0.01120729153229
C           22.58737449650796       -0.02825429438738       -0.00711711028637
C           23.86782463705772       -0.04067645998891       -0.01084664580241
C           25.13990315368159       -0.03018532395458       -0.01656158717850
C           26.36069123568333       -0.00955021067142       -0.02200312694079
C           27.65439843692241        0.01353664555468       -0.00300220998837
C           28.86588619437694        0.01233392936350        0.02432624501713
132
 energy: -251.098426364962 gnorm: 0.170967623718 xtb: 6.5.1 (b24c23e)
Co          15.28762358683199       -0.00990783974637        0.01319522297230
C           11.89352528058810       -0.09812961855986        0.07027092259810
C           12.57184762539297       -0.20416389544037        1.25517901561104
C           11.91199735397291       -0.34672220583210        2.53745626788960
C           12.87306064430867       -0.36775366209299        3.47786302832110
C           14.15132505001044       -0.23936996730094        2.79557583345089
N           13.95130447397312       -0.14311691721033        1.42501336813257
C           15.37121971313409       -0.16411498893637        3.44007315958478
C           16.60353226974518       -0.00643609770616        2.77003808464171
C           17.87589778632989        0.19981103195703        3.42487864206309
C           18.82371869746121        0.26363780846980        2.45813650274927
N           16.76798981830074       -0.05893543954832        1.42968343897865
C           18.12270362193900        0.08630511759455        1.21890774887103
C           18.72252402892239       -0.01281210571848       -0.03367129242907
C           17.96559011067231       -0.19811081209386       -1.24796160014061
C           18.54574652919416       -0.62153764825385       -2.43851857475606
C           17.54586568326628       -0.60607612393372       -3.40254216236830
C           16.37193187955719       -0.17082641522451       -2.78490182687907
C           15.14031435748591        0.03339847202102       -3.49416088495660
C           15.14735127170895        0.15978441799850       -4.98553466942297
C           14.48900997508357       -0.76379668779833       -5.81109074865678
C           14.52567180665920       -0.63796875950433       -7.19579694332017
C           15.21191394525749        0.42789188893837       -7.80658148916212
C           15.23404962406366        0.53387016248973       -9.30436661848711
O           15.91711415551713        1.58963656920701       -9.82102692893262
O           14.67896823332024       -0.26759944866640      -10.00268354488649
C           15.85282821001359        1.35426086085869       -6.97890779521922
C           15.82147572422248        1.22315936189987       -5.59680753484189
C           13.94448273502460        0.12258161899911       -2.83079313426365
C           12.64471221588928        0.36491026705773       -3.42013862431833
C           11.75068954859229        0.31258801458570       -2.40865482621962
C           12.49207841592466        0.05101069863054       -1.19340532097894
N           13.80637709521887       -0.04174534661092       -1.44306306309978
N           16.60770985657856        0.04024071755555       -1.41905077123429
C           15.38731178288806       -0.23675335840119        4.92921685235964
C           15.31418695218316       -1.46862880121314        5.58569742182823
C           15.35304491526717       -1.53149389606521        6.97291773434146
C           15.45933451089541       -0.35978919485128        7.74464315361534
C           15.50022613684726       -0.46339971000845        9.24122011927280
O           15.60131869264878        0.70976468947469        9.92064743584272
O           15.44608681745098       -1.52147127997466        9.80287201993429
C           15.52259959491530        0.86673091170608        7.07727650677385
C           15.48646839078426        0.92844666957069        5.69167494658554
H           10.80888662962110       -0.11809868030764        0.11824603207510
H           10.84765619760300       -0.41425899136932        2.72033844905694
H           12.69539126156551       -0.45446952122301        4.54107004148677
H           18.06422731542876        0.29737444312148        4.47984646941434
H           19.88568253881941        0.40794819653831        2.62615816626531
H           19.57966838195550       -0.89983300202569       -2.56843547475695
H           17.63591762561839       -0.87843491246437       -4.44152634585793
H           13.96196628523469       -1.60271622004571       -5.36250698347710
H           14.01790617683482       -1.38404298275511       -7.80307143656354
H           15.93325924128616        1.66182466042829      -10.79845185359180
H           16.39125865853049        2.18543382349583       -7.42110579165886
H           16.32521446123004        1.96113412960530       -4.98063926160962
H           12.40818261884137        0.55778606493082       -4.45897347841968
H           10.68702151148628        0.45879143976330       -2.49895228241403
H           15.23425335825803       -2.38302576555160        5.00194612422269
H           15.30204248163769       -2.50566547952189        7.45239362652745
H           15.62817518804742        0.64556937257655       10.89825555251456
H           15.60405795309581        1.78582341451318        7.64607295270780
H           15.53456306254053        1.89241228255906        5.19443820094665
Co          33.61524569414057       -0.00942035047229       -0.01517443404286
C           37.00723770785328       -0.08925961767420       -0.08218633797941
C           36.32899815305786       -0.05801884800241       -1.27164899560773
C           36.98906838196928       -0.05180256875290       -2.56191244904357
C           36.02852539172852        0.03566761020816       -3.49866446075137
C           34.75011285066508        0.08475723628822       -2.80661167163272
N           34.95050850195329        0.02288560273645       -1.43415198405579
C           33.53203671864805        0.23392849465888       -3.43960312439587
C           32.30130767568790        0.31339503447684       -2.75593851960839
C           31.02434689444829        0.59361225898771       -3.38061586918035
C           30.07974758017970        0.54497659294083       -2.41314219830274
N           32.14550971680079        0.10795013064230       -1.43444835298504
C           30.79133770072448        0.22802697254245       -1.20169431836179
C           30.23037332663839       -0.01211229032243        0.03362286414143
C           30.94859741465292       -0.34166393833903        1.21775047527889
C           30.35914609215424       -0.89787528546458        2.35089109823773
C           31.35510505527104       -0.99432522893095        3.31001797922940
C           32.53203291024016       -0.49175893225902        2.74877520844516
C           33.76160435767633       -0.36998181788119        3.47499517486241
C           33.75393371642208       -0.41607057607180        4.97031424858306
C           34.41184725897759       -1.42886954228057        5.68342976567903
C           34.37505650138521       -1.46350554215278        7.07325738579023
C           33.68875931519604       -0.47509618603915        7.80274572023879
C           33.66661869667134       -0.54254079967613        9.30260186967300
O           32.98351860568587        0.44664976450629        9.93762988547748
O           34.22167963316323       -1.41917401689002        9.90394628505937
C           33.04779868804999        0.54056593109287        7.08744523315773
C           33.07931278833762        0.56969878523314        5.69953984237421
C           34.95668663170069       -0.20447670470037        2.82494623135951
C           36.25626250109445       -0.03176998058379        3.43807820508641
C           37.15010180192925        0.03274713370227        2.42719502172174
C           36.40889385950492       -0.08688270691907        1.18970010413734
N           35.09413600049623       -0.20742057897264        1.42777973472301
N           32.30299250049843       -0.12505140932192        1.41835851614849
C           33.51414285908475        0.33334236170446       -4.92611744033134
C           33.58658849066587       -0.81480299729793       -5.71957900819824
C           33.54758977792589       -0.71727045166605       -7.10461240937657
C           33.44132327325516        0.53572539286342       -7.73590874643001
C           33.40043551296003        0.60536451498406       -9.23429203184522
O           33.29932429448537        1.84910285020388       -9.77393912910137
O           33.45456044409756       -0.38086487572237       -9.91428165878856
C           33.37799018531569        1.67722859838567       -6.93168173749242
C           33.41428656916368        1.57877239504285       -5.54837618817437
H           38.09184477536902       -0.10353953279446       -0.13228543128198
H           38.05336189851594       -0.09780431595331       -2.75119718831612
H           36.20580335412286        0.07222706123882       -4.56472369026211
H           30.83611121741502        0.81198118434128       -4.41723296371859
H           29.01676726515879        0.70751170388037       -2.56112434771243
H           29.32367010943502       -1.18878093397437        2.44464262346500
H           31.26429502754571       -1.38489772280534        4.31011735291848
H           34.93876562617017       -2.21037567453410        5.14083227950759
H           34.88279446532599       -2.27461805479559        7.59037681815470
H           32.96741695626390        0.40560734902593       10.91682961007110
H           32.50936304129865        1.31521511269433        7.62246291949053
H           32.57553833177646        1.37370216462805        5.17235891603455